

################################################################################
##################################    Init    ##################################
################################################################################
units           real
atom_style      full
pair_style      lj/cut/coul/long 12.0  12.0
kspace_style    pppm 1e-4
bond_style      harmonic
angle_style     harmonic
dihedral_style  fourier
improper_style  cvff
special_bonds   amber
pair_modify     mix arithmetic
read_data       temp.lmps
  orthogonal box = (-108.045 -108.045 -108.045) to (108.045 108.045 108.045)
  2 by 2 by 4 MPI processor grid
  reading atoms ...
  595 atoms
  reading velocities ...
  595 velocities
  scanning bonds ...
  3 = max bonds/atom
  scanning angles ...
  6 = max angles/atom
  scanning dihedrals ...
  24 = max dihedrals/atom
  scanning impropers ...
  2 = max impropers/atom
  reading bonds ...
  629 bonds
  reading angles ...
  1095 angles
  reading dihedrals ...
  1621 dihedrals
  reading impropers ...
  165 impropers
  4 = max # of 1-2 neighbors
  10 = max # of 1-3 neighbors
  20 = max # of 1-4 neighbors
  22 = max # of special neighbors
  special bonds CPU = 0.000884056 secs
  read_data CPU = 0.019587 secs
################################################################################

min_style cg
minimize 1e-05 1e-05 10000 100000
WARNING: Using 'neigh_modify every 1 delay 0 check yes' setting during minimization (../min.cpp:190)
PPPM initialization ...
WARNING: System is not charge neutral, net charge = -1.5e-05 (../kspace.cpp:313)
  using 12-bit tables for long-range coulomb (../kspace.cpp:332)
  G vector (1/distance) = 0.093443
  grid = 18 18 18
  stencil order = 5
  estimated absolute RMS force accuracy = 0.0325511
  estimated relative force accuracy = 9.80267e-05
  using double precision KISS FFT
  3d grid and FFT values/proc = 1960 648
Neighbor list info ...
  update every 1 steps, delay 0 steps, check yes
  max neighbors/atom: 2000, page size: 100000
  master list distance cutoff = 14
  ghost atom cutoff = 14
  binsize = 7, bins = 31 31 31
  1 neighbor lists, perpetual/occasional/extra = 1 0 0
  (1) pair lj/cut/coul/long, perpetual
      attributes: half, newton on
      pair build: half/bin/newton
      stencil: half/bin/3d/newton
      bin: standard
Per MPI rank memory allocation (min/avg/max) = 18.84 | 19.11 | 19.63 Mbytes
Step Temp E_pair E_mol TotEng Press 
       0    1742.6879    371.26258    955.26122    4412.1291    13.911905 
      14    1742.6879     370.5327    944.65357    4400.7915    14.271125 
Loop time of 0.172646 on 16 procs for 14 steps with 595 atoms

90.7% CPU use with 16 MPI tasks x no OpenMP threads

Minimization stats:
  Stopping criterion = linesearch alpha is zero
  Energy initial, next-to-last, final = 
         1326.52380021      1315.18627689      1315.18627689
  Force two-norm initial, final = 52.9155 38.5005
  Force max component initial, final = 7.66858 4.65453
  Final line search alpha, max atom move = 5.49289e-12 2.55668e-11
  Iterations, force evaluations = 14 87

MPI task timing breakdown:
Section |  min time  |  avg time  |  max time  |%varavg| %total
---------------------------------------------------------------
Pair    | 1.5497e-05 | 0.012879   | 0.0858     |  22.4 |  7.46
Bond    | 3.8624e-05 | 0.0031682  | 0.017165   |  10.3 |  1.84
Kspace  | 0.06561    | 0.15314    | 0.16986    |   8.0 | 88.70
Neigh   | 0          | 0          | 0          |   0.0 |  0.00
Comm    | 3.2902e-05 | 0.0012763  | 0.0028193  |   2.7 |  0.74
Output  | 0          | 0          | 0          |   0.0 |  0.00
Modify  | 0          | 0          | 0          |   0.0 |  0.00
Other   |            | 0.002181   |            |       |  1.26

Nlocal:    37.1875 ave 211 max 0 min
Histogram: 12 0 0 1 1 0 0 0 0 2
Nghost:    91.75 ave 365 max 0 min
Histogram: 8 0 0 3 3 1 0 0 0 1
Neighs:    1804.38 ave 12260 max 0 min
Histogram: 12 0 2 0 0 0 0 1 0 1

Total # of neighbors = 28870
Ave neighs/atom = 48.521
Ave special neighs/atom = 10.605
Neighbor list builds = 0
Dangerous builds = 0
timestep        1
fix             pysimm_md all nvt temp 300 300 100
run             5000
PPPM initialization ...
  using 12-bit tables for long-range coulomb (../kspace.cpp:332)
  G vector (1/distance) = 0.093443
  grid = 18 18 18
  stencil order = 5
  estimated absolute RMS force accuracy = 0.0325511
  estimated relative force accuracy = 9.80267e-05
  using double precision KISS FFT
  3d grid and FFT values/proc = 1960 648
Per MPI rank memory allocation (min/avg/max) = 17.71 | 17.98 | 18.51 Mbytes
Step Temp E_pair E_mol TotEng Press 
      14    1742.6879     370.5327    944.65357    4400.7915    14.271125 
    5014    313.32659    387.19423    1185.7482    2127.7189    3.7970215 
Loop time of 4.38791 on 16 procs for 5000 steps with 595 atoms

Performance: 98.452 ns/day, 0.244 hours/ns, 1139.495 timesteps/s
92.4% CPU use with 16 MPI tasks x no OpenMP threads

MPI task timing breakdown:
Section |  min time  |  avg time  |  max time  |%varavg| %total
---------------------------------------------------------------
Pair    | 0.00052953 | 0.23974    | 1.6161     |  98.5 |  5.46
Bond    | 0.0009675  | 0.081837   | 0.52526    |  55.3 |  1.87
Kspace  | 2.006      | 3.4839     | 3.7565     |  27.4 | 79.40
Neigh   | 0.090905   | 0.092206   | 0.094318   |   0.3 |  2.10
Comm    | 0.028727   | 0.22819    | 0.50813    |  39.3 |  5.20
Output  | 2.2173e-05 | 2.3499e-05 | 3.0994e-05 |   0.0 |  0.00
Modify  | 0.03197    | 0.24343    | 0.49124    |  40.8 |  5.55
Other   |            | 0.0186     |            |       |  0.42

Nlocal:    37.1875 ave 218 max 0 min
Histogram: 12 0 1 0 1 0 0 1 0 1
Nghost:    112.25 ave 372 max 0 min
Histogram: 8 0 1 0 1 3 2 0 0 1
Neighs:    1740 ave 10561 max 0 min
Histogram: 12 0 0 1 1 0 0 1 0 1

Total # of neighbors = 27840
Ave neighs/atom = 46.7899
Ave special neighs/atom = 10.605
Neighbor list builds = 176
Dangerous builds = 0
unfix pysimm_md
write_dump all custom pysimm.dump.tmp id q x y z vx vy vz
quit


################################################################################
##################################    Init    ##################################
################################################################################
units           real
atom_style      full
pair_style      lj/cut/coul/long 12.0  12.0
kspace_style    pppm 1e-4
bond_style      harmonic
angle_style     harmonic
dihedral_style  fourier
improper_style  cvff
special_bonds   amber
pair_modify     mix arithmetic
read_data       temp.lmps
  orthogonal box = (-111.533 -111.533 -111.533) to (111.533 111.533 111.533)
  2 by 2 by 4 MPI processor grid
  reading atoms ...
  654 atoms
  reading velocities ...
  654 velocities
  scanning bonds ...
  3 = max bonds/atom
  scanning angles ...
  6 = max angles/atom
  scanning dihedrals ...
  24 = max dihedrals/atom
  scanning impropers ...
  2 = max impropers/atom
  reading bonds ...
  693 bonds
  reading angles ...
  1209 angles
  reading dihedrals ...
  1787 dihedrals
  reading impropers ...
  181 impropers
  4 = max # of 1-2 neighbors
  10 = max # of 1-3 neighbors
  20 = max # of 1-4 neighbors
  22 = max # of special neighbors
  special bonds CPU = 0.000916004 secs
  read_data CPU = 0.022238 secs
################################################################################

min_style cg
minimize 1e-05 1e-05 10000 100000
WARNING: Using 'neigh_modify every 1 delay 0 check yes' setting during minimization (../min.cpp:190)
PPPM initialization ...
WARNING: System is not charge neutral, net charge = -1.7e-05 (../kspace.cpp:313)
  using 12-bit tables for long-range coulomb (../kspace.cpp:332)
  G vector (1/distance) = 0.0912663
  grid = 18 18 18
  stencil order = 5
  estimated absolute RMS force accuracy = 0.0337991
  estimated relative force accuracy = 0.000101785
  using double precision KISS FFT
  3d grid and FFT values/proc = 1960 648
Neighbor list info ...
  update every 1 steps, delay 0 steps, check yes
  max neighbors/atom: 2000, page size: 100000
  master list distance cutoff = 14
  ghost atom cutoff = 14
  binsize = 7, bins = 32 32 32
  1 neighbor lists, perpetual/occasional/extra = 1 0 0
  (1) pair lj/cut/coul/long, perpetual
      attributes: half, newton on
      pair build: half/bin/newton
      stencil: half/bin/3d/newton
      bin: standard
Per MPI rank memory allocation (min/avg/max) = 18.84 | 19.17 | 19.65 Mbytes
Step Temp E_pair E_mol TotEng Press 
       0    1539.9449    402.62369    1047.1173    4447.1959    12.865103 
      40    1539.9449    382.13361    997.78683    4377.3754    12.046774 
Loop time of 0.298112 on 16 procs for 40 steps with 654 atoms

95.0% CPU use with 16 MPI tasks x no OpenMP threads

Minimization stats:
  Stopping criterion = linesearch alpha is zero
  Energy initial, next-to-last, final = 
         1449.74096234      1379.92043578      1379.92043578
  Force two-norm initial, final = 67.0833 49.808
  Force max component initial, final = 10.091 6.67772
  Final line search alpha, max atom move = 4.60182e-12 3.07297e-11
  Iterations, force evaluations = 40 187

MPI task timing breakdown:
Section |  min time  |  avg time  |  max time  |%varavg| %total
---------------------------------------------------------------
Pair    | 4.5061e-05 | 0.033986   | 0.14276    |  28.2 | 11.40
Bond    | 8.9645e-05 | 0.0067473  | 0.026673   |  11.1 |  2.26
Kspace  | 0.12261    | 0.24892    | 0.2911     |  12.3 | 83.50
Neigh   | 0.00062394 | 0.00067766 | 0.00070381 |   0.0 |  0.23
Comm    | 0.00023055 | 0.0033186  | 0.0062294  |   3.7 |  1.11
Output  | 0          | 0          | 0          |   0.0 |  0.00
Modify  | 0          | 0          | 0          |   0.0 |  0.00
Other   |            | 0.004463   |            |       |  1.50

Nlocal:    40.875 ave 165 max 0 min
Histogram: 10 0 1 0 1 1 0 1 1 1
Nghost:    140.5 ave 344 max 0 min
Histogram: 8 0 0 0 0 1 2 1 1 3
Neighs:    2698.31 ave 16474 max 0 min
Histogram: 11 1 0 1 1 1 0 0 0 1

Total # of neighbors = 43173
Ave neighs/atom = 66.0138
Ave special neighs/atom = 10.6422
Neighbor list builds = 1
Dangerous builds = 0
timestep        1
fix             pysimm_md all nvt temp 300 300 100
run             5000
PPPM initialization ...
  using 12-bit tables for long-range coulomb (../kspace.cpp:332)
  G vector (1/distance) = 0.0912663
  grid = 18 18 18
  stencil order = 5
  estimated absolute RMS force accuracy = 0.0337991
  estimated relative force accuracy = 0.000101785
  using double precision KISS FFT
  3d grid and FFT values/proc = 1960 648
Per MPI rank memory allocation (min/avg/max) = 17.72 | 18.04 | 18.53 Mbytes
Step Temp E_pair E_mol TotEng Press 
      40    1539.9449    382.13361    997.78683    4377.3754    12.046774 
    5040    298.55377    421.71884    1268.1644    2271.0089    1.0719687 
Loop time of 3.98248 on 16 procs for 5000 steps with 654 atoms

Performance: 108.475 ns/day, 0.221 hours/ns, 1255.500 timesteps/s
95.3% CPU use with 16 MPI tasks x no OpenMP threads

MPI task timing breakdown:
Section |  min time  |  avg time  |  max time  |%varavg| %total
---------------------------------------------------------------
Pair    | 0.00058603 | 0.32755    | 1.6517     |  93.3 |  8.22
Bond    | 0.00098443 | 0.091799   | 0.37089    |  42.2 |  2.31
Kspace  | 1.7239     | 3.1391     | 3.5103     |  32.2 | 78.82
Neigh   | 0.084339   | 0.0871     | 0.089457   |   0.5 |  2.19
Comm    | 0.022956   | 0.16009    | 0.38404    |  26.3 |  4.02
Output  | 2.2888e-05 | 2.3961e-05 | 2.7895e-05 |   0.0 |  0.00
Modify  | 0.029904   | 0.16234    | 0.34509    |  31.5 |  4.08
Other   |            | 0.01452    |            |       |  0.36

Nlocal:    40.875 ave 170 max 0 min
Histogram: 10 1 1 0 1 0 0 1 0 2
Nghost:    101.5 ave 331 max 0 min
Histogram: 8 0 0 1 1 3 1 0 0 2
Neighs:    2094.81 ave 10502 max 0 min
Histogram: 11 1 0 0 1 1 0 0 0 2

Total # of neighbors = 33517
Ave neighs/atom = 51.2492
Ave special neighs/atom = 10.6422
Neighbor list builds = 191
Dangerous builds = 0
unfix pysimm_md
write_dump all custom pysimm.dump.tmp id q x y z vx vy vz
quit


################################################################################
##################################    Init    ##################################
################################################################################
units           real
atom_style      full
pair_style      lj/cut/coul/long 12.0  12.0
kspace_style    pppm 1e-4
bond_style      harmonic
angle_style     harmonic
dihedral_style  fourier
improper_style  cvff
special_bonds   amber
pair_modify     mix arithmetic
read_data       temp.lmps
  orthogonal box = (-114.815 -114.815 -114.815) to (114.815 114.815 114.815)
  2 by 2 by 4 MPI processor grid
  reading atoms ...
  715 atoms
  reading velocities ...
  715 velocities
  scanning bonds ...
  3 = max bonds/atom
  scanning angles ...
  6 = max angles/atom
  scanning dihedrals ...
  24 = max dihedrals/atom
  scanning impropers ...
  2 = max impropers/atom
  reading bonds ...
  753 bonds
  reading angles ...
  1307 angles
  reading dihedrals ...
  1943 dihedrals
  reading impropers ...
  199 impropers
  4 = max # of 1-2 neighbors
  10 = max # of 1-3 neighbors
  20 = max # of 1-4 neighbors
  22 = max # of special neighbors
  special bonds CPU = 0.000848055 secs
  read_data CPU = 0.0216031 secs
################################################################################

min_style cg
minimize 1e-05 1e-05 10000 100000
WARNING: Using 'neigh_modify every 1 delay 0 check yes' setting during minimization (../min.cpp:190)
PPPM initialization ...
WARNING: System is not charge neutral, net charge = -1.7e-05 (../kspace.cpp:313)
  using 12-bit tables for long-range coulomb (../kspace.cpp:332)
  G vector (1/distance) = 0.0965453
  grid = 20 20 20
  stencil order = 5
  estimated absolute RMS force accuracy = 0.0310013
  estimated relative force accuracy = 9.33595e-05
  using double precision KISS FFT
  3d grid and FFT values/proc = 2250 800
Neighbor list info ...
  update every 1 steps, delay 0 steps, check yes
  max neighbors/atom: 2000, page size: 100000
  master list distance cutoff = 14
  ghost atom cutoff = 14
  binsize = 7, bins = 33 33 33
  1 neighbor lists, perpetual/occasional/extra = 1 0 0
  (1) pair lj/cut/coul/long, perpetual
      attributes: half, newton on
      pair build: half/bin/newton
      stencil: half/bin/3d/newton
      bin: standard
Per MPI rank memory allocation (min/avg/max) = 18.87 | 19.2 | 19.67 Mbytes
Step Temp E_pair E_mol TotEng Press 
       0    1544.4634    395.91931    1251.1474    4934.1457    12.175204 
      33    1544.4634    389.27784    1210.9255    4887.2823    12.426401 
Loop time of 0.245109 on 16 procs for 33 steps with 715 atoms

95.1% CPU use with 16 MPI tasks x no OpenMP threads

Minimization stats:
  Stopping criterion = linesearch alpha is zero
  Energy initial, next-to-last, final = 
         1647.06670307      1600.20331073      1600.20331073
  Force two-norm initial, final = 65.0532 50.7658
  Force max component initial, final = 10.2409 5.38678
  Final line search alpha, max atom move = 2.57261e-12 1.38581e-11
  Iterations, force evaluations = 33 125

MPI task timing breakdown:
Section |  min time  |  avg time  |  max time  |%varavg| %total
---------------------------------------------------------------
Pair    | 2.3127e-05 | 0.026363   | 0.13424    |  24.0 | 10.76
Bond    | 5.0068e-05 | 0.0052246  | 0.019491   |   9.2 |  2.13
Kspace  | 0.085405   | 0.2077     | 0.24053    |  10.1 | 84.74
Neigh   | 0          | 0          | 0          |   0.0 |  0.00
Comm    | 0.00038576 | 0.0027545  | 0.0045483  |   2.9 |  1.12
Output  | 0          | 0          | 0          |   0.0 |  0.00
Modify  | 0          | 0          | 0          |   0.0 |  0.00
Other   |            | 0.003062   |            |       |  1.25

Nlocal:    44.6875 ave 160 max 0 min
Histogram: 8 0 2 1 1 1 1 0 0 2
Nghost:    190.562 ave 488 max 1 min
Histogram: 8 0 0 0 0 1 2 2 2 1
Neighs:    2835.06 ave 14465 max 0 min
Histogram: 9 0 3 1 1 0 1 0 0 1

Total # of neighbors = 45361
Ave neighs/atom = 63.442
Ave special neighs/atom = 10.5594
Neighbor list builds = 0
Dangerous builds = 0
timestep        1
fix             pysimm_md all nvt temp 300 300 100
run             5000
PPPM initialization ...
  using 12-bit tables for long-range coulomb (../kspace.cpp:332)
  G vector (1/distance) = 0.0965453
  grid = 20 20 20
  stencil order = 5
  estimated absolute RMS force accuracy = 0.0310013
  estimated relative force accuracy = 9.33595e-05
  using double precision KISS FFT
  3d grid and FFT values/proc = 2250 800
Per MPI rank memory allocation (min/avg/max) = 17.74 | 18.07 | 18.55 Mbytes
Step Temp E_pair E_mol TotEng Press 
      33    1544.4634    389.27784    1210.9255    4887.2823    12.426401 
    5033    298.66001    402.78048    1507.3564    2545.7745  -0.29154256 
Loop time of 4.45026 on 16 procs for 5000 steps with 715 atoms

Performance: 97.073 ns/day, 0.247 hours/ns, 1123.529 timesteps/s
95.2% CPU use with 16 MPI tasks x no OpenMP threads

MPI task timing breakdown:
Section |  min time  |  avg time  |  max time  |%varavg| %total
---------------------------------------------------------------
Pair    | 0.00053477 | 0.3734     | 1.6539     |  90.3 |  8.39
Bond    | 0.00097036 | 0.10171    | 0.37399    |  40.5 |  2.29
Kspace  | 2.1755     | 3.5027     | 3.9228     |  31.0 | 78.71
Neigh   | 0.092694   | 0.095044   | 0.09713    |   0.5 |  2.14
Comm    | 0.04363    | 0.16674    | 0.36463    |  25.9 |  3.75
Output  | 2.2888e-05 | 2.4408e-05 | 3.1948e-05 |   0.0 |  0.00
Modify  | 0.030666   | 0.19519    | 0.39816    |  35.0 |  4.39
Other   |            | 0.01544    |            |       |  0.35

Nlocal:    44.6875 ave 188 max 0 min
Histogram: 9 0 2 2 1 0 0 0 0 2
Nghost:    186 ave 446 max 1 min
Histogram: 8 0 0 0 0 0 1 2 3 2
Neighs:    3126.38 ave 19246 max 0 min
Histogram: 10 3 1 0 0 0 0 0 1 1

Total # of neighbors = 50022
Ave neighs/atom = 69.9608
Ave special neighs/atom = 10.5594
Neighbor list builds = 152
Dangerous builds = 0
unfix pysimm_md
write_dump all custom pysimm.dump.tmp id q x y z vx vy vz
quit


################################################################################
##################################    Init    ##################################
################################################################################
units           real
atom_style      full
pair_style      lj/cut/coul/long 12.0  12.0
kspace_style    pppm 1e-4
bond_style      harmonic
angle_style     harmonic
dihedral_style  fourier
improper_style  cvff
special_bonds   amber
pair_modify     mix arithmetic
read_data       temp.lmps
  orthogonal box = (-117.92 -117.92 -117.92) to (117.92 117.92 117.92)
  2 by 2 by 4 MPI processor grid
  reading atoms ...
  773 atoms
  reading velocities ...
  773 velocities
  scanning bonds ...
  3 = max bonds/atom
  scanning angles ...
  6 = max angles/atom
  scanning dihedrals ...
  24 = max dihedrals/atom
  scanning impropers ...
  2 = max impropers/atom
  reading bonds ...
  819 bonds
  reading angles ...
  1429 angles
  reading dihedrals ...
  2114 dihedrals
  reading impropers ...
  214 impropers
  4 = max # of 1-2 neighbors
  10 = max # of 1-3 neighbors
  20 = max # of 1-4 neighbors
  22 = max # of special neighbors
  special bonds CPU = 0.00165606 secs
  read_data CPU = 0.0252709 secs
################################################################################

min_style cg
minimize 1e-05 1e-05 10000 100000
WARNING: Using 'neigh_modify every 1 delay 0 check yes' setting during minimization (../min.cpp:190)
PPPM initialization ...
WARNING: System is not charge neutral, net charge = -2e-05 (../kspace.cpp:313)
  using 12-bit tables for long-range coulomb (../kspace.cpp:332)
  G vector (1/distance) = 0.0946825
  grid = 20 20 20
  stencil order = 5
  estimated absolute RMS force accuracy = 0.0309422
  estimated relative force accuracy = 9.31817e-05
  using double precision KISS FFT
  3d grid and FFT values/proc = 2250 800
Neighbor list info ...
  update every 1 steps, delay 0 steps, check yes
  max neighbors/atom: 2000, page size: 100000
  master list distance cutoff = 14
  ghost atom cutoff = 14
  binsize = 7, bins = 34 34 34
  1 neighbor lists, perpetual/occasional/extra = 1 0 0
  (1) pair lj/cut/coul/long, perpetual
      attributes: half, newton on
      pair build: half/bin/newton
      stencil: half/bin/3d/newton
      bin: standard
Per MPI rank memory allocation (min/avg/max) = 18.87 | 19.08 | 19.69 Mbytes
Step Temp E_pair E_mol TotEng Press 
       0    1185.9415    469.34635    1247.0449    4445.4624    9.6102527 
      24    1185.9415     467.2856     1207.489    4403.8457    10.252875 
Loop time of 0.408421 on 16 procs for 24 steps with 773 atoms

94.6% CPU use with 16 MPI tasks x no OpenMP threads

Minimization stats:
  Stopping criterion = linesearch alpha is zero
  Energy initial, next-to-last, final = 
         1716.39127881      1674.77454935      1674.77454935
  Force two-norm initial, final = 75.862 61.9029
  Force max component initial, final = 13.9473 7.55062
  Final line search alpha, max atom move = 2.06308e-12 1.55775e-11
  Iterations, force evaluations = 24 107

MPI task timing breakdown:
Section |  min time  |  avg time  |  max time  |%varavg| %total
---------------------------------------------------------------
Pair    | 2.3603e-05 | 0.026361   | 0.24606    |  36.8 |  6.45
Bond    | 5.6744e-05 | 0.0050535  | 0.044177   |  15.2 |  1.24
Kspace  | 0.11119    | 0.3707     | 0.40344    |  11.6 | 90.76
Neigh   | 0          | 0          | 0          |   0.0 |  0.00
Comm    | 6.1989e-05 | 0.0021877  | 0.0044417  |   2.8 |  0.54
Output  | 0          | 0          | 0          |   0.0 |  0.00
Modify  | 0          | 0          | 0          |   0.0 |  0.00
Other   |            | 0.004121   |            |       |  1.01

Nlocal:    48.3125 ave 421 max 0 min
Histogram: 11 3 0 1 0 0 0 0 0 1
Nghost:    134.438 ave 520 max 0 min
Histogram: 8 0 2 1 2 1 0 1 0 1
Neighs:    3075.12 ave 29346 max 0 min
Histogram: 11 3 1 0 0 0 0 0 0 1

Total # of neighbors = 49202
Ave neighs/atom = 63.6507
Ave special neighs/atom = 10.6468
Neighbor list builds = 0
Dangerous builds = 0
timestep        1
fix             pysimm_md all nvt temp 300 300 100
run             5000
PPPM initialization ...
  using 12-bit tables for long-range coulomb (../kspace.cpp:332)
  G vector (1/distance) = 0.0946825
  grid = 20 20 20
  stencil order = 5
  estimated absolute RMS force accuracy = 0.0309422
  estimated relative force accuracy = 9.31817e-05
  using double precision KISS FFT
  3d grid and FFT values/proc = 2250 800
Per MPI rank memory allocation (min/avg/max) = 17.75 | 17.96 | 18.56 Mbytes
Step Temp E_pair E_mol TotEng Press 
      24    1185.9415     467.2856     1207.489    4403.8457    10.252875 
    5024    302.60383    492.98332    1487.2423    2676.5731    1.0735169 
Loop time of 6.50553 on 16 procs for 5000 steps with 773 atoms

Performance: 66.405 ns/day, 0.361 hours/ns, 768.577 timesteps/s
94.5% CPU use with 16 MPI tasks x no OpenMP threads

MPI task timing breakdown:
Section |  min time  |  avg time  |  max time  |%varavg| %total
---------------------------------------------------------------
Pair    | 0.00051045 | 0.36804    | 2.9021     | 131.7 |  5.66
Bond    | 0.00088358 | 0.10259    | 0.79625    |  66.4 |  1.58
Kspace  | 2.4376     | 5.0573     | 5.475      |  36.9 | 77.74
Neigh   | 0.18531    | 0.18776    | 0.19207    |   0.5 |  2.89
Comm    | 0.029548   | 0.28099    | 0.761      |  41.6 |  4.32
Output  | 2.2888e-05 | 2.4289e-05 | 3.1948e-05 |   0.0 |  0.00
Modify  | 0.054073   | 0.48621    | 0.78548    |  38.7 |  7.47
Other   |            | 0.02257    |            |       |  0.35

Nlocal:    48.3125 ave 340 max 0 min
Histogram: 12 1 0 1 0 0 1 0 0 1
Nghost:    106.625 ave 264 max 0 min
Histogram: 6 1 2 0 0 1 1 1 1 3
Neighs:    2842.62 ave 18314 max 0 min
Histogram: 12 1 0 1 0 0 0 0 0 2

Total # of neighbors = 45482
Ave neighs/atom = 58.8383
Ave special neighs/atom = 10.6468
Neighbor list builds = 215
Dangerous builds = 0
unfix pysimm_md
write_dump all custom pysimm.dump.tmp id q x y z vx vy vz
quit


################################################################################
##################################    Init    ##################################
################################################################################
units           real
atom_style      full
pair_style      lj/cut/coul/long 12.0  12.0
kspace_style    pppm 1e-4
bond_style      harmonic
angle_style     harmonic
dihedral_style  fourier
improper_style  cvff
special_bonds   amber
pair_modify     mix arithmetic
read_data       temp.lmps
  orthogonal box = (-118.502 -118.502 -118.502) to (118.502 118.502 118.502)
  2 by 2 by 4 MPI processor grid
  reading atoms ...
  834 atoms
  reading velocities ...
  834 velocities
  scanning bonds ...
  3 = max bonds/atom
  scanning angles ...
  6 = max angles/atom
  scanning dihedrals ...
  24 = max dihedrals/atom
  scanning impropers ...
  2 = max impropers/atom
  reading bonds ...
  879 bonds
  reading angles ...
  1528 angles
  reading dihedrals ...
  2272 dihedrals
  reading impropers ...
  232 impropers
  4 = max # of 1-2 neighbors
  10 = max # of 1-3 neighbors
  20 = max # of 1-4 neighbors
  22 = max # of special neighbors
  special bonds CPU = 0.00107622 secs
  read_data CPU = 0.0238972 secs
################################################################################

min_style cg
minimize 1e-05 1e-05 10000 100000
WARNING: Using 'neigh_modify every 1 delay 0 check yes' setting during minimization (../min.cpp:190)
PPPM initialization ...
WARNING: System is not charge neutral, net charge = -2e-05 (../kspace.cpp:313)
  using 12-bit tables for long-range coulomb (../kspace.cpp:332)
  G vector (1/distance) = 0.09434
  grid = 20 20 20
  stencil order = 5
  estimated absolute RMS force accuracy = 0.0337582
  estimated relative force accuracy = 0.000101662
  using double precision KISS FFT
  3d grid and FFT values/proc = 2250 800
Neighbor list info ...
  update every 1 steps, delay 0 steps, check yes
  max neighbors/atom: 2000, page size: 100000
  master list distance cutoff = 14
  ghost atom cutoff = 14
  binsize = 7, bins = 34 34 34
  1 neighbor lists, perpetual/occasional/extra = 1 0 0
  (1) pair lj/cut/coul/long, perpetual
      attributes: half, newton on
      pair build: half/bin/newton
      stencil: half/bin/3d/newton
      bin: standard
Per MPI rank memory allocation (min/avg/max) = 18.87 | 19.13 | 19.69 Mbytes
Step Temp E_pair E_mol TotEng Press 
       0    1753.7612    464.52894    1418.5865    6237.7303    14.489811 
       7    1753.7612    460.46951    1405.3308    6220.4151     14.57325 
Loop time of 0.280951 on 16 procs for 7 steps with 834 atoms

94.2% CPU use with 16 MPI tasks x no OpenMP threads

Minimization stats:
  Stopping criterion = linesearch alpha is zero
  Energy initial, next-to-last, final = 
         1883.11540041      1865.80028131      1865.80028131
  Force two-norm initial, final = 88.141 60.6316
  Force max component initial, final = 16.4132 7.25728
  Final line search alpha, max atom move = 2.18554e-12 1.58611e-11
  Iterations, force evaluations = 7 75

MPI task timing breakdown:
Section |  min time  |  avg time  |  max time  |%varavg| %total
---------------------------------------------------------------
Pair    | 1.7166e-05 | 0.027473   | 0.18875    |  29.6 |  9.78
Bond    | 3.2425e-05 | 0.0038798  | 0.022862   |  10.0 |  1.38
Kspace  | 0.065035   | 0.24578    | 0.27783    |  11.2 | 87.48
Neigh   | 0          | 0          | 0          |   0.0 |  0.00
Comm    | 0.00030661 | 0.0016704  | 0.0030751  |   2.7 |  0.59
Output  | 0          | 0          | 0          |   0.0 |  0.00
Modify  | 0          | 0          | 0          |   0.0 |  0.00
Other   |            | 0.00215    |            |       |  0.77

Nlocal:    52.125 ave 298 max 0 min
Histogram: 11 1 1 0 1 1 0 0 0 1
Nghost:    227.188 ave 635 max 0 min
Histogram: 8 0 0 0 0 4 0 1 1 2
Neighs:    4600 ave 31419 max 0 min
Histogram: 11 1 1 1 1 0 0 0 0 1

Total # of neighbors = 73600
Ave neighs/atom = 88.2494
Ave special neighs/atom = 10.5827
Neighbor list builds = 0
Dangerous builds = 0
timestep        1
fix             pysimm_md all nvt temp 300 300 100
run             5000
PPPM initialization ...
  using 12-bit tables for long-range coulomb (../kspace.cpp:332)
  G vector (1/distance) = 0.09434
  grid = 20 20 20
  stencil order = 5
  estimated absolute RMS force accuracy = 0.0337582
  estimated relative force accuracy = 0.000101662
  using double precision KISS FFT
  3d grid and FFT values/proc = 2250 800
Per MPI rank memory allocation (min/avg/max) = 17.75 | 18 | 18.57 Mbytes
Step Temp E_pair E_mol TotEng Press 
       7    1753.7612    460.46951    1405.3308    6220.4151     14.57325 
    5007    304.98709    431.68198    1809.1145    2998.0839   0.98287169 
Loop time of 8.59746 on 16 procs for 5000 steps with 834 atoms

Performance: 50.247 ns/day, 0.478 hours/ns, 581.567 timesteps/s
93.8% CPU use with 16 MPI tasks x no OpenMP threads

MPI task timing breakdown:
Section |  min time  |  avg time  |  max time  |%varavg| %total
---------------------------------------------------------------
Pair    | 0.00069594 | 0.59695    | 5.1931     | 162.3 |  6.94
Bond    | 0.00090718 | 0.11073    | 0.72953    |  55.6 |  1.29
Kspace  | 2.2621     | 6.9683     | 7.6069     |  48.9 | 81.05
Neigh   | 0.24351    | 0.24579    | 0.24839    |   0.3 |  2.86
Comm    | 0.059178   | 0.34242    | 0.67836    |  40.1 |  3.98
Output  | 2.408e-05  | 2.5302e-05 | 3.314e-05  |   0.0 |  0.00
Modify  | 0.033713   | 0.31331    | 0.65564    |  47.7 |  3.64
Other   |            | 0.01993    |            |       |  0.23

Nlocal:    52.125 ave 368 max 0 min
Histogram: 12 0 1 1 1 0 0 0 0 1
Nghost:    223.062 ave 553 max 0 min
Histogram: 8 0 0 0 0 1 1 3 1 2
Neighs:    5307.44 ave 56644 max 0 min
Histogram: 12 2 1 0 0 0 0 0 0 1

Total # of neighbors = 84919
Ave neighs/atom = 101.821
Ave special neighs/atom = 10.5827
Neighbor list builds = 181
Dangerous builds = 0
unfix pysimm_md
write_dump all custom pysimm.dump.tmp id q x y z vx vy vz
quit


################################################################################
##################################    Init    ##################################
################################################################################
units           real
atom_style      full
pair_style      lj/cut/coul/long 12.0  12.0
kspace_style    pppm 1e-4
bond_style      harmonic
angle_style     harmonic
dihedral_style  fourier
improper_style  cvff
special_bonds   amber
pair_modify     mix arithmetic
read_data       temp.lmps
  orthogonal box = (-121.259 -121.259 -121.259) to (121.259 121.259 121.259)
  2 by 2 by 4 MPI processor grid
  reading atoms ...
  892 atoms
  reading velocities ...
  892 velocities
  scanning bonds ...
  3 = max bonds/atom
  scanning angles ...
  6 = max angles/atom
  scanning dihedrals ...
  24 = max dihedrals/atom
  scanning impropers ...
  2 = max impropers/atom
  reading bonds ...
  945 bonds
  reading angles ...
  1650 angles
  reading dihedrals ...
  2443 dihedrals
  reading impropers ...
  247 impropers
  4 = max # of 1-2 neighbors
  10 = max # of 1-3 neighbors
  20 = max # of 1-4 neighbors
  22 = max # of special neighbors
  special bonds CPU = 0.000966072 secs
  read_data CPU = 0.0232229 secs
################################################################################

min_style cg
minimize 1e-05 1e-05 10000 100000
WARNING: Using 'neigh_modify every 1 delay 0 check yes' setting during minimization (../min.cpp:190)
PPPM initialization ...
WARNING: System is not charge neutral, net charge = -2.3e-05 (../kspace.cpp:313)
  using 12-bit tables for long-range coulomb (../kspace.cpp:332)
  G vector (1/distance) = 0.0927531
  grid = 20 20 20
  stencil order = 5
  estimated absolute RMS force accuracy = 0.0336542
  estimated relative force accuracy = 0.000101349
  using double precision KISS FFT
  3d grid and FFT values/proc = 2250 800
Neighbor list info ...
  update every 1 steps, delay 0 steps, check yes
  max neighbors/atom: 2000, page size: 100000
  master list distance cutoff = 14
  ghost atom cutoff = 14
  binsize = 7, bins = 35 35 35
  1 neighbor lists, perpetual/occasional/extra = 1 0 0
  (1) pair lj/cut/coul/long, perpetual
      attributes: half, newton on
      pair build: half/bin/newton
      stencil: half/bin/3d/newton
      bin: standard
Per MPI rank memory allocation (min/avg/max) = 18.87 | 19.19 | 19.68 Mbytes
Step Temp E_pair E_mol TotEng Press 
       0    1583.1865    566.59831    1607.7357    6379.1218    13.904383 
       7    1583.1865     566.7311    1591.8527    6363.3716    14.183295 
Loop time of 0.192306 on 16 procs for 7 steps with 892 atoms

91.9% CPU use with 16 MPI tasks x no OpenMP threads

Minimization stats:
  Stopping criterion = linesearch alpha is zero
  Energy initial, next-to-last, final = 
         2174.33398675      2158.58381732      2158.58381732
  Force two-norm initial, final = 89.4475 70.8749
  Force max component initial, final = 10.6893 10.8944
  Final line search alpha, max atom move = 1.4914e-12 1.6248e-11
  Iterations, force evaluations = 7 75

MPI task timing breakdown:
Section |  min time  |  avg time  |  max time  |%varavg| %total
---------------------------------------------------------------
Pair    | 1.3828e-05 | 0.022607   | 0.11123    |  23.6 | 11.76
Bond    | 1.7643e-05 | 0.003738   | 0.017939   |   9.0 |  1.94
Kspace  | 0.058984   | 0.16242    | 0.18957    |  10.2 | 84.46
Neigh   | 0          | 0          | 0          |   0.0 |  0.00
Comm    | 0.00013995 | 0.0015892  | 0.0032151  |   2.9 |  0.83
Output  | 0          | 0          | 0          |   0.0 |  0.00
Modify  | 0          | 0          | 0          |   0.0 |  0.00
Other   |            | 0.001955   |            |       |  1.02

Nlocal:    55.75 ave 232 max 0 min
Histogram: 10 0 1 0 1 1 1 1 0 1
Nghost:    195.562 ave 457 max 0 min
Histogram: 8 0 0 0 0 0 1 1 3 3
Neighs:    4109.5 ave 17924 max 0 min
Histogram: 10 1 1 0 1 0 0 1 1 1

Total # of neighbors = 65752
Ave neighs/atom = 73.713
Ave special neighs/atom = 10.657
Neighbor list builds = 0
Dangerous builds = 0
timestep        1
fix             pysimm_md all nvt temp 300 300 100
run             5000
PPPM initialization ...
  using 12-bit tables for long-range coulomb (../kspace.cpp:332)
  G vector (1/distance) = 0.0927531
  grid = 20 20 20
  stencil order = 5
  estimated absolute RMS force accuracy = 0.0336542
  estimated relative force accuracy = 0.000101349
  using double precision KISS FFT
  3d grid and FFT values/proc = 2250 800
Per MPI rank memory allocation (min/avg/max) = 17.75 | 18.07 | 18.55 Mbytes
Step Temp E_pair E_mol TotEng Press 
       7    1583.1865     566.7311    1591.8527    6363.3716    14.183295 
    5007    305.24557    614.92728    1803.7758    3229.4053     1.336314 
Loop time of 5.03038 on 16 procs for 5000 steps with 892 atoms

Performance: 85.878 ns/day, 0.279 hours/ns, 993.962 timesteps/s
93.1% CPU use with 16 MPI tasks x no OpenMP threads

MPI task timing breakdown:
Section |  min time  |  avg time  |  max time  |%varavg| %total
---------------------------------------------------------------
Pair    | 0.00057793 | 0.489      | 1.9477     | 105.5 |  9.72
Bond    | 0.00085545 | 0.1207     | 0.55348    |  51.6 |  2.40
Kspace  | 2.2439     | 3.7811     | 4.3188     |  40.1 | 75.17
Neigh   | 0.11591    | 0.11851    | 0.12102    |   0.4 |  2.36
Comm    | 0.015794   | 0.22948    | 0.57949    |  39.9 |  4.56
Output  | 2.1935e-05 | 2.3156e-05 | 3.1948e-05 |   0.0 |  0.00
Modify  | 0.027545   | 0.27332    | 0.56473    |  44.7 |  5.43
Other   |            | 0.0182     |            |       |  0.36

Nlocal:    55.75 ave 271 max 0 min
Histogram: 10 1 1 0 0 2 0 1 0 1
Nghost:    166.438 ave 445 max 0 min
Histogram: 8 0 0 0 0 1 1 5 0 1
Neighs:    3634.88 ave 20143 max 0 min
Histogram: 11 0 1 1 0 1 0 1 0 1

Total # of neighbors = 58158
Ave neighs/atom = 65.1996
Ave special neighs/atom = 10.657
Neighbor list builds = 175
Dangerous builds = 0
unfix pysimm_md
write_dump all custom pysimm.dump.tmp id q x y z vx vy vz
quit


################################################################################
##################################    Init    ##################################
################################################################################
units           real
atom_style      full
pair_style      lj/cut/coul/long 12.0  12.0
kspace_style    pppm 1e-4
bond_style      harmonic
angle_style     harmonic
dihedral_style  fourier
improper_style  cvff
special_bonds   amber
pair_modify     mix arithmetic
read_data       temp.lmps
  orthogonal box = (-123.896 -123.896 -123.896) to (123.896 123.896 123.896)
  2 by 2 by 4 MPI processor grid
  reading atoms ...
  957 atoms
  reading velocities ...
  957 velocities
  scanning bonds ...
  3 = max bonds/atom
  scanning angles ...
  6 = max angles/atom
  scanning dihedrals ...
  24 = max dihedrals/atom
  scanning impropers ...
  2 = max impropers/atom
  reading bonds ...
  997 bonds
  reading angles ...
  1716 angles
  reading dihedrals ...
  2579 dihedrals
  reading impropers ...
  269 impropers
  4 = max # of 1-2 neighbors
  10 = max # of 1-3 neighbors
  20 = max # of 1-4 neighbors
  22 = max # of special neighbors
  special bonds CPU = 0.00170898 secs
  read_data CPU = 0.026969 secs
################################################################################

min_style cg
minimize 1e-05 1e-05 10000 100000
WARNING: Using 'neigh_modify every 1 delay 0 check yes' setting during minimization (../min.cpp:190)
PPPM initialization ...
WARNING: System is not charge neutral, net charge = -1.9e-05 (../kspace.cpp:313)
  using 12-bit tables for long-range coulomb (../kspace.cpp:332)
  G vector (1/distance) = 0.104144
  grid = 24 24 24
  stencil order = 5
  estimated absolute RMS force accuracy = 0.0281306
  estimated relative force accuracy = 8.47144e-05
  using double precision KISS FFT
  3d grid and FFT values/proc = 3179 1152
Neighbor list info ...
  update every 1 steps, delay 0 steps, check yes
  max neighbors/atom: 2000, page size: 100000
  master list distance cutoff = 14
  ghost atom cutoff = 14
  binsize = 7, bins = 36 36 36
  1 neighbor lists, perpetual/occasional/extra = 1 0 0
  (1) pair lj/cut/coul/long, perpetual
      attributes: half, newton on
      pair build: half/bin/newton
      stencil: half/bin/3d/newton
      bin: standard
Per MPI rank memory allocation (min/avg/max) = 19.07 | 19.26 | 19.78 Mbytes
Step Temp E_pair E_mol TotEng Press 
       0    1267.5776    458.57246    1769.5697    5840.3004    10.959489 
      34    1267.5776    445.82256    1725.7531    5783.7339    10.345979 
Loop time of 0.398918 on 16 procs for 34 steps with 957 atoms

95.0% CPU use with 16 MPI tasks x no OpenMP threads

Minimization stats:
  Stopping criterion = linesearch alpha is zero
  Energy initial, next-to-last, final = 
         2228.14220762      2171.57564864      2171.57564864
  Force two-norm initial, final = 74.4904 52.1997
  Force max component initial, final = 8.99373 7.1358
  Final line search alpha, max atom move = 2.66881e-12 1.90441e-11
  Iterations, force evaluations = 34 127

MPI task timing breakdown:
Section |  min time  |  avg time  |  max time  |%varavg| %total
---------------------------------------------------------------
Pair    | 3.6716e-05 | 0.034346   | 0.20919    |  31.5 |  8.61
Bond    | 5.8174e-05 | 0.0067697  | 0.041071   |  13.6 |  1.70
Kspace  | 0.14119    | 0.35115    | 0.39324    |  11.8 | 88.03
Neigh   | 0          | 0          | 0          |   0.0 |  0.00
Comm    | 0.0008328  | 0.0027457  | 0.0047278  |   2.6 |  0.69
Output  | 0          | 0          | 0          |   0.0 |  0.00
Modify  | 0          | 0          | 0          |   0.0 |  0.00
Other   |            | 0.003906   |            |       |  0.98

Nlocal:    59.8125 ave 346 max 1 min
Histogram: 11 1 0 1 2 0 0 0 0 1
Nghost:    197.188 ave 535 max 2 min
Histogram: 8 0 0 0 1 1 1 4 0 1
Neighs:    3689.75 ave 22208 max 0 min
Histogram: 11 0 2 0 0 2 0 0 0 1

Total # of neighbors = 59036
Ave neighs/atom = 61.6886
Ave special neighs/atom = 10.4242
Neighbor list builds = 0
Dangerous builds = 0
timestep        1
fix             pysimm_md all nvt temp 300 300 100
run             5000
PPPM initialization ...
  using 12-bit tables for long-range coulomb (../kspace.cpp:332)
  G vector (1/distance) = 0.104144
  grid = 24 24 24
  stencil order = 5
  estimated absolute RMS force accuracy = 0.0281306
  estimated relative force accuracy = 8.47144e-05
  using double precision KISS FFT
  3d grid and FFT values/proc = 3179 1152
Per MPI rank memory allocation (min/avg/max) = 17.95 | 18.13 | 18.66 Mbytes
Step Temp E_pair E_mol TotEng Press 
      34    1267.5776    445.82256    1725.7531    5783.7339    10.345979 
    5034    311.33381    474.39669     2190.861    3552.4515   0.19634781 
Loop time of 6.77842 on 16 procs for 5000 steps with 957 atoms

Performance: 63.732 ns/day, 0.377 hours/ns, 737.635 timesteps/s
95.1% CPU use with 16 MPI tasks x no OpenMP threads

MPI task timing breakdown:
Section |  min time  |  avg time  |  max time  |%varavg| %total
---------------------------------------------------------------
Pair    | 0.00060868 | 0.45038    | 2.7321     | 115.6 |  6.64
Bond    | 0.0008688  | 0.12343    | 0.75426    |  59.3 |  1.82
Kspace  | 2.9372     | 5.3097     | 5.7997     |  35.4 | 78.33
Neigh   | 0.17085    | 0.17453    | 0.17769    |   0.5 |  2.57
Comm    | 0.07635    | 0.35584    | 0.75492    |  43.3 |  5.25
Output  | 2.408e-05  | 2.5406e-05 | 3.2902e-05 |   0.0 |  0.00
Modify  | 0.03069    | 0.34408    | 0.69083    |  50.8 |  5.08
Other   |            | 0.02041    |            |       |  0.30

Nlocal:    59.8125 ave 342 max 0 min
Histogram: 10 1 1 2 0 1 0 0 0 1
Nghost:    181.438 ave 428 max 0 min
Histogram: 8 0 0 0 0 0 1 1 4 2
Neighs:    3447.56 ave 21948 max 0 min
Histogram: 11 1 1 0 1 1 0 0 0 1

Total # of neighbors = 55161
Ave neighs/atom = 57.6395
Ave special neighs/atom = 10.4242
Neighbor list builds = 210
Dangerous builds = 0
unfix pysimm_md
write_dump all custom pysimm.dump.tmp id q x y z vx vy vz
quit


################################################################################
##################################    Init    ##################################
################################################################################
units           real
atom_style      full
pair_style      lj/cut/coul/long 12.0  12.0
kspace_style    pppm 1e-4
bond_style      harmonic
angle_style     harmonic
dihedral_style  fourier
improper_style  cvff
special_bonds   amber
pair_modify     mix arithmetic
read_data       temp.lmps
  orthogonal box = (-126.425 -126.425 -126.425) to (126.425 126.425 126.425)
  2 by 2 by 4 MPI processor grid
  reading atoms ...
  1013 atoms
  reading velocities ...
  1013 velocities
  scanning bonds ...
  3 = max bonds/atom
  scanning angles ...
  6 = max angles/atom
  scanning dihedrals ...
  24 = max dihedrals/atom
  scanning impropers ...
  2 = max impropers/atom
  reading bonds ...
  1067 bonds
  reading angles ...
  1854 angles
  reading dihedrals ...
  2760 dihedrals
  reading impropers ...
  282 impropers
  4 = max # of 1-2 neighbors
  10 = max # of 1-3 neighbors
  20 = max # of 1-4 neighbors
  22 = max # of special neighbors
  special bonds CPU = 0.0012548 secs
  read_data CPU = 0.0274749 secs
################################################################################

min_style cg
minimize 1e-05 1e-05 10000 100000
WARNING: Using 'neigh_modify every 1 delay 0 check yes' setting during minimization (../min.cpp:190)
PPPM initialization ...
WARNING: System is not charge neutral, net charge = -2.4e-05 (../kspace.cpp:313)
  using 12-bit tables for long-range coulomb (../kspace.cpp:332)
  G vector (1/distance) = 0.102677
  grid = 24 24 24
  stencil order = 5
  estimated absolute RMS force accuracy = 0.0268393
  estimated relative force accuracy = 8.08258e-05
  using double precision KISS FFT
  3d grid and FFT values/proc = 3179 1152
Neighbor list info ...
  update every 1 steps, delay 0 steps, check yes
  max neighbors/atom: 2000, page size: 100000
  master list distance cutoff = 14
  ghost atom cutoff = 14
  binsize = 7, bins = 37 37 37
  1 neighbor lists, perpetual/occasional/extra = 1 0 0
  (1) pair lj/cut/coul/long, perpetual
      attributes: half, newton on
      pair build: half/bin/newton
      stencil: half/bin/3d/newton
      bin: standard
Per MPI rank memory allocation (min/avg/max) = 18.97 | 19.24 | 19.79 Mbytes
Step Temp E_pair E_mol TotEng Press 
       0    1122.5439    588.00438     1674.334    5648.5815    10.457643 
      86    1122.5439    551.89899    1584.4529    5522.5951    9.2797976 
Loop time of 1.00301 on 16 procs for 86 steps with 1013 atoms

94.5% CPU use with 16 MPI tasks x no OpenMP threads

Minimization stats:
  Stopping criterion = linesearch alpha is zero
  Energy initial, next-to-last, final = 
         2262.33834205      2136.35187431      2136.35187431
  Force two-norm initial, final = 73.406 32.3476
  Force max component initial, final = 8.45242 3.91122
  Final line search alpha, max atom move = 6.10999e-12 2.38975e-11
  Iterations, force evaluations = 86 244

MPI task timing breakdown:
Section |  min time  |  avg time  |  max time  |%varavg| %total
---------------------------------------------------------------
Pair    | 5.9605e-05 | 0.065745   | 0.58007    |  57.5 |  6.55
Bond    | 9.4414e-05 | 0.012632   | 0.10551    |  24.0 |  1.26
Kspace  | 0.29359    | 0.90192    | 0.98183    |  18.4 | 89.92
Neigh   | 0.0082603  | 0.008396   | 0.008512   |   0.1 |  0.84
Comm    | 0.0020225  | 0.0050338  | 0.0087368  |   3.3 |  0.50
Output  | 0          | 0          | 0          |   0.0 |  0.00
Modify  | 0          | 0          | 0          |   0.0 |  0.00
Other   |            | 0.009277   |            |       |  0.92

Nlocal:    63.3125 ave 508 max 0 min
Histogram: 12 0 2 0 1 0 0 0 0 1
Nghost:    135.625 ave 480 max 3 min
Histogram: 8 0 2 1 2 0 0 1 1 1
Neighs:    4072 ave 37017 max 0 min
Histogram: 12 1 1 1 0 0 0 0 0 1

Total # of neighbors = 65152
Ave neighs/atom = 64.3159
Ave special neighs/atom = 10.5785
Neighbor list builds = 3
Dangerous builds = 0
timestep        1
fix             pysimm_md all nvt temp 300 300 100
run             5000
PPPM initialization ...
  using 12-bit tables for long-range coulomb (../kspace.cpp:332)
  G vector (1/distance) = 0.102677
  grid = 24 24 24
  stencil order = 5
  estimated absolute RMS force accuracy = 0.0268393
  estimated relative force accuracy = 8.08258e-05
  using double precision KISS FFT
  3d grid and FFT values/proc = 3179 1152
Per MPI rank memory allocation (min/avg/max) = 17.85 | 18.12 | 18.66 Mbytes
Step Temp E_pair E_mol TotEng Press 
      86    1122.5439    551.89899    1584.4529    5522.5951    9.2797976 
    5086    317.53646    609.04466    2163.6881    3730.6068     1.687322 
Loop time of 7.72035 on 16 procs for 5000 steps with 1013 atoms

Performance: 55.956 ns/day, 0.429 hours/ns, 647.639 timesteps/s
94.8% CPU use with 16 MPI tasks x no OpenMP threads

MPI task timing breakdown:
Section |  min time  |  avg time  |  max time  |%varavg| %total
---------------------------------------------------------------
Pair    | 0.0006125  | 0.48298    | 3.2188     | 143.1 |  6.26
Bond    | 0.00085568 | 0.12666    | 0.86588    |  68.9 |  1.64
Kspace  | 3.2336     | 6.0723     | 6.5926     |  41.8 | 78.65
Neigh   | 0.23747    | 0.24154    | 0.24445    |   0.4 |  3.13
Comm    | 0.059413   | 0.43661    | 0.85348    |  41.8 |  5.66
Output  | 2.408e-05  | 2.5705e-05 | 3.2902e-05 |   0.0 |  0.00
Modify  | 0.030038   | 0.33902    | 0.81735    |  52.2 |  4.39
Other   |            | 0.02117    |            |       |  0.27

Nlocal:    63.3125 ave 334 max 0 min
Histogram: 12 0 0 1 0 0 0 1 1 1
Nghost:    108 ave 382 max 1 min
Histogram: 9 2 0 0 1 0 0 1 0 3
Neighs:    3797.56 ave 31199 max 0 min
Histogram: 12 1 0 1 1 0 0 0 0 1

Total # of neighbors = 60761
Ave neighs/atom = 59.9812
Ave special neighs/atom = 10.5785
Neighbor list builds = 232
Dangerous builds = 0
unfix pysimm_md
write_dump all custom pysimm.dump.tmp id q x y z vx vy vz
quit


################################################################################
##################################    Init    ##################################
################################################################################
units           real
atom_style      full
pair_style      lj/cut/coul/long 12.0  12.0
kspace_style    pppm 1e-4
bond_style      harmonic
angle_style     harmonic
dihedral_style  fourier
improper_style  cvff
special_bonds   amber
pair_modify     mix arithmetic
read_data       temp.lmps
  orthogonal box = (-131.43 -131.43 -131.43) to (131.43 131.43 131.43)
  2 by 2 by 4 MPI processor grid
  reading atoms ...
  1074 atoms
  reading velocities ...
  1074 velocities
  scanning bonds ...
  3 = max bonds/atom
  scanning angles ...
  6 = max angles/atom
  scanning dihedrals ...
  24 = max dihedrals/atom
  scanning impropers ...
  2 = max impropers/atom
  reading bonds ...
  1127 bonds
  reading angles ...
  1951 angles
  reading dihedrals ...
  2914 dihedrals
  reading impropers ...
  300 impropers
  4 = max # of 1-2 neighbors
  10 = max # of 1-3 neighbors
  20 = max # of 1-4 neighbors
  22 = max # of special neighbors
  special bonds CPU = 0.000953913 secs
  read_data CPU = 0.0272028 secs
################################################################################

min_style cg
minimize 1e-05 1e-05 10000 100000
WARNING: Using 'neigh_modify every 1 delay 0 check yes' setting during minimization (../min.cpp:190)
PPPM initialization ...
WARNING: System is not charge neutral, net charge = -2.4e-05 (../kspace.cpp:313)
  using 12-bit tables for long-range coulomb (../kspace.cpp:332)
  G vector (1/distance) = 0.0998851
  grid = 24 24 24
  stencil order = 5
  estimated absolute RMS force accuracy = 0.0292052
  estimated relative force accuracy = 8.79505e-05
  using double precision KISS FFT
  3d grid and FFT values/proc = 3179 1152
Neighbor list info ...
  update every 1 steps, delay 0 steps, check yes
  max neighbors/atom: 2000, page size: 100000
  master list distance cutoff = 14
  ghost atom cutoff = 14
  binsize = 7, bins = 38 38 38
  1 neighbor lists, perpetual/occasional/extra = 1 0 0
  (1) pair lj/cut/coul/long, perpetual
      attributes: half, newton on
      pair build: half/bin/newton
      stencil: half/bin/3d/newton
      bin: standard
Per MPI rank memory allocation (min/avg/max) = 18.95 | 19.3 | 19.8 Mbytes
Step Temp E_pair E_mol TotEng Press 
       0    1064.3885    600.82313    1826.3827    5831.5556    8.8860912 
      43    1064.3885     580.6972    1758.7778    5743.8248    8.2358795 
Loop time of 0.345143 on 16 procs for 43 steps with 1074 atoms

95.3% CPU use with 16 MPI tasks x no OpenMP threads

Minimization stats:
  Stopping criterion = linesearch alpha is zero
  Energy initial, next-to-last, final = 
         2427.20581916       2339.4750193       2339.4750193
  Force two-norm initial, final = 75.376 58.9228
  Force max component initial, final = 8.65516 7.05002
  Final line search alpha, max atom move = 2.03369e-12 1.43376e-11
  Iterations, force evaluations = 43 145

MPI task timing breakdown:
Section |  min time  |  avg time  |  max time  |%varavg| %total
---------------------------------------------------------------
Pair    | 3.7193e-05 | 0.04475    | 0.15497    |  29.5 | 12.97
Bond    | 6.628e-05  | 0.00929    | 0.033073   |  12.6 |  2.69
Kspace  | 0.14699    | 0.28195    | 0.33762    |  14.1 | 81.69
Neigh   | 0.0010719  | 0.0011292  | 0.001158   |   0.1 |  0.33
Comm    | 0.00038838 | 0.0037131  | 0.0061753  |   3.5 |  1.08
Output  | 0          | 0          | 0          |   0.0 |  0.00
Modify  | 0          | 0          | 0          |   0.0 |  0.00
Other   |            | 0.004309   |            |       |  1.25

Nlocal:    67.125 ave 234 max 0 min
Histogram: 9 0 1 0 2 0 0 2 1 1
Nghost:    217.688 ave 625 max 1 min
Histogram: 8 0 0 0 1 2 1 2 1 1
Neighs:    3775.75 ave 13981 max 0 min
Histogram: 10 0 1 1 0 0 0 1 0 3

Total # of neighbors = 60412
Ave neighs/atom = 56.2495
Ave special neighs/atom = 10.5214
Neighbor list builds = 1
Dangerous builds = 0
timestep        1
fix             pysimm_md all nvt temp 300 300 100
run             5000
PPPM initialization ...
  using 12-bit tables for long-range coulomb (../kspace.cpp:332)
  G vector (1/distance) = 0.0998851
  grid = 24 24 24
  stencil order = 5
  estimated absolute RMS force accuracy = 0.0292052
  estimated relative force accuracy = 8.79505e-05
  using double precision KISS FFT
  3d grid and FFT values/proc = 3179 1152
Per MPI rank memory allocation (min/avg/max) = 17.83 | 18.18 | 18.68 Mbytes
Step Temp E_pair E_mol TotEng Press 
      43    1064.3885     580.6972    1758.7778    5743.8248    8.2358795 
    5043    305.62607    573.20927    2302.1847    3852.9112   0.39811015 
Loop time of 5.89086 on 16 procs for 5000 steps with 1074 atoms

Performance: 73.334 ns/day, 0.327 hours/ns, 848.772 timesteps/s
95.4% CPU use with 16 MPI tasks x no OpenMP threads

MPI task timing breakdown:
Section |  min time  |  avg time  |  max time  |%varavg| %total
---------------------------------------------------------------
Pair    | 0.00063562 | 0.47345    | 2.1783     | 104.1 |  8.04
Bond    | 0.00096154 | 0.14438    | 0.58946    |  51.7 |  2.45
Kspace  | 2.7776     | 4.5546     | 5.0706     |  35.5 | 77.32
Neigh   | 0.17427    | 0.17774    | 0.18033    |   0.5 |  3.02
Comm    | 0.0377     | 0.25328    | 0.58023    |  35.1 |  4.30
Output  | 2.3127e-05 | 2.3797e-05 | 3.1948e-05 |   0.0 |  0.00
Modify  | 0.031494   | 0.27156    | 0.59464    |  45.7 |  4.61
Other   |            | 0.0158     |            |       |  0.27

Nlocal:    67.125 ave 328 max 0 min
Histogram: 11 0 0 1 2 0 0 0 1 1
Nghost:    212.25 ave 525 max 0 min
Histogram: 8 0 0 0 1 0 2 1 0 4
Neighs:    3914.31 ave 28762 max 0 min
Histogram: 12 0 1 1 1 0 0 0 0 1

Total # of neighbors = 62629
Ave neighs/atom = 58.3138
Ave special neighs/atom = 10.5214
Neighbor list builds = 225
Dangerous builds = 0
unfix pysimm_md
write_dump all custom pysimm.dump.tmp id q x y z vx vy vz
quit


################################################################################
##################################    Init    ##################################
################################################################################
units           real
atom_style      full
pair_style      lj/cut/coul/long 12.0  12.0
kspace_style    pppm 1e-4
bond_style      harmonic
angle_style     harmonic
dihedral_style  fourier
improper_style  cvff
special_bonds   amber
pair_modify     mix arithmetic
read_data       temp.lmps
  orthogonal box = (-133.82 -133.82 -133.82) to (133.82 133.82 133.82)
  2 by 2 by 4 MPI processor grid
  reading atoms ...
  1129 atoms
  reading velocities ...
  1129 velocities
  scanning bonds ...
  3 = max bonds/atom
  scanning angles ...
  6 = max angles/atom
  scanning dihedrals ...
  24 = max dihedrals/atom
  scanning impropers ...
  2 = max impropers/atom
  reading bonds ...
  1199 bonds
  reading angles ...
  2097 angles
  reading dihedrals ...
  3100 dihedrals
  reading impropers ...
  312 impropers
  4 = max # of 1-2 neighbors
  10 = max # of 1-3 neighbors
  20 = max # of 1-4 neighbors
  22 = max # of special neighbors
  special bonds CPU = 0.00104785 secs
  read_data CPU = 0.02948 secs
################################################################################

min_style cg
minimize 1e-05 1e-05 10000 100000
WARNING: Using 'neigh_modify every 1 delay 0 check yes' setting during minimization (../min.cpp:190)
PPPM initialization ...
WARNING: System is not charge neutral, net charge = -3e-05 (../kspace.cpp:313)
  using 12-bit tables for long-range coulomb (../kspace.cpp:332)
  G vector (1/distance) = 0.0986031
  grid = 24 24 24
  stencil order = 5
  estimated absolute RMS force accuracy = 0.02724
  estimated relative force accuracy = 8.20324e-05
  using double precision KISS FFT
  3d grid and FFT values/proc = 3179 1152
Neighbor list info ...
  update every 1 steps, delay 0 steps, check yes
  max neighbors/atom: 2000, page size: 100000
  master list distance cutoff = 14
  ghost atom cutoff = 14
  binsize = 7, bins = 39 39 39
  1 neighbor lists, perpetual/occasional/extra = 1 0 0
  (1) pair lj/cut/coul/long, perpetual
      attributes: half, newton on
      pair build: half/bin/newton
      stencil: half/bin/3d/newton
      bin: standard
Per MPI rank memory allocation (min/avg/max) = 18.95 | 19.24 | 19.79 Mbytes
Step Temp E_pair E_mol TotEng Press 
       0    933.85713    694.71302    1719.3081    5553.9791    7.3655342 
      12    933.85713    697.39021     1696.625    5533.9732    7.7756952 
Loop time of 0.09097 on 16 procs for 12 steps with 1129 atoms

95.3% CPU use with 16 MPI tasks x no OpenMP threads

Minimization stats:
  Stopping criterion = energy tolerance
  Energy initial, next-to-last, final = 
         2414.02112497      2394.01592477      2394.01519984
  Force two-norm initial, final = 82.1442 51.6772
  Force max component initial, final = 10.3718 5.26219
  Final line search alpha, max atom move = 0.00608234 0.0320064
  Iterations, force evaluations = 12 24

MPI task timing breakdown:
Section |  min time  |  avg time  |  max time  |%varavg| %total
---------------------------------------------------------------
Pair    | 4.7684e-06 | 0.0090428  | 0.051396   |  16.5 |  9.94
Bond    | 1.0967e-05 | 0.001693   | 0.008498   |   6.9 |  1.86
Kspace  | 0.029193   | 0.078548   | 0.089572   |   6.6 | 86.35
Neigh   | 0          | 0          | 0          |   0.0 |  0.00
Comm    | 2.1458e-05 | 0.00057781 | 0.0012355  |   0.0 |  0.64
Output  | 0          | 0          | 0          |   0.0 |  0.00
Modify  | 0          | 0          | 0          |   0.0 |  0.00
Other   |            | 0.001108   |            |       |  1.22

Nlocal:    70.5625 ave 351 max 0 min
Histogram: 11 1 0 1 0 1 0 0 0 2
Nghost:    217.062 ave 557 max 0 min
Histogram: 8 0 0 0 0 1 2 1 3 1
Neighs:    4735.5 ave 27969 max 0 min
Histogram: 12 0 0 0 2 0 0 1 0 1

Total # of neighbors = 75768
Ave neighs/atom = 67.1107
Ave special neighs/atom = 10.6909
Neighbor list builds = 0
Dangerous builds = 0
timestep        1
fix             pysimm_md all nvt temp 300 300 100
run             5000
PPPM initialization ...
  using 12-bit tables for long-range coulomb (../kspace.cpp:332)
  G vector (1/distance) = 0.0986031
  grid = 24 24 24
  stencil order = 5
  estimated absolute RMS force accuracy = 0.02724
  estimated relative force accuracy = 8.20324e-05
  using double precision KISS FFT
  3d grid and FFT values/proc = 3179 1152
Per MPI rank memory allocation (min/avg/max) = 17.83 | 18.11 | 18.67 Mbytes
Step Temp E_pair E_mol TotEng Press 
      12    933.85713    697.39021     1696.625    5533.9732    7.7756952 
    5012    310.56556    723.73661    2229.7388    3997.7067  -0.31353338 
Loop time of 7.93032 on 16 procs for 5000 steps with 1129 atoms

Performance: 54.474 ns/day, 0.441 hours/ns, 630.492 timesteps/s
94.9% CPU use with 16 MPI tasks x no OpenMP threads

MPI task timing breakdown:
Section |  min time  |  avg time  |  max time  |%varavg| %total
---------------------------------------------------------------
Pair    | 0.00053978 | 0.64754    | 3.7934     | 136.8 |  8.17
Bond    | 0.00088263 | 0.15268    | 0.74148    |  62.7 |  1.93
Kspace  | 2.9037     | 6.1571     | 6.8493     |  46.1 | 77.64
Neigh   | 0.27911    | 0.28635    | 0.29158    |   0.6 |  3.61
Comm    | 0.028147   | 0.26544    | 0.70921    |  45.0 |  3.35
Output  | 2.1935e-05 | 2.3335e-05 | 3.1948e-05 |   0.0 |  0.00
Modify  | 0.032318   | 0.40311    | 0.7492     |  48.3 |  5.08
Other   |            | 0.01805    |            |       |  0.23

Nlocal:    70.5625 ave 311 max 0 min
Histogram: 10 1 1 0 0 1 1 0 0 2
Nghost:    231.188 ave 670 max 1 min
Histogram: 8 0 0 0 1 1 2 2 1 1
Neighs:    5497.06 ave 28097 max 0 min
Histogram: 11 0 1 0 1 1 0 1 0 1

Total # of neighbors = 87953
Ave neighs/atom = 77.9035
Ave special neighs/atom = 10.6909
Neighbor list builds = 250
Dangerous builds = 0
unfix pysimm_md
write_dump all custom pysimm.dump.tmp id q x y z vx vy vz
quit


################################################################################
##################################    Init    ##################################
################################################################################
units           real
atom_style      full
pair_style      lj/cut/coul/long 12.0  12.0
kspace_style    pppm 1e-4
bond_style      harmonic
angle_style     harmonic
dihedral_style  fourier
improper_style  cvff
special_bonds   amber
pair_modify     mix arithmetic
read_data       temp.lmps
  orthogonal box = (-133.463 -133.463 -133.463) to (133.463 133.463 133.463)
  2 by 2 by 4 MPI processor grid
  reading atoms ...
  1186 atoms
  reading velocities ...
  1186 velocities
  scanning bonds ...
  3 = max bonds/atom
  scanning angles ...
  6 = max angles/atom
  scanning dihedrals ...
  24 = max dihedrals/atom
  scanning impropers ...
  2 = max impropers/atom
  reading bonds ...
  1267 bonds
  reading angles ...
  2228 angles
  reading dihedrals ...
  3278 dihedrals
  reading impropers ...
  326 impropers
  4 = max # of 1-2 neighbors
  10 = max # of 1-3 neighbors
  20 = max # of 1-4 neighbors
  22 = max # of special neighbors
  special bonds CPU = 0.00169206 secs
  read_data CPU = 0.0294631 secs
################################################################################

min_style cg
minimize 1e-05 1e-05 10000 100000
WARNING: Using 'neigh_modify every 1 delay 0 check yes' setting during minimization (../min.cpp:190)
PPPM initialization ...
WARNING: System is not charge neutral, net charge = -3.4e-05 (../kspace.cpp:313)
  using 12-bit tables for long-range coulomb (../kspace.cpp:332)
  G vector (1/distance) = 0.0987936
  grid = 24 24 24
  stencil order = 5
  estimated absolute RMS force accuracy = 0.0263612
  estimated relative force accuracy = 7.93858e-05
  using double precision KISS FFT
  3d grid and FFT values/proc = 3179 1152
Neighbor list info ...
  update every 1 steps, delay 0 steps, check yes
  max neighbors/atom: 2000, page size: 100000
  master list distance cutoff = 14
  ghost atom cutoff = 14
  binsize = 7, bins = 39 39 39
  1 neighbor lists, perpetual/occasional/extra = 1 0 0
  (1) pair lj/cut/coul/long, perpetual
      attributes: half, newton on
      pair build: half/bin/newton
      stencil: half/bin/3d/newton
      bin: standard
Per MPI rank memory allocation (min/avg/max) = 18.95 | 19.24 | 19.76 Mbytes
Step Temp E_pair E_mol TotEng Press 
       0    1250.0966    826.97579    1754.6857    6997.3275    11.585035 
     118    1250.0966    794.35971    1602.1447    6812.1704    10.222102 
Loop time of 0.841466 on 16 procs for 118 steps with 1186 atoms

95.0% CPU use with 16 MPI tasks x no OpenMP threads

Minimization stats:
  Stopping criterion = linesearch alpha is zero
  Energy initial, next-to-last, final = 
         2581.66149117      2396.50441345      2396.50441345
  Force two-norm initial, final = 81.4951 41.6266
  Force max component initial, final = 8.42852 4.01211
  Final line search alpha, max atom move = 5.26521e-12 2.11246e-11
  Iterations, force evaluations = 118 293

MPI task timing breakdown:
Section |  min time  |  avg time  |  max time  |%varavg| %total
---------------------------------------------------------------
Pair    | 3.8385e-05 | 0.068838   | 0.40791    |  44.6 |  8.18
Bond    | 8.75e-05   | 0.017031   | 0.10193    |  22.6 |  2.02
Kspace  | 0.31003    | 0.73569    | 0.8234     |  17.2 | 87.43
Neigh   | 0.006778   | 0.0069819  | 0.0071659  |   0.1 |  0.83
Comm    | 0.00033379 | 0.0038135  | 0.007796   |   3.7 |  0.45
Output  | 0          | 0          | 0          |   0.0 |  0.00
Modify  | 0          | 0          | 0          |   0.0 |  0.00
Other   |            | 0.009114   |            |       |  1.08

Nlocal:    74.125 ave 437 max 0 min
Histogram: 11 0 2 0 1 0 1 0 0 1
Nghost:    95.75 ave 325 max 0 min
Histogram: 8 0 1 2 0 2 1 0 1 1
Neighs:    3442.88 ave 20423 max 0 min
Histogram: 11 0 1 1 0 2 0 0 0 1

Total # of neighbors = 55086
Ave neighs/atom = 46.4469
Ave special neighs/atom = 10.7808
Neighbor list builds = 5
Dangerous builds = 0
timestep        1
fix             pysimm_md all nvt temp 300 300 100
run             5000
PPPM initialization ...
  using 12-bit tables for long-range coulomb (../kspace.cpp:332)
  G vector (1/distance) = 0.0987936
  grid = 24 24 24
  stencil order = 5
  estimated absolute RMS force accuracy = 0.0263612
  estimated relative force accuracy = 7.93858e-05
  using double precision KISS FFT
  3d grid and FFT values/proc = 3179 1152
Per MPI rank memory allocation (min/avg/max) = 17.83 | 18.12 | 18.63 Mbytes
Step Temp E_pair E_mol TotEng Press 
     118    1250.0966    794.35971    1602.1447    6812.1704    10.222102 
    5118    300.75004    852.35075    2128.9638    4043.6419   0.35634187 
Loop time of 6.04129 on 16 procs for 5000 steps with 1186 atoms

Performance: 71.508 ns/day, 0.336 hours/ns, 827.638 timesteps/s
95.4% CPU use with 16 MPI tasks x no OpenMP threads

MPI task timing breakdown:
Section |  min time  |  avg time  |  max time  |%varavg| %total
---------------------------------------------------------------
Pair    | 0.00059128 | 0.43062    | 1.87       | 102.4 |  7.13
Bond    | 0.00090742 | 0.15265    | 0.73032    |  62.2 |  2.53
Kspace  | 3.1458     | 4.6477     | 5.1259     |  33.1 | 76.93
Neigh   | 0.11805    | 0.12063    | 0.12293    |   0.4 |  2.00
Comm    | 0.017735   | 0.2978     | 0.60885    |  39.8 |  4.93
Output  | 2.408e-05  | 2.5183e-05 | 3.314e-05  |   0.0 |  0.00
Modify  | 0.042196   | 0.37104    | 0.7596     |  46.1 |  6.14
Other   |            | 0.02085    |            |       |  0.35

Nlocal:    74.125 ave 384 max 0 min
Histogram: 11 0 0 1 2 0 0 1 0 1
Nghost:    89.5 ave 313 max 0 min
Histogram: 8 0 2 1 0 1 2 1 0 1
Neighs:    3374 ave 16300 max 0 min
Histogram: 11 0 0 0 1 2 0 1 0 1

Total # of neighbors = 53984
Ave neighs/atom = 45.5177
Ave special neighs/atom = 10.7808
Neighbor list builds = 197
Dangerous builds = 0
unfix pysimm_md
write_dump all custom pysimm.dump.tmp id q x y z vx vy vz
quit


################################################################################
##################################    Init    ##################################
################################################################################
units           real
atom_style      full
pair_style      lj/cut/coul/long 12.0  12.0
kspace_style    pppm 1e-4
bond_style      harmonic
angle_style     harmonic
dihedral_style  fourier
improper_style  cvff
special_bonds   amber
pair_modify     mix arithmetic
read_data       temp.lmps
  orthogonal box = (-135.651 -135.651 -135.651) to (135.651 135.651 135.651)
  2 by 2 by 4 MPI processor grid
  reading atoms ...
  1249 atoms
  reading velocities ...
  1249 velocities
  scanning bonds ...
  3 = max bonds/atom
  scanning angles ...
  6 = max angles/atom
  scanning dihedrals ...
  24 = max dihedrals/atom
  scanning impropers ...
  2 = max impropers/atom
  reading bonds ...
  1323 bonds
  reading angles ...
  2310 angles
  reading dihedrals ...
  3424 dihedrals
  reading impropers ...
  346 impropers
  4 = max # of 1-2 neighbors
  10 = max # of 1-3 neighbors
  20 = max # of 1-4 neighbors
  22 = max # of special neighbors
  special bonds CPU = 0.00107193 secs
  read_data CPU = 0.0307741 secs
################################################################################

min_style cg
minimize 1e-05 1e-05 10000 100000
WARNING: Using 'neigh_modify every 1 delay 0 check yes' setting during minimization (../min.cpp:190)
PPPM initialization ...
WARNING: System is not charge neutral, net charge = -3.2e-05 (../kspace.cpp:313)
  using 12-bit tables for long-range coulomb (../kspace.cpp:332)
  G vector (1/distance) = 0.0976404
  grid = 24 24 24
  stencil order = 5
  estimated absolute RMS force accuracy = 0.0295599
  estimated relative force accuracy = 8.90187e-05
  using double precision KISS FFT
  3d grid and FFT values/proc = 3179 1152
Neighbor list info ...
  update every 1 steps, delay 0 steps, check yes
  max neighbors/atom: 2000, page size: 100000
  master list distance cutoff = 14
  ghost atom cutoff = 14
  binsize = 7, bins = 39 39 39
  1 neighbor lists, perpetual/occasional/extra = 1 0 0
  (1) pair lj/cut/coul/long, perpetual
      attributes: half, newton on
      pair build: half/bin/newton
      stencil: half/bin/3d/newton
      bin: standard
Per MPI rank memory allocation (min/avg/max) = 18.96 | 19.26 | 19.8 Mbytes
Step Temp E_pair E_mol TotEng Press 
       0    864.34756    758.52347    1924.1555     5898.096    6.9074819 
      43    864.34756    733.93706    1853.9899    5803.3439    6.0025729 
Loop time of 0.525184 on 16 procs for 43 steps with 1249 atoms

92.3% CPU use with 16 MPI tasks x no OpenMP threads

Minimization stats:
  Stopping criterion = linesearch alpha is zero
  Energy initial, next-to-last, final = 
          2682.6789884       2587.9269339       2587.9269339
  Force two-norm initial, final = 73.168 64.3516
  Force max component initial, final = 9.20243 8.46487
  Final line search alpha, max atom move = 2.32492e-12 1.96801e-11
  Iterations, force evaluations = 43 145

MPI task timing breakdown:
Section |  min time  |  avg time  |  max time  |%varavg| %total
---------------------------------------------------------------
Pair    | 1.9789e-05 | 0.057608   | 0.28458    |  37.3 | 10.97
Bond    | 3.6716e-05 | 0.010971   | 0.05311    |  14.7 |  2.09
Kspace  | 0.17532    | 0.44581    | 0.51625    |  15.8 | 84.89
Neigh   | 0.001924   | 0.0020015  | 0.002063   |   0.1 |  0.38
Comm    | 0.00034881 | 0.0038162  | 0.0067294  |   3.8 |  0.73
Output  | 0          | 0          | 0          |   0.0 |  0.00
Modify  | 0          | 0          | 0          |   0.0 |  0.00
Other   |            | 0.004975   |            |       |  0.95

Nlocal:    78.0625 ave 370 max 0 min
Histogram: 9 0 3 1 1 0 0 1 0 1
Nghost:    256.375 ave 684 max 0 min
Histogram: 8 0 0 0 0 1 2 3 1 1
Neighs:    5054.56 ave 25560 max 0 min
Histogram: 10 1 1 1 0 1 0 0 1 1

Total # of neighbors = 80873
Ave neighs/atom = 64.7502
Ave special neighs/atom = 10.6613
Neighbor list builds = 1
Dangerous builds = 0
timestep        1
fix             pysimm_md all nvt temp 300 300 100
run             5000
PPPM initialization ...
  using 12-bit tables for long-range coulomb (../kspace.cpp:332)
  G vector (1/distance) = 0.0976404
  grid = 24 24 24
  stencil order = 5
  estimated absolute RMS force accuracy = 0.0295599
  estimated relative force accuracy = 8.90187e-05
  using double precision KISS FFT
  3d grid and FFT values/proc = 3179 1152
Per MPI rank memory allocation (min/avg/max) = 17.83 | 18.13 | 18.68 Mbytes
Step Temp E_pair E_mol TotEng Press 
      43    864.34756    733.93706    1853.9899    5803.3439    6.0025729 
    5043    309.49536    742.04993    2516.7974    4410.1858  -0.75628883 
Loop time of 7.60876 on 16 procs for 5000 steps with 1249 atoms

Performance: 56.777 ns/day, 0.423 hours/ns, 657.137 timesteps/s
93.1% CPU use with 16 MPI tasks x no OpenMP threads

MPI task timing breakdown:
Section |  min time  |  avg time  |  max time  |%varavg| %total
---------------------------------------------------------------
Pair    | 0.00058842 | 0.69127    | 2.9432     | 124.3 |  9.09
Bond    | 0.00088215 | 0.16393    | 0.79953    |  58.3 |  2.15
Kspace  | 3.4027     | 5.7581     | 6.5029     |  45.1 | 75.68
Neigh   | 0.2487     | 0.25382    | 0.25876    |   0.6 |  3.34
Comm    | 0.046887   | 0.3644     | 0.80991    |  41.3 |  4.79
Output  | 2.4796e-05 | 2.5526e-05 | 3.4094e-05 |   0.0 |  0.00
Modify  | 0.044991   | 0.35778    | 0.78068    |  52.8 |  4.70
Other   |            | 0.01941    |            |       |  0.26

Nlocal:    78.0625 ave 375 max 0 min
Histogram: 10 0 2 1 1 0 0 0 1 1
Nghost:    262.688 ave 759 max 0 min
Histogram: 8 0 0 0 0 3 1 3 0 1
Neighs:    6464.75 ave 33635 max 0 min
Histogram: 11 0 0 1 1 1 1 0 0 1

Total # of neighbors = 103436
Ave neighs/atom = 82.8151
Ave special neighs/atom = 10.6613
Neighbor list builds = 247
Dangerous builds = 0
unfix pysimm_md
write_dump all custom pysimm.dump.tmp id q x y z vx vy vz
quit


################################################################################
##################################    Init    ##################################
################################################################################
units           real
atom_style      full
pair_style      lj/cut/coul/long 12.0  12.0
kspace_style    pppm 1e-4
bond_style      harmonic
angle_style     harmonic
dihedral_style  fourier
improper_style  cvff
special_bonds   amber
pair_modify     mix arithmetic
read_data       temp.lmps
  orthogonal box = (-137.771 -137.771 -137.771) to (137.771 137.771 137.771)
  2 by 2 by 4 MPI processor grid
  reading atoms ...
  1308 atoms
  reading velocities ...
  1308 velocities
  scanning bonds ...
  3 = max bonds/atom
  scanning angles ...
  6 = max angles/atom
  scanning dihedrals ...
  24 = max dihedrals/atom
  scanning impropers ...
  2 = max impropers/atom
  reading bonds ...
  1387 bonds
  reading angles ...
  2424 angles
  reading dihedrals ...
  3590 dihedrals
  reading impropers ...
  362 impropers
  4 = max # of 1-2 neighbors
  10 = max # of 1-3 neighbors
  20 = max # of 1-4 neighbors
  22 = max # of special neighbors
  special bonds CPU = 0.00172591 secs
  read_data CPU = 0.0330229 secs
################################################################################

min_style cg
minimize 1e-05 1e-05 10000 100000
WARNING: Using 'neigh_modify every 1 delay 0 check yes' setting during minimization (../min.cpp:190)
PPPM initialization ...
WARNING: System is not charge neutral, net charge = -3.4e-05 (../kspace.cpp:313)
  using 12-bit tables for long-range coulomb (../kspace.cpp:332)
  G vector (1/distance) = 0.0965488
  grid = 24 24 24
  stencil order = 5
  estimated absolute RMS force accuracy = 0.0301817
  estimated relative force accuracy = 9.08914e-05
  using double precision KISS FFT
  3d grid and FFT values/proc = 3179 1152
Neighbor list info ...
  update every 1 steps, delay 0 steps, check yes
  max neighbors/atom: 2000, page size: 100000
  master list distance cutoff = 14
  ghost atom cutoff = 14
  binsize = 7, bins = 40 40 40
  1 neighbor lists, perpetual/occasional/extra = 1 0 0
  (1) pair lj/cut/coul/long, perpetual
      attributes: half, newton on
      pair build: half/bin/newton
      stencil: half/bin/3d/newton
      bin: standard
Per MPI rank memory allocation (min/avg/max) = 18.99 | 19.21 | 19.8 Mbytes
Step Temp E_pair E_mol TotEng Press 
       0    1590.1966     835.4915    2173.5219    9204.2901    11.868507 
      60    1590.1966     806.6925    2052.6454    9054.6146    11.968797 
Loop time of 0.695022 on 16 procs for 60 steps with 1308 atoms

94.7% CPU use with 16 MPI tasks x no OpenMP threads

Minimization stats:
  Stopping criterion = linesearch alpha is zero
  Energy initial, next-to-last, final = 
         3009.01341346      2859.33789115      2859.33789115
  Force two-norm initial, final = 90.8478 63.912
  Force max component initial, final = 13.7885 9.91044
  Final line search alpha, max atom move = 1.74203e-12 1.72643e-11
  Iterations, force evaluations = 60 179

MPI task timing breakdown:
Section |  min time  |  avg time  |  max time  |%varavg| %total
---------------------------------------------------------------
Pair    | 2.9802e-05 | 0.059739   | 0.39677    |  46.1 |  8.60
Bond    | 9.0122e-05 | 0.012531   | 0.071387   |  18.8 |  1.80
Kspace  | 0.21147    | 0.60798    | 0.68103    |  17.2 | 87.48
Neigh   | 0.0049639  | 0.0050841  | 0.0051241  |   0.1 |  0.73
Comm    | 0.0014598  | 0.0034256  | 0.0060055  |   2.5 |  0.49
Output  | 0          | 0          | 0          |   0.0 |  0.00
Modify  | 0          | 0          | 0          |   0.0 |  0.00
Other   |            | 0.006259   |            |       |  0.90

Nlocal:    81.75 ave 453 max 0 min
Histogram: 10 3 0 0 0 0 2 0 0 1
Nghost:    133.75 ave 374 max 1 min
Histogram: 8 0 0 0 1 1 3 1 1 1
Neighs:    4628.88 ave 31564 max 0 min
Histogram: 12 1 0 0 1 0 1 0 0 1

Total # of neighbors = 74062
Ave neighs/atom = 56.6223
Ave special neighs/atom = 10.6774
Neighbor list builds = 2
Dangerous builds = 0
timestep        1
fix             pysimm_md all nvt temp 300 300 100
run             5000
PPPM initialization ...
  using 12-bit tables for long-range coulomb (../kspace.cpp:332)
  G vector (1/distance) = 0.0965488
  grid = 24 24 24
  stencil order = 5
  estimated absolute RMS force accuracy = 0.0301817
  estimated relative force accuracy = 9.08914e-05
  using double precision KISS FFT
  3d grid and FFT values/proc = 3179 1152
Per MPI rank memory allocation (min/avg/max) = 17.86 | 18.09 | 18.67 Mbytes
Step Temp E_pair E_mol TotEng Press 
      60    1590.1966     806.6925    2052.6454    9054.6146    11.968797 
    5060    293.39606    836.79341     2559.059    4538.8996    2.8034976 
Loop time of 8.15728 on 16 procs for 5000 steps with 1308 atoms

Performance: 52.959 ns/day, 0.453 hours/ns, 612.950 timesteps/s
94.5% CPU use with 16 MPI tasks x no OpenMP threads

MPI task timing breakdown:
Section |  min time  |  avg time  |  max time  |%varavg| %total
---------------------------------------------------------------
Pair    | 0.00056171 | 0.50376    | 3.546      | 134.1 |  6.18
Bond    | 0.00090432 | 0.16597    | 1.0093     |  70.6 |  2.03
Kspace  | 3.2296     | 6.4161     | 6.9606     |  39.5 | 78.65
Neigh   | 0.21057    | 0.21286    | 0.21416    |   0.2 |  2.61
Comm    | 0.066549   | 0.45604    | 0.91272    |  41.9 |  5.59
Output  | 2.5034e-05 | 2.5779e-05 | 3.5048e-05 |   0.0 |  0.00
Modify  | 0.042022   | 0.37893    | 0.90636    |  51.1 |  4.65
Other   |            | 0.02358    |            |       |  0.29

Nlocal:    81.75 ave 442 max 0 min
Histogram: 12 0 1 0 0 1 0 0 1 1
Nghost:    142.375 ave 503 max 2 min
Histogram: 8 0 1 1 0 4 1 0 0 1
Neighs:    4145.56 ave 29757 max 0 min
Histogram: 12 1 0 1 0 0 1 0 0 1

Total # of neighbors = 66329
Ave neighs/atom = 50.7102
Ave special neighs/atom = 10.6774
Neighbor list builds = 185
Dangerous builds = 0
unfix pysimm_md
write_dump all custom pysimm.dump.tmp id q x y z vx vy vz
quit


################################################################################
##################################    Init    ##################################
################################################################################
units           real
atom_style      full
pair_style      lj/cut/coul/long 12.0  12.0
kspace_style    pppm 1e-4
bond_style      harmonic
angle_style     harmonic
dihedral_style  fourier
improper_style  cvff
special_bonds   amber
pair_modify     mix arithmetic
read_data       temp.lmps
  orthogonal box = (-139.828 -139.828 -139.828) to (139.828 139.828 139.828)
  2 by 2 by 4 MPI processor grid
  reading atoms ...
  1371 atoms
  reading velocities ...
  1371 velocities
  scanning bonds ...
  3 = max bonds/atom
  scanning angles ...
  6 = max angles/atom
  scanning dihedrals ...
  24 = max dihedrals/atom
  scanning impropers ...
  2 = max impropers/atom
  reading bonds ...
  1443 bonds
  reading angles ...
  2506 angles
  reading dihedrals ...
  3736 dihedrals
  reading impropers ...
  382 impropers
  4 = max # of 1-2 neighbors
  10 = max # of 1-3 neighbors
  20 = max # of 1-4 neighbors
  22 = max # of special neighbors
  special bonds CPU = 0.00160098 secs
  read_data CPU = 0.031935 secs
################################################################################

min_style cg
minimize 1e-05 1e-05 10000 100000
WARNING: Using 'neigh_modify every 1 delay 0 check yes' setting during minimization (../min.cpp:190)
[...]
  G vector (1/distance) = 0.0944626
  grid = 30 30 30
  stencil order = 5
  estimated absolute RMS force accuracy = 0.0343011
  estimated relative force accuracy = 0.000103297
  using double precision KISS FFT
  3d grid and FFT values/proc = 5200 1800
Per MPI rank memory allocation (min/avg/max) = 18.17 | 18.32 | 18.89 Mbytes
Step Temp E_pair E_mol TotEng Press 
      69    704.24726    1509.9829    4443.0152    11832.934    5.7673452 
    5069    306.79083    1611.0655    5423.5125     9596.051    1.2402974 
Loop time of 17.5773 on 16 procs for 5000 steps with 2802 atoms

Performance: 24.577 ns/day, 0.977 hours/ns, 284.458 timesteps/s
92.8% CPU use with 16 MPI tasks x no OpenMP threads

MPI task timing breakdown:
Section |  min time  |  avg time  |  max time  |%varavg| %total
---------------------------------------------------------------
Pair    | 0.0038676  | 1.2421     | 8.4733     | 213.6 |  7.07
Bond    | 0.0028658  | 0.3422     | 2.0211     | 101.7 |  1.95
Kspace  | 6.1115     | 13.569     | 14.884     |  66.8 | 77.19
Neigh   | 0.73004    | 0.73529    | 0.73713    |   0.2 |  4.18
Comm    | 0.1115     | 1.2069     | 1.8465     |  41.7 |  6.87
Output  | 3.0041e-05 | 3.2127e-05 | 3.8147e-05 |   0.0 |  0.00
Modify  | 0.058738   | 0.44785    | 1.2277     |  54.2 |  2.55
Other   |            | 0.03425    |            |       |  0.19

Nlocal:    175.125 ave 1016 max 3 min
Histogram: 11 1 1 1 0 0 0 1 0 1
Nghost:    128.312 ave 416 max 5 min
Histogram: 9 1 0 1 0 1 0 0 2 2
Neighs:    10169.1 ave 75747 max 0 min
Histogram: 11 3 0 0 0 1 0 0 0 1

Total # of neighbors = 162705
Ave neighs/atom = 58.0675
Ave special neighs/atom = 10.5803
Neighbor list builds = 305
Dangerous builds = 0
unfix pysimm_md
write_dump all custom pysimm.dump.tmp id q x y z vx vy vz
quit


################################################################################
##################################    Init    ##################################
################################################################################
units           real
atom_style      full
pair_style      lj/cut/coul/long 12.0  12.0
kspace_style    pppm 1e-4
bond_style      harmonic
angle_style     harmonic
dihedral_style  fourier
improper_style  cvff
special_bonds   amber
pair_modify     mix arithmetic
read_data       temp.lmps
  orthogonal box = (-182.257 -182.257 -182.257) to (182.257 182.257 182.257)
  2 by 2 by 4 MPI processor grid
  reading atoms ...
  2857 atoms
  reading velocities ...
  2857 velocities
  scanning bonds ...
  3 = max bonds/atom
  scanning angles ...
  6 = max angles/atom
  scanning dihedrals ...
  24 = max dihedrals/atom
  scanning impropers ...
  2 = max impropers/atom
  reading bonds ...
  3021 bonds
  reading angles ...
  5267 angles
  reading dihedrals ...
  7829 dihedrals
  reading impropers ...
  793 impropers
  4 = max # of 1-2 neighbors
  10 = max # of 1-3 neighbors
  20 = max # of 1-4 neighbors
  22 = max # of special neighbors
  special bonds CPU = 0.0016911 secs
  read_data CPU = 0.063323 secs
################################################################################

min_style cg
minimize 1e-05 1e-05 10000 100000
WARNING: Using 'neigh_modify every 1 delay 0 check yes' setting during minimization (../min.cpp:190)
PPPM initialization ...
WARNING: System is not charge neutral, net charge = -7.1e-05 (../kspace.cpp:313)
  using 12-bit tables for long-range coulomb (../kspace.cpp:332)
  G vector (1/distance) = 0.0926142
  grid = 30 30 30
  stencil order = 5
  estimated absolute RMS force accuracy = 0.0335878
  estimated relative force accuracy = 0.000101149
  using double precision KISS FFT
  3d grid and FFT values/proc = 5200 1800
Neighbor list info ...
  update every 1 steps, delay 0 steps, check yes
  max neighbors/atom: 2000, page size: 100000
  master list distance cutoff = 14
  ghost atom cutoff = 14
  binsize = 7, bins = 53 53 53
  1 neighbor lists, perpetual/occasional/extra = 1 0 0
  (1) pair lj/cut/coul/long, perpetual
      attributes: half, newton on
      pair build: half/bin/newton
      stencil: half/bin/3d/newton
      bin: standard
Per MPI rank memory allocation (min/avg/max) = 19.3 | 19.45 | 20.03 Mbytes
Step Temp E_pair E_mol TotEng Press 
       0    1696.8375    2137.1943    6231.0857    22813.786    11.173142 
     105    1696.8375    2161.3859    5674.6419    22281.533    13.112661 
Loop time of 1.41866 on 16 procs for 105 steps with 2857 atoms

91.0% CPU use with 16 MPI tasks x no OpenMP threads

Minimization stats:
  Stopping criterion = linesearch alpha is zero
  Energy initial, next-to-last, final = 
         8368.28006613      7836.02785972      7836.02785972
  Force two-norm initial, final = 180.279 96.1508
  Force max component initial, final = 60.5219 39.8149
  Final line search alpha, max atom move = 9.75962e-13 3.88578e-11
  Iterations, force evaluations = 105 271

MPI task timing breakdown:
Section |  min time  |  avg time  |  max time  |%varavg| %total
---------------------------------------------------------------
Pair    | 6.1512e-05 | 0.14831    | 0.83331    |  65.8 | 10.45
Bond    | 8.2016e-05 | 0.026924   | 0.15249    |  27.7 |  1.90
Kspace  | 0.40555    | 1.2178     | 1.3941     |  27.1 | 85.84
Neigh   | 0.0087578  | 0.008777   | 0.0088062  |   0.0 |  0.62
Comm    | 0.002187   | 0.005523   | 0.0099587  |   3.0 |  0.39
Output  | 0          | 0          | 0          |   0.0 |  0.00
Modify  | 0          | 0          | 0          |   0.0 |  0.00
Other   |            | 0.01134    |            |       |  0.80

Nlocal:    178.562 ave 951 max 1 min
Histogram: 10 3 0 0 0 0 1 1 0 1
Nghost:    214.312 ave 584 max 1 min
Histogram: 8 0 0 0 2 1 0 1 3 1
Neighs:    11769.2 ave 67776 max 0 min
Histogram: 11 1 1 0 0 1 0 1 0 1

Total # of neighbors = 188308
Ave neighs/atom = 65.9111
Ave special neighs/atom = 10.644
Neighbor list builds = 3
Dangerous builds = 0
timestep        1
fix             pysimm_md all nvt temp 300 300 100
run             5000
PPPM initialization ...
  using 12-bit tables for long-range coulomb (../kspace.cpp:332)
  G vector (1/distance) = 0.0926142
  grid = 30 30 30
  stencil order = 5
  estimated absolute RMS force accuracy = 0.0335878
  estimated relative force accuracy = 0.000101149
  using double precision KISS FFT
  3d grid and FFT values/proc = 5200 1800
Per MPI rank memory allocation (min/avg/max) = 18.17 | 18.33 | 18.9 Mbytes
Step Temp E_pair E_mol TotEng Press 
     105    1696.8375    2161.3859    5674.6419    22281.533    13.112661 
    5105    306.82295    2181.2588    6826.4843    11619.786   0.85973166 
Loop time of 23.0328 on 16 procs for 5000 steps with 2857 atoms

Performance: 18.756 ns/day, 1.280 hours/ns, 217.082 timesteps/s
92.7% CPU use with 16 MPI tasks x no OpenMP threads

MPI task timing breakdown:
Section |  min time  |  avg time  |  max time  |%varavg| %total
---------------------------------------------------------------
Pair    | 0.00072837 | 1.4718     | 12.59      | 259.1 |  6.39
Bond    | 0.00080919 | 0.35339    | 2.5404     | 112.3 |  1.53
Kspace  | 6.8181     | 18.25      | 19.788     |  75.9 | 79.24
Neigh   | 0.76053    | 0.76421    | 0.76615    |   0.2 |  3.32
Comm    | 0.17085    | 1.5097     | 2.2893     |  51.9 |  6.55
Output  | 3.0041e-05 | 3.2187e-05 | 4.0054e-05 |   0.0 |  0.00
Modify  | 0.063159   | 0.62945    | 1.6729     |  77.6 |  2.73
Other   |            | 0.05389    |            |       |  0.23

Nlocal:    178.562 ave 1308 max 2 min
Histogram: 11 2 1 0 1 0 0 0 0 1
Nghost:    208 ave 771 max 10 min
Histogram: 8 1 1 1 0 2 2 0 0 1
Neighs:    13005.2 ave 124099 max 0 min
Histogram: 12 2 1 0 0 0 0 0 0 1

Total # of neighbors = 208083
Ave neighs/atom = 72.8327
Ave special neighs/atom = 10.644
Neighbor list builds = 210
Dangerous builds = 0
unfix pysimm_md
write_dump all custom pysimm.dump.tmp id q x y z vx vy vz
quit


################################################################################
##################################    Init    ##################################
################################################################################
units           real
atom_style      full
pair_style      lj/cut/coul/long 12.0  12.0
kspace_style    pppm 1e-4
bond_style      harmonic
angle_style     harmonic
dihedral_style  fourier
improper_style  cvff
special_bonds   amber
pair_modify     mix arithmetic
read_data       temp.lmps
  orthogonal box = (-183.514 -183.514 -183.514) to (183.514 183.514 183.514)
  2 by 2 by 4 MPI processor grid
  reading atoms ...
  2917 atoms
  reading velocities ...
  2917 velocities
  scanning bonds ...
  3 = max bonds/atom
  scanning angles ...
  6 = max angles/atom
  scanning dihedrals ...
  24 = max dihedrals/atom
  scanning impropers ...
  2 = max impropers/atom
  reading bonds ...
  3083 bonds
  reading angles ...
  5373 angles
  reading dihedrals ...
  7990 dihedrals
  reading impropers ...
  810 impropers
  4 = max # of 1-2 neighbors
  10 = max # of 1-3 neighbors
  20 = max # of 1-4 neighbors
  22 = max # of special neighbors
  special bonds CPU = 0.00191092 secs
  read_data CPU = 0.0576541 secs
################################################################################

min_style cg
minimize 1e-05 1e-05 10000 100000
WARNING: Using 'neigh_modify every 1 delay 0 check yes' setting during minimization (../min.cpp:190)
PPPM initialization ...
WARNING: System is not charge neutral, net charge = -7.2e-05 (../kspace.cpp:313)
  using 12-bit tables for long-range coulomb (../kspace.cpp:332)
  G vector (1/distance) = 0.0921432
  grid = 30 30 30
  stencil order = 5
  estimated absolute RMS force accuracy = 0.0341567
  estimated relative force accuracy = 0.000102862
  using double precision KISS FFT
  3d grid and FFT values/proc = 5200 1800
Neighbor list info ...
  update every 1 steps, delay 0 steps, check yes
  max neighbors/atom: 2000, page size: 100000
  master list distance cutoff = 14
  ghost atom cutoff = 14
  binsize = 7, bins = 53 53 53
  1 neighbor lists, perpetual/occasional/extra = 1 0 0
  (1) pair lj/cut/coul/long, perpetual
      attributes: half, newton on
      pair build: half/bin/newton
      stencil: half/bin/3d/newton
      bin: standard
Per MPI rank memory allocation (min/avg/max) = 19.19 | 19.44 | 20.42 Mbytes
Step Temp E_pair E_mol TotEng Press 
       0    472.27808    1946.8592    6006.6746    12058.595    3.3339095 
      49    472.27808    1957.8005    5736.0279    11798.889    3.9132052 
Loop time of 1.27259 on 16 procs for 49 steps with 2917 atoms

89.7% CPU use with 16 MPI tasks x no OpenMP threads

Minimization stats:
  Stopping criterion = linesearch alpha is zero
  Energy initial, next-to-last, final = 
         7953.53374702      7693.82837243      7693.82837243
  Force two-norm initial, final = 183.354 99.6776
  Force max component initial, final = 75.5641 29.5849
  Final line search alpha, max atom move = 6.7941e-13 2.01003e-11
  Iterations, force evaluations = 49 159

MPI task timing breakdown:
Section |  min time  |  avg time  |  max time  |%varavg| %total
---------------------------------------------------------------
Pair    | 3.2187e-05 | 0.1266     | 0.85395    |  71.5 |  9.95
Bond    | 5.3883e-05 | 0.01708    | 0.12506    |  24.7 |  1.34
Kspace  | 0.33151    | 1.1069     | 1.2516     |  27.0 | 86.98
Neigh   | 0.009419   | 0.0095002  | 0.0095398  |   0.0 |  0.75
Comm    | 0.002079   | 0.0040697  | 0.0063932  |   2.1 |  0.32
Output  | 0          | 0          | 0          |   0.0 |  0.00
Modify  | 0          | 0          | 0          |   0.0 |  0.00
Other   |            | 0.008401   |            |       |  0.66

Nlocal:    182.312 ave 1170 max 0 min
Histogram: 10 3 1 0 0 0 0 1 0 1
Nghost:    237 ave 891 max 1 min
Histogram: 7 2 1 1 1 2 1 0 0 1
Neighs:    18365.3 ave 157636 max 0 min
Histogram: 13 1 0 0 0 1 0 0 0 1

Total # of neighbors = 293845
Ave neighs/atom = 100.735
Ave special neighs/atom = 10.6376
Neighbor list builds = 2
Dangerous builds = 0
timestep        1
fix             pysimm_md all nvt temp 300 300 100
run             5000
PPPM initialization ...
  using 12-bit tables for long-range coulomb (../kspace.cpp:332)
  G vector (1/distance) = 0.0921432
  grid = 30 30 30
  stencil order = 5
  estimated absolute RMS force accuracy = 0.0341567
  estimated relative force accuracy = 0.000102862
  using double precision KISS FFT
  3d grid and FFT values/proc = 5200 1800
Per MPI rank memory allocation (min/avg/max) = 18.07 | 18.31 | 19.29 Mbytes
Step Temp E_pair E_mol TotEng Press 
      49    472.27808    1957.8005    5736.0279    11798.889    3.9132052 
    5049    305.29256     2002.832    7105.6896    11762.137  -0.38987791 
Loop time of 25.5661 on 16 procs for 5000 steps with 2917 atoms

Performance: 16.897 ns/day, 1.420 hours/ns, 195.572 timesteps/s
92.4% CPU use with 16 MPI tasks x no OpenMP threads

MPI task timing breakdown:
Section |  min time  |  avg time  |  max time  |%varavg| %total
---------------------------------------------------------------
Pair    | 0.0033488  | 2.0429     | 15.908     | 300.5 |  7.99
Bond    | 0.0040646  | 0.35596    | 2.2567     | 106.6 |  1.39
Kspace  | 5.4404     | 19.531     | 21.666     |  99.1 | 76.39
Neigh   | 1.6263     | 1.6342     | 1.6403     |   0.3 |  6.39
Comm    | 0.16157    | 1.3553     | 2.2014     |  58.0 |  5.30
Output  | 2.718e-05  | 3.0115e-05 | 3.6955e-05 |   0.0 |  0.00
Modify  | 0.082164   | 0.61985    | 1.9008     |  83.0 |  2.42
Other   |            | 0.0271     |            |       |  0.11

Nlocal:    182.312 ave 1083 max 2 min
Histogram: 10 3 1 0 0 0 0 1 0 1
Nghost:    248.125 ave 804 max 1 min
Histogram: 8 2 0 0 1 2 0 0 0 3
Neighs:    17937.9 ave 144276 max 0 min
Histogram: 13 0 1 0 0 1 0 0 0 1

Total # of neighbors = 287007
Ave neighs/atom = 98.3912
Ave special neighs/atom = 10.6376
Neighbor list builds = 391
Dangerous builds = 2
unfix pysimm_md
write_dump all custom pysimm.dump.tmp id q x y z vx vy vz
quit


################################################################################
##################################    Init    ##################################
################################################################################
units           real
atom_style      full
pair_style      lj/cut/coul/long 12.0  12.0
kspace_style    pppm 1e-4
bond_style      harmonic
angle_style     harmonic
dihedral_style  fourier
improper_style  cvff
special_bonds   amber
pair_modify     mix arithmetic
read_data       temp.lmps
  orthogonal box = (-184.754 -184.754 -184.754) to (184.754 184.754 184.754)
  2 by 2 by 4 MPI processor grid
  reading atoms ...
  2978 atoms
  reading velocities ...
  2978 velocities
  scanning bonds ...
  3 = max bonds/atom
  scanning angles ...
  6 = max angles/atom
  scanning dihedrals ...
  24 = max dihedrals/atom
  scanning impropers ...
  2 = max impropers/atom
  reading bonds ...
  3143 bonds
  reading angles ...
  5471 angles
  reading dihedrals ...
  8146 dihedrals
  reading impropers ...
  828 impropers
  4 = max # of 1-2 neighbors
  10 = max # of 1-3 neighbors
  20 = max # of 1-4 neighbors
  22 = max # of special neighbors
  special bonds CPU = 0.00200987 secs
  read_data CPU = 0.056608 secs
################################################################################

min_style cg
minimize 1e-05 1e-05 10000 100000
WARNING: Using 'neigh_modify every 1 delay 0 check yes' setting during minimization (../min.cpp:190)
PPPM initialization ...
WARNING: System is not charge neutral, net charge = -7.2e-05 (../kspace.cpp:313)
  using 12-bit tables for long-range coulomb (../kspace.cpp:332)
  G vector (1/distance) = 0.091683
  grid = 30 30 30
  stencil order = 5
  estimated absolute RMS force accuracy = 0.0350173
  estimated relative force accuracy = 0.000105454
  using double precision KISS FFT
  3d grid and FFT values/proc = 5200 1800
Neighbor list info ...
  update every 1 steps, delay 0 steps, check yes
  max neighbors/atom: 2000, page size: 100000
  master list distance cutoff = 14
  ghost atom cutoff = 14
  binsize = 7, bins = 53 53 53
  1 neighbor lists, perpetual/occasional/extra = 1 0 0
  (1) pair lj/cut/coul/long, perpetual
      attributes: half, newton on
      pair build: half/bin/newton
      stencil: half/bin/3d/newton
      bin: standard
Per MPI rank memory allocation (min/avg/max) = 19.3 | 19.55 | 20.06 Mbytes
Step Temp E_pair E_mol TotEng Press 
       0    692.35224     1549.125    4747.1947    12440.165    5.3020346 
      60    692.35224    1494.8769    4547.7997    12186.521     5.042849 
Loop time of 0.942672 on 16 procs for 60 steps with 2978 atoms

95.1% CPU use with 16 MPI tasks x no OpenMP threads

Minimization stats:
  Stopping criterion = linesearch alpha is zero
  Energy initial, next-to-last, final = 
         6296.31972244      6042.67656678      6042.67656678
  Force two-norm initial, final = 120.825 64.2445
  Force max component initial, final = 20.192 6.79975
  Final line search alpha, max atom move = 2.06469e-12 1.40394e-11
  Iterations, force evaluations = 60 177

MPI task timing breakdown:
Section |  min time  |  avg time  |  max time  |%varavg| %total
---------------------------------------------------------------
Pair    | 5.5552e-05 | 0.12982    | 0.58012    |  51.7 | 13.77
Bond    | 6.1035e-05 | 0.021037   | 0.079448   |  17.6 |  2.23
Kspace  | 0.26094    | 0.77097    | 0.92312    |  24.2 | 81.79
Neigh   | 0.0096729  | 0.0098591  | 0.009995   |   0.1 |  1.05
Comm    | 0.0013189  | 0.00414    | 0.0077045  |   3.3 |  0.44
Output  | 0          | 0          | 0          |   0.0 |  0.00
Modify  | 0          | 0          | 0          |   0.0 |  0.00
Other   |            | 0.00685    |            |       |  0.73

Nlocal:    186.125 ave 670 max 1 min
Histogram: 8 1 1 1 1 1 1 0 1 1
Nghost:    278.062 ave 939 max 1 min
Histogram: 8 0 0 4 1 0 0 0 1 2
Neighs:    13920.9 ave 63616 max 0 min
Histogram: 9 2 1 0 1 0 0 2 0 1

Total # of neighbors = 222735
Ave neighs/atom = 74.7935
Ave special neighs/atom = 10.6179
Neighbor list builds = 3
Dangerous builds = 0
timestep        1
fix             pysimm_md all nvt temp 300 300 100
run             5000
PPPM initialization ...
  using 12-bit tables for long-range coulomb (../kspace.cpp:332)
  G vector (1/distance) = 0.091683
  grid = 30 30 30
  stencil order = 5
  estimated absolute RMS force accuracy = 0.0350173
  estimated relative force accuracy = 0.000105454
  using double precision KISS FFT
  3d grid and FFT values/proc = 5200 1800
Per MPI rank memory allocation (min/avg/max) = 18.17 | 18.42 | 18.93 Mbytes
Step Temp E_pair E_mol TotEng Press 
      60    692.35224    1494.8769    4547.7997    12186.521     5.042849 
    5060    299.74293    1622.3855    5876.9609    10159.227   0.92726167 
Loop time of 18.6024 on 16 procs for 5000 steps with 2978 atoms

Performance: 23.223 ns/day, 1.033 hours/ns, 268.783 timesteps/s
94.8% CPU use with 16 MPI tasks x no OpenMP threads

MPI task timing breakdown:
Section |  min time  |  avg time  |  max time  |%varavg| %total
---------------------------------------------------------------
Pair    | 0.0007813  | 1.6017     | 9.5872     | 205.5 |  8.61
Bond    | 0.00091815 | 0.36563    | 1.8871     |  84.1 |  1.97
Kspace  | 5.9406     | 14.14      | 15.826     |  71.1 | 76.01
Neigh   | 0.91597    | 0.92532    | 0.93292    |   0.5 |  4.97
Comm    | 0.14805    | 0.81069    | 1.6562     |  48.2 |  4.36
Output  | 2.9087e-05 | 3.1725e-05 | 3.8862e-05 |   0.0 |  0.00
Modify  | 0.064627   | 0.7294     | 1.4546     |  68.5 |  3.92
Other   |            | 0.02995    |            |       |  0.16

Nlocal:    186.125 ave 1161 max 2 min
Histogram: 10 2 1 2 0 0 0 0 0 1
Nghost:    257.625 ave 1138 max 0 min
Histogram: 8 1 1 3 1 1 0 0 0 1
Neighs:    14591.8 ave 117701 max 0 min
Histogram: 11 3 0 1 0 0 0 0 0 1

Total # of neighbors = 233469
Ave neighs/atom = 78.3979
Ave special neighs/atom = 10.6179
Neighbor list builds = 321
Dangerous builds = 0
unfix pysimm_md
write_dump all custom pysimm.dump.tmp id q x y z vx vy vz
quit
