

################################################################################
##################################    Init    ##################################
################################################################################
units           real
atom_style      full
pair_style      lj/cut/coul/long 12.0  12.0
kspace_style    pppm 1e-4
bond_style      harmonic
angle_style     harmonic
dihedral_style  fourier
improper_style  cvff
special_bonds   amber
pair_modify     mix arithmetic
read_data       temp.lmps
  orthogonal box = (-62.9514 -62.9514 -62.9514) to (62.9514 62.9514 62.9514)
  1 by 1 by 1 MPI processor grid
  reading atoms ...
  172 atoms
  reading velocities ...
  172 velocities
  scanning bonds ...
  4 = max bonds/atom
  scanning angles ...
  6 = max angles/atom
  scanning dihedrals ...
  10 = max dihedrals/atom
  scanning impropers ...
  1 = max impropers/atom
  reading bonds ...
  181 bonds
  reading angles ...
  310 angles
  reading dihedrals ...
  398 dihedrals
  reading impropers ...
  40 impropers
  4 = max # of 1-2 neighbors
  7 = max # of 1-3 neighbors
  17 = max # of 1-4 neighbors
  19 = max # of special neighbors
  special bonds CPU = 0.000596046 secs
  read_data CPU = 0.00639391 secs
################################################################################

min_style cg
minimize 1e-06 1e-06 1000000 10000000
WARNING: Using 'neigh_modify every 1 delay 0 check yes' setting during minimization (../min.cpp:190)
PPPM initialization ...
  using 12-bit tables for long-range coulomb (../kspace.cpp:332)
  G vector (1/distance) = 0.102977
  grid = 12 12 12
  stencil order = 5
  estimated absolute RMS force accuracy = 0.0268787
  estimated relative force accuracy = 8.09443e-05
  using double precision KISS FFT
  3d grid and FFT values/proc = 4913 1728
Neighbor list info ...
  update every 1 steps, delay 0 steps, check yes
  max neighbors/atom: 2000, page size: 100000
  master list distance cutoff = 14
  ghost atom cutoff = 14
  binsize = 7, bins = 18 18 18
  1 neighbor lists, perpetual/occasional/extra = 1 0 0
  (1) pair lj/cut/coul/long, perpetual
      attributes: half, newton on
      pair build: half/bin/newton
      stencil: half/bin/3d/newton
      bin: standard
Per MPI rank memory allocation (min/avg/max) = 14.47 | 14.47 | 14.47 Mbytes
Step Temp E_pair E_mol TotEng Press 
       0    298.18942    -361.3627    315.23703      105.867    -8.847986 
       1    298.18942    -361.3627    315.23703      105.867    -8.847986 
Loop time of 0.147624 on 1 procs for 1 steps with 172 atoms

99.6% CPU use with 1 MPI tasks x no OpenMP threads

Minimization stats:
  Stopping criterion = energy tolerance
  Energy initial, next-to-last, final = 
        -46.1256734724     -46.1256734724     -46.1256734724
  Force two-norm initial, final = 4.47442e+14 4.47442e+14
  Force max component initial, final = 3.64018e+14 3.64018e+14
  Final line search alpha, max atom move = 9.75973e-31 3.55271e-16
  Iterations, force evaluations = 1 77

MPI task timing breakdown:
Section |  min time  |  avg time  |  max time  |%varavg| %total
---------------------------------------------------------------
Pair    | 0.05205    | 0.05205    | 0.05205    |   0.0 | 35.26
Bond    | 0.011474   | 0.011474   | 0.011474   |   0.0 |  7.77
Kspace  | 0.083523   | 0.083523   | 0.083523   |   0.0 | 56.58
Neigh   | 0          | 0          | 0          |   0.0 |  0.00
Comm    | 2.9802e-05 | 2.9802e-05 | 2.9802e-05 |   0.0 |  0.02
Output  | 0          | 0          | 0          |   0.0 |  0.00
Modify  | 0          | 0          | 0          |   0.0 |  0.00
Other   |            | 0.0005474  |            |       |  0.37

Nlocal:    172 ave 172 max 172 min
Histogram: 1 0 0 0 0 0 0 0 0 0
Nghost:    0 ave 0 max 0 min
Histogram: 1 0 0 0 0 0 0 0 0 0
Neighs:    8297 ave 8297 max 8297 min
Histogram: 1 0 0 0 0 0 0 0 0 0

Total # of neighbors = 8297
Ave neighs/atom = 48.2384
Ave special neighs/atom = 9.98837
Neighbor list builds = 0
Dangerous builds = 0
write_dump all custom pysimm.dump.tmp id q x y z vx vy vz
quit


################################################################################
##################################    Init    ##################################
################################################################################
units           real
atom_style      full
pair_style      lj/cut/coul/long 12.0  12.0
kspace_style    pppm 1e-4
bond_style      harmonic
angle_style     harmonic
dihedral_style  fourier
improper_style  cvff
special_bonds   amber
pair_modify     mix arithmetic
read_data       temp.lmps
  orthogonal box = (-79.3138 -79.3138 -79.3138) to (79.3138 79.3138 79.3138)
  1 by 1 by 1 MPI processor grid
  reading atoms ...
  189 atoms
  reading velocities ...
  189 velocities
  scanning bonds ...
  4 = max bonds/atom
  scanning angles ...
  6 = max angles/atom
  scanning dihedrals ...
  10 = max dihedrals/atom
  scanning impropers ...
  1 = max impropers/atom
  reading bonds ...
  199 bonds
  reading angles ...
  341 angles
  reading dihedrals ...
  438 dihedrals
  reading impropers ...
  44 impropers
  4 = max # of 1-2 neighbors
  7 = max # of 1-3 neighbors
  17 = max # of 1-4 neighbors
  19 = max # of special neighbors
  special bonds CPU = 0.000334024 secs
  read_data CPU = 0.00913882 secs
################################################################################

min_style cg
minimize 1e-06 1e-06 1000000 10000000
WARNING: Using 'neigh_modify every 1 delay 0 check yes' setting during minimization (../min.cpp:190)
PPPM initialization ...
  using 12-bit tables for long-range coulomb (../kspace.cpp:332)
  G vector (1/distance) = 0.0869335
  grid = 12 12 12
  stencil order = 5
  estimated absolute RMS force accuracy = 0.0309284
  estimated relative force accuracy = 9.31401e-05
  using double precision KISS FFT
  3d grid and FFT values/proc = 4913 1728
Neighbor list info ...
  update every 1 steps, delay 0 steps, check yes
  max neighbors/atom: 2000, page size: 100000
  master list distance cutoff = 14
  ghost atom cutoff = 14
  binsize = 7, bins = 23 23 23
  1 neighbor lists, perpetual/occasional/extra = 1 0 0
  (1) pair lj/cut/coul/long, perpetual
      attributes: half, newton on
      pair build: half/bin/newton
      stencil: half/bin/3d/newton
      bin: standard
Per MPI rank memory allocation (min/avg/max) = 14.51 | 14.51 | 14.51 Mbytes
Step Temp E_pair E_mol TotEng Press 
       0    854.03464   -395.72938     342.3776    425.24264   -1.4970043 
       5    854.03464   -395.72938    339.13598    422.00103   -1.4969371 
Loop time of 0.0950999 on 1 procs for 5 steps with 189 atoms

99.9% CPU use with 1 MPI tasks x no OpenMP threads

Minimization stats:
  Stopping criterion = energy tolerance
  Energy initial, next-to-last, final = 
        -53.3517820219     -56.5933786361     -56.5933969534
  Force two-norm initial, final = 1.0465e+15 1100.53
  Force max component initial, final = 7.5046e+14 783.918
  Final line search alpha, max atom move = 9.16518e-12 7.18475e-09
  Iterations, force evaluations = 5 128

MPI task timing breakdown:
Section |  min time  |  avg time  |  max time  |%varavg| %total
---------------------------------------------------------------
Pair    | 0.03659    | 0.03659    | 0.03659    |   0.0 | 38.48
Bond    | 0.0075877  | 0.0075877  | 0.0075877  |   0.0 |  7.98
Kspace  | 0.050447   | 0.050447   | 0.050447   |   0.0 | 53.05
Neigh   | 0          | 0          | 0          |   0.0 |  0.00
Comm    | 3.1948e-05 | 3.1948e-05 | 3.1948e-05 |   0.0 |  0.03
Output  | 0          | 0          | 0          |   0.0 |  0.00
Modify  | 0          | 0          | 0          |   0.0 |  0.00
Other   |            | 0.0004435  |            |       |  0.47

Nlocal:    189 ave 189 max 189 min
Histogram: 1 0 0 0 0 0 0 0 0 0
Nghost:    0 ave 0 max 0 min
Histogram: 1 0 0 0 0 0 0 0 0 0
Neighs:    9966 ave 9966 max 9966 min
Histogram: 1 0 0 0 0 0 0 0 0 0

Total # of neighbors = 9966
Ave neighs/atom = 52.7302
Ave special neighs/atom = 10
Neighbor list builds = 0
Dangerous builds = 0
write_dump all custom pysimm.dump.tmp id q x y z vx vy vz
quit


################################################################################
##################################    Init    ##################################
################################################################################
units           real
atom_style      full
pair_style      lj/cut/coul/long 12.0  12.0
kspace_style    pppm 1e-4
bond_style      harmonic
angle_style     harmonic
dihedral_style  fourier
improper_style  cvff
special_bonds   amber
pair_modify     mix arithmetic
read_data       temp.lmps
  orthogonal box = (-81.874 -81.874 -81.874) to (81.874 81.874 81.874)
  1 by 1 by 1 MPI processor grid
  reading atoms ...
  206 atoms
  reading velocities ...
  206 velocities
  scanning bonds ...
  4 = max bonds/atom
  scanning angles ...
  6 = max angles/atom
  scanning dihedrals ...
  10 = max dihedrals/atom
  scanning impropers ...
  1 = max impropers/atom
  reading bonds ...
  217 bonds
  reading angles ...
  372 angles
  reading dihedrals ...
  478 dihedrals
  reading impropers ...
  48 impropers
  4 = max # of 1-2 neighbors
  7 = max # of 1-3 neighbors
  17 = max # of 1-4 neighbors
  19 = max # of special neighbors
  special bonds CPU = 0.000283003 secs
  read_data CPU = 0.00866508 secs
################################################################################

min_style cg
minimize 1e-06 1e-06 1000000 10000000
WARNING: Using 'neigh_modify every 1 delay 0 check yes' setting during minimization (../min.cpp:190)
PPPM initialization ...
  using 12-bit tables for long-range coulomb (../kspace.cpp:332)
  G vector (1/distance) = 0.0848473
  grid = 12 12 12
  stencil order = 5
  estimated absolute RMS force accuracy = 0.0324459
  estimated relative force accuracy = 9.77098e-05
  using double precision KISS FFT
  3d grid and FFT values/proc = 4913 1728
Neighbor list info ...
  update every 1 steps, delay 0 steps, check yes
  max neighbors/atom: 2000, page size: 100000
  master list distance cutoff = 14
  ghost atom cutoff = 14
  binsize = 7, bins = 24 24 24
  1 neighbor lists, perpetual/occasional/extra = 1 0 0
  (1) pair lj/cut/coul/long, perpetual
      attributes: half, newton on
      pair build: half/bin/newton
      stencil: half/bin/3d/newton
      bin: standard
Per MPI rank memory allocation (min/avg/max) = 14.52 | 14.52 | 14.52 Mbytes
Step Temp E_pair E_mol TotEng Press 
       0    944.64172    -441.7193    365.99114    501.51032   -1.4068566 
       5    944.64172    -441.7193    363.04552    498.56471    -1.407365 
Loop time of 0.128606 on 1 procs for 5 steps with 206 atoms

100.3% CPU use with 1 MPI tasks x no OpenMP threads

Minimization stats:
  Stopping criterion = energy tolerance
  Energy initial, next-to-last, final = 
        -75.7281677144      -78.673777704     -78.6737834363
  Force two-norm initial, final = 2.66736e+15 17896.1
  Force max component initial, final = 1.90355e+15 11684.4
  Final line search alpha, max atom move = 2.17677e-14 2.54344e-10
  Iterations, force evaluations = 5 173

MPI task timing breakdown:
Section |  min time  |  avg time  |  max time  |%varavg| %total
---------------------------------------------------------------
Pair    | 0.047544   | 0.047544   | 0.047544   |   0.0 | 36.97
Bond    | 0.010947   | 0.010947   | 0.010947   |   0.0 |  8.51
Kspace  | 0.069507   | 0.069507   | 0.069507   |   0.0 | 54.05
Neigh   | 0          | 0          | 0          |   0.0 |  0.00
Comm    | 4.8876e-05 | 4.8876e-05 | 4.8876e-05 |   0.0 |  0.04
Output  | 0          | 0          | 0          |   0.0 |  0.00
Modify  | 0          | 0          | 0          |   0.0 |  0.00
Other   |            | 0.0005591  |            |       |  0.43

Nlocal:    206 ave 206 max 206 min
Histogram: 1 0 0 0 0 0 0 0 0 0
Nghost:    0 ave 0 max 0 min
Histogram: 1 0 0 0 0 0 0 0 0 0
Neighs:    9071 ave 9071 max 9071 min
Histogram: 1 0 0 0 0 0 0 0 0 0

Total # of neighbors = 9071
Ave neighs/atom = 44.034
Ave special neighs/atom = 10.0097
Neighbor list builds = 0
Dangerous builds = 0
write_dump all custom pysimm.dump.tmp id q x y z vx vy vz
quit


################################################################################
##################################    Init    ##################################
################################################################################
units           real
atom_style      full
pair_style      lj/cut/coul/long 12.0  12.0
kspace_style    pppm 1e-4
bond_style      harmonic
angle_style     harmonic
dihedral_style  fourier
improper_style  cvff
special_bonds   amber
pair_modify     mix arithmetic
read_data       temp.lmps
  orthogonal box = (-62.9514 -62.9514 -62.9514) to (62.9514 62.9514 62.9514)
  1 by 1 by 1 MPI processor grid
  reading atoms ...
  172 atoms
  reading velocities ...
  172 velocities
  scanning bonds ...
  4 = max bonds/atom
  scanning angles ...
  6 = max angles/atom
  scanning dihedrals ...
  10 = max dihedrals/atom
  scanning impropers ...
  1 = max impropers/atom
  reading bonds ...
  181 bonds
  reading angles ...
  310 angles
  reading dihedrals ...
  398 dihedrals
  reading impropers ...
  40 impropers
  4 = max # of 1-2 neighbors
  7 = max # of 1-3 neighbors
  17 = max # of 1-4 neighbors
  19 = max # of special neighbors
  special bonds CPU = 0.000293016 secs
  read_data CPU = 0.00808096 secs
################################################################################

min_style cg
minimize 1e-06 1e-06 1000000 10000000
WARNING: Using 'neigh_modify every 1 delay 0 check yes' setting during minimization (../min.cpp:190)
PPPM initialization ...
  using 12-bit tables for long-range coulomb (../kspace.cpp:332)
  G vector (1/distance) = 0.102977
  grid = 12 12 12
  stencil order = 5
  estimated absolute RMS force accuracy = 0.0268787
  estimated relative force accuracy = 8.09443e-05
  using double precision KISS FFT
  3d grid and FFT values/proc = 4913 1728
Neighbor list info ...
  update every 1 steps, delay 0 steps, check yes
  max neighbors/atom: 2000, page size: 100000
  master list distance cutoff = 14
  ghost atom cutoff = 14
  binsize = 7, bins = 18 18 18
  1 neighbor lists, perpetual/occasional/extra = 1 0 0
  (1) pair lj/cut/coul/long, perpetual
      attributes: half, newton on
      pair build: half/bin/newton
      stencil: half/bin/3d/newton
      bin: standard
Per MPI rank memory allocation (min/avg/max) = 14.47 | 14.47 | 14.47 Mbytes
Step Temp E_pair E_mol TotEng Press 
       0    337.76128   -364.09745    322.64042    130.70615   -10.588479 
      25    337.76128   -365.04994       58.817   -134.06976    1.6196711 
Loop time of 0.128676 on 1 procs for 25 steps with 172 atoms

99.5% CPU use with 1 MPI tasks x no OpenMP threads

Minimization stats:
  Stopping criterion = linesearch alpha is zero
  Energy initial, next-to-last, final = 
        -41.4570243451     -306.232937681     -306.232937681
  Force two-norm initial, final = 2.66982e+15 18.7229
  Force max component initial, final = 1.88238e+15 4.61399
  Final line search alpha, max atom move = 2.76738e-11 1.27687e-10
  Iterations, force evaluations = 25 171

MPI task timing breakdown:
Section |  min time  |  avg time  |  max time  |%varavg| %total
---------------------------------------------------------------
Pair    | 0.044      | 0.044      | 0.044      |   0.0 | 34.19
Bond    | 0.010024   | 0.010024   | 0.010024   |   0.0 |  7.79
Kspace  | 0.073732   | 0.073732   | 0.073732   |   0.0 | 57.30
Neigh   | 0.00023508 | 0.00023508 | 0.00023508 |   0.0 |  0.18
Comm    | 4.673e-05  | 4.673e-05  | 4.673e-05  |   0.0 |  0.04
Output  | 0          | 0          | 0          |   0.0 |  0.00
Modify  | 0          | 0          | 0          |   0.0 |  0.00
Other   |            | 0.000638   |            |       |  0.50

Nlocal:    172 ave 172 max 172 min
Histogram: 1 0 0 0 0 0 0 0 0 0
Nghost:    0 ave 0 max 0 min
Histogram: 1 0 0 0 0 0 0 0 0 0
Neighs:    7522 ave 7522 max 7522 min
Histogram: 1 0 0 0 0 0 0 0 0 0

Total # of neighbors = 7522
Ave neighs/atom = 43.7326
Ave special neighs/atom = 9.98837
Neighbor list builds = 1
Dangerous builds = 0
write_dump all custom pysimm.dump.tmp id q x y z vx vy vz
quit


################################################################################
##################################    Init    ##################################
################################################################################
units           real
atom_style      full
pair_style      lj/cut/coul/long 12.0  12.0
kspace_style    pppm 1e-4
bond_style      harmonic
angle_style     harmonic
dihedral_style  fourier
improper_style  cvff
special_bonds   amber
pair_modify     mix arithmetic
read_data       temp.lmps
  orthogonal box = (-79.3138 -79.3138 -79.3138) to (79.3138 79.3138 79.3138)
  1 by 1 by 1 MPI processor grid
  reading atoms ...
  189 atoms
  reading velocities ...
  189 velocities
  scanning bonds ...
  4 = max bonds/atom
  scanning angles ...
  6 = max angles/atom
  scanning dihedrals ...
  10 = max dihedrals/atom
  scanning impropers ...
  1 = max impropers/atom
  reading bonds ...
  199 bonds
  reading angles ...
  341 angles
  reading dihedrals ...
  438 dihedrals
  reading impropers ...
  44 impropers
  4 = max # of 1-2 neighbors
  7 = max # of 1-3 neighbors
  17 = max # of 1-4 neighbors
  19 = max # of special neighbors
  special bonds CPU = 0.000368834 secs
  read_data CPU = 0.00868511 secs
################################################################################

min_style cg
minimize 1e-06 1e-06 1000000 10000000
WARNING: Using 'neigh_modify every 1 delay 0 check yes' setting during minimization (../min.cpp:190)
PPPM initialization ...
  using 12-bit tables for long-range coulomb (../kspace.cpp:332)
  G vector (1/distance) = 0.0869335
  grid = 12 12 12
  stencil order = 5
  estimated absolute RMS force accuracy = 0.0309284
  estimated relative force accuracy = 9.31401e-05
  using double precision KISS FFT
  3d grid and FFT values/proc = 4913 1728
Neighbor list info ...
  update every 1 steps, delay 0 steps, check yes
  max neighbors/atom: 2000, page size: 100000
  master list distance cutoff = 14
  ghost atom cutoff = 14
  binsize = 7, bins = 23 23 23
  1 neighbor lists, perpetual/occasional/extra = 1 0 0
  (1) pair lj/cut/coul/long, perpetual
      attributes: half, newton on
      pair build: half/bin/newton
      stencil: half/bin/3d/newton
      bin: standard
Per MPI rank memory allocation (min/avg/max) = 14.51 | 14.51 | 14.51 Mbytes
Step Temp E_pair E_mol TotEng Press 
       0    627.77845   -396.06854    348.10126    303.83492    -1.778638 
       5    627.77845   -396.06855    344.54424    300.27789   -1.7785267 
Loop time of 0.115141 on 1 procs for 5 steps with 189 atoms

99.0% CPU use with 1 MPI tasks x no OpenMP threads

Minimization stats:
  Stopping criterion = energy tolerance
  Energy initial, next-to-last, final = 
        -47.9672829438     -51.5243056667     -51.5243132068
  Force two-norm initial, final = 1.15823e+15 1015.54
  Force max component initial, final = 8.89679e+14 660.953
  Final line search alpha, max atom move = 3.7007e-10 2.44599e-07
  Iterations, force evaluations = 5 112

MPI task timing breakdown:
Section |  min time  |  avg time  |  max time  |%varavg| %total
---------------------------------------------------------------
Pair    | 0.043745   | 0.043745   | 0.043745   |   0.0 | 37.99
Bond    | 0.0091157  | 0.0091157  | 0.0091157  |   0.0 |  7.92
Kspace  | 0.061791   | 0.061791   | 0.061791   |   0.0 | 53.67
Neigh   | 0          | 0          | 0          |   0.0 |  0.00
Comm    | 3.0756e-05 | 3.0756e-05 | 3.0756e-05 |   0.0 |  0.03
Output  | 0          | 0          | 0          |   0.0 |  0.00
Modify  | 0          | 0          | 0          |   0.0 |  0.00
Other   |            | 0.0004585  |            |       |  0.40

Nlocal:    189 ave 189 max 189 min
Histogram: 1 0 0 0 0 0 0 0 0 0
Nghost:    0 ave 0 max 0 min
Histogram: 1 0 0 0 0 0 0 0 0 0
Neighs:    9413 ave 9413 max 9413 min
Histogram: 1 0 0 0 0 0 0 0 0 0

Total # of neighbors = 9413
Ave neighs/atom = 49.8042
Ave special neighs/atom = 10
Neighbor list builds = 0
Dangerous builds = 0
write_dump all custom pysimm.dump.tmp id q x y z vx vy vz
quit


################################################################################
##################################    Init    ##################################
################################################################################
units           real
atom_style      full
pair_style      lj/cut/coul/long 12.0  12.0
kspace_style    pppm 1e-4
bond_style      harmonic
angle_style     harmonic
dihedral_style  fourier
improper_style  cvff
special_bonds   amber
pair_modify     mix arithmetic
read_data       temp.lmps
  orthogonal box = (-81.874 -81.874 -81.874) to (81.874 81.874 81.874)
  1 by 1 by 1 MPI processor grid
  reading atoms ...
  206 atoms
  reading velocities ...
  206 velocities
  scanning bonds ...
  4 = max bonds/atom
  scanning angles ...
  6 = max angles/atom
  scanning dihedrals ...
  10 = max dihedrals/atom
  scanning impropers ...
  1 = max impropers/atom
  reading bonds ...
  217 bonds
  reading angles ...
  372 angles
  reading dihedrals ...
  478 dihedrals
  reading impropers ...
  48 impropers
  4 = max # of 1-2 neighbors
  7 = max # of 1-3 neighbors
  17 = max # of 1-4 neighbors
  19 = max # of special neighbors
  special bonds CPU = 0.00028801 secs
  read_data CPU = 0.00850105 secs
################################################################################

min_style cg
minimize 1e-06 1e-06 1000000 10000000
WARNING: Using 'neigh_modify every 1 delay 0 check yes' setting during minimization (../min.cpp:190)
PPPM initialization ...
  using 12-bit tables for long-range coulomb (../kspace.cpp:332)
  G vector (1/distance) = 0.0848473
  grid = 12 12 12
  stencil order = 5
  estimated absolute RMS force accuracy = 0.0324459
  estimated relative force accuracy = 9.77098e-05
  using double precision KISS FFT
  3d grid and FFT values/proc = 4913 1728
Neighbor list info ...
  update every 1 steps, delay 0 steps, check yes
  max neighbors/atom: 2000, page size: 100000
  master list distance cutoff = 14
  ghost atom cutoff = 14
  binsize = 7, bins = 24 24 24
  1 neighbor lists, perpetual/occasional/extra = 1 0 0
  (1) pair lj/cut/coul/long, perpetual
      attributes: half, newton on
      pair build: half/bin/newton
      stencil: half/bin/3d/newton
      bin: standard
Per MPI rank memory allocation (min/avg/max) = 14.52 | 14.52 | 14.52 Mbytes
Step Temp E_pair E_mol TotEng Press 
       0    1120.7898     -435.512    355.11816     604.4828   -0.2668686 
      27    1120.7898   -433.44513    84.121093     335.5526    6.6314542 
Loop time of 0.182519 on 1 procs for 27 steps with 206 atoms

100.2% CPU use with 1 MPI tasks x no OpenMP threads

Minimization stats:
  Stopping criterion = linesearch alpha is zero
  Energy initial, next-to-last, final = 
        -80.3938378864     -349.324037518     -349.324037518
  Force two-norm initial, final = 2.2665e+15 30.6442
  Force max component initial, final = 1.46639e+15 7.10522
  Final line search alpha, max atom move = 7.91988e-12 5.62725e-11
  Iterations, force evaluations = 27 190

MPI task timing breakdown:
Section |  min time  |  avg time  |  max time  |%varavg| %total
---------------------------------------------------------------
Pair    | 0.091326   | 0.091326   | 0.091326   |   0.0 | 50.04
Bond    | 0.012544   | 0.012544   | 0.012544   |   0.0 |  6.87
Kspace  | 0.077527   | 0.077527   | 0.077527   |   0.0 | 42.48
Neigh   | 0.00036883 | 0.00036883 | 0.00036883 |   0.0 |  0.20
Comm    | 4.9591e-05 | 4.9591e-05 | 4.9591e-05 |   0.0 |  0.03
Output  | 0          | 0          | 0          |   0.0 |  0.00
Modify  | 0          | 0          | 0          |   0.0 |  0.00
Other   |            | 0.0007036  |            |       |  0.39

Nlocal:    206 ave 206 max 206 min
Histogram: 1 0 0 0 0 0 0 0 0 0
Nghost:    0 ave 0 max 0 min
Histogram: 1 0 0 0 0 0 0 0 0 0
Neighs:    16798 ave 16798 max 16798 min
Histogram: 1 0 0 0 0 0 0 0 0 0

Total # of neighbors = 16798
Ave neighs/atom = 81.5437
Ave special neighs/atom = 10.0097
Neighbor list builds = 1
Dangerous builds = 0
write_dump all custom pysimm.dump.tmp id q x y z vx vy vz
quit


################################################################################
##################################    Init    ##################################
################################################################################
units           real
atom_style      full
pair_style      lj/cut/coul/long 12.0  12.0
kspace_style    pppm 1e-4
bond_style      harmonic
angle_style     harmonic
dihedral_style  fourier
improper_style  cvff
special_bonds   amber
pair_modify     mix arithmetic
read_data       temp.lmps
  orthogonal box = (-84.2834 -84.2834 -84.2834) to (84.2834 84.2834 84.2834)
  1 by 1 by 1 MPI processor grid
  reading atoms ...
  223 atoms
  reading velocities ...
  223 velocities
  scanning bonds ...
  4 = max bonds/atom
  scanning angles ...
  6 = max angles/atom
  scanning dihedrals ...
  10 = max dihedrals/atom
  scanning impropers ...
  1 = max impropers/atom
  reading bonds ...
  235 bonds
  reading angles ...
  403 angles
  reading dihedrals ...
  518 dihedrals
  reading impropers ...
  52 impropers
  4 = max # of 1-2 neighbors
  7 = max # of 1-3 neighbors
  17 = max # of 1-4 neighbors
  19 = max # of special neighbors
  special bonds CPU = 0.00067091 secs
  read_data CPU = 0.00642991 secs
################################################################################

min_style cg
minimize 1e-06 1e-06 1000000 10000000
WARNING: Using 'neigh_modify every 1 delay 0 check yes' setting during minimization (../min.cpp:190)
PPPM initialization ...
  using 12-bit tables for long-range coulomb (../kspace.cpp:332)
  G vector (1/distance) = 0.08297
  grid = 12 12 12
  stencil order = 5
  estimated absolute RMS force accuracy = 0.0338463
  estimated relative force accuracy = 0.000101927
  using double precision KISS FFT
  3d grid and FFT values/proc = 4913 1728
Neighbor list info ...
  update every 1 steps, delay 0 steps, check yes
  max neighbors/atom: 2000, page size: 100000
  master list distance cutoff = 14
  ghost atom cutoff = 14
  binsize = 7, bins = 25 25 25
  1 neighbor lists, perpetual/occasional/extra = 1 0 0
  (1) pair lj/cut/coul/long, perpetual
      attributes: half, newton on
      pair build: half/bin/newton
      stencil: half/bin/3d/newton
      bin: standard
Per MPI rank memory allocation (min/avg/max) = 14.53 | 14.53 | 14.53 Mbytes
Step Temp E_pair E_mol TotEng Press 
       0    1063.7517   -471.77723    372.71815    604.86778   0.29360121 
       1    1063.7517   -471.77723    372.71815    604.86778   0.29360121 
Loop time of 0.17123 on 1 procs for 1 steps with 223 atoms

99.9% CPU use with 1 MPI tasks x no OpenMP threads

Minimization stats:
  Stopping criterion = energy tolerance
  Energy initial, next-to-last, final = 
        -99.0590806728     -99.0590806728     -99.0590806728
  Force two-norm initial, final = 1.74448e+15 1.74448e+15
  Force max component initial, final = 1.09612e+15 1.09612e+15
  Final line search alpha, max atom move = 3.24118e-31 3.55271e-16
  Iterations, force evaluations = 1 74

MPI task timing breakdown:
Section |  min time  |  avg time  |  max time  |%varavg| %total
---------------------------------------------------------------
Pair    | 0.071774   | 0.071774   | 0.071774   |   0.0 | 41.92
Bond    | 0.01411    | 0.01411    | 0.01411    |   0.0 |  8.24
Kspace  | 0.084697   | 0.084697   | 0.084697   |   0.0 | 49.46
Neigh   | 0          | 0          | 0          |   0.0 |  0.00
Comm    | 4.3154e-05 | 4.3154e-05 | 4.3154e-05 |   0.0 |  0.03
Output  | 0          | 0          | 0          |   0.0 |  0.00
Modify  | 0          | 0          | 0          |   0.0 |  0.00
Other   |            | 0.0006058  |            |       |  0.35

Nlocal:    223 ave 223 max 223 min
Histogram: 1 0 0 0 0 0 0 0 0 0
Nghost:    0 ave 0 max 0 min
Histogram: 1 0 0 0 0 0 0 0 0 0
Neighs:    12411 ave 12411 max 12411 min
Histogram: 1 0 0 0 0 0 0 0 0 0

Total # of neighbors = 12411
Ave neighs/atom = 55.6547
Ave special neighs/atom = 10.0179
Neighbor list builds = 0
Dangerous builds = 0
write_dump all custom pysimm.dump.tmp id q x y z vx vy vz
quit


################################################################################
##################################    Init    ##################################
################################################################################
units           real
atom_style      full
pair_style      lj/cut/coul/long 12.0  12.0
kspace_style    pppm 1e-4
bond_style      harmonic
angle_style     harmonic
dihedral_style  fourier
improper_style  cvff
special_bonds   amber
pair_modify     mix arithmetic
read_data       temp.lmps
  orthogonal box = (-86.5625 -86.5625 -86.5625) to (86.5625 86.5625 86.5625)
  1 by 1 by 1 MPI processor grid
  reading atoms ...
  240 atoms
  reading velocities ...
  240 velocities
  scanning bonds ...
  4 = max bonds/atom
  scanning angles ...
  6 = max angles/atom
  scanning dihedrals ...
  10 = max dihedrals/atom
  scanning impropers ...
  1 = max impropers/atom
  reading bonds ...
  253 bonds
  reading angles ...
  434 angles
  reading dihedrals ...
  558 dihedrals
  reading impropers ...
  56 impropers
  4 = max # of 1-2 neighbors
  7 = max # of 1-3 neighbors
  17 = max # of 1-4 neighbors
  19 = max # of special neighbors
  special bonds CPU = 0.000303984 secs
  read_data CPU = 0.00917721 secs
################################################################################

min_style cg
minimize 1e-06 1e-06 1000000 10000000
WARNING: Using 'neigh_modify every 1 delay 0 check yes' setting during minimization (../min.cpp:190)
PPPM initialization ...
  using 12-bit tables for long-range coulomb (../kspace.cpp:332)
  G vector (1/distance) = 0.0812685
  grid = 12 12 12
  stencil order = 5
  estimated absolute RMS force accuracy = 0.0351478
  estimated relative force accuracy = 0.000105846
  using double precision KISS FFT
  3d grid and FFT values/proc = 4913 1728
Neighbor list info ...
  update every 1 steps, delay 0 steps, check yes
  max neighbors/atom: 2000, page size: 100000
  master list distance cutoff = 14
  ghost atom cutoff = 14
  binsize = 7, bins = 25 25 25
  1 neighbor lists, perpetual/occasional/extra = 1 0 0
  (1) pair lj/cut/coul/long, perpetual
      attributes: half, newton on
      pair build: half/bin/newton
      stencil: half/bin/3d/newton
      bin: standard
Per MPI rank memory allocation (min/avg/max) = 14.54 | 14.54 | 14.54 Mbytes
Step Temp E_pair E_mol TotEng Press 
       0     941.0874   -508.85252    358.19597    519.78691   0.30286872 
       1     941.0874   -508.85252    358.19597    519.78691   0.30286872 
Loop time of 0.0653229 on 1 procs for 1 steps with 240 atoms

99.5% CPU use with 1 MPI tasks x no OpenMP threads

Minimization stats:
  Stopping criterion = energy tolerance
  Energy initial, next-to-last, final = 
        -150.656552795     -150.656552795     -150.656552795
  Force two-norm initial, final = 5.48284e+14 5.48284e+14
  Force max component initial, final = 3.42133e+14 3.42133e+14
  Final line search alpha, max atom move = 2.59601e-31 8.88178e-17
  Iterations, force evaluations = 1 76

MPI task timing breakdown:
Section |  min time  |  avg time  |  max time  |%varavg| %total
---------------------------------------------------------------
Pair    | 0.026854   | 0.026854   | 0.026854   |   0.0 | 41.11
Bond    | 0.0057497  | 0.0057497  | 0.0057497  |   0.0 |  8.80
Kspace  | 0.032436   | 0.032436   | 0.032436   |   0.0 | 49.65
Neigh   | 0          | 0          | 0          |   0.0 |  0.00
Comm    | 1.2875e-05 | 1.2875e-05 | 1.2875e-05 |   0.0 |  0.02
Output  | 0          | 0          | 0          |   0.0 |  0.00
Modify  | 0          | 0          | 0          |   0.0 |  0.00
Other   |            | 0.0002711  |            |       |  0.41

Nlocal:    240 ave 240 max 240 min
Histogram: 1 0 0 0 0 0 0 0 0 0
Nghost:    0 ave 0 max 0 min
Histogram: 1 0 0 0 0 0 0 0 0 0
Neighs:    11952 ave 11952 max 11952 min
Histogram: 1 0 0 0 0 0 0 0 0 0

Total # of neighbors = 11952
Ave neighs/atom = 49.8
Ave special neighs/atom = 10.025
Neighbor list builds = 0
Dangerous builds = 0
write_dump all custom pysimm.dump.tmp id q x y z vx vy vz
quit


################################################################################
##################################    Init    ##################################
################################################################################
units           real
atom_style      full
pair_style      lj/cut/coul/long 12.0  12.0
kspace_style    pppm 1e-4
bond_style      harmonic
angle_style     harmonic
dihedral_style  fourier
improper_style  cvff
special_bonds   amber
pair_modify     mix arithmetic
read_data       temp.lmps
  orthogonal box = (-88.7274 -88.7274 -88.7274) to (88.7274 88.7274 88.7274)
  1 by 1 by 1 MPI processor grid
  reading atoms ...
  257 atoms
  reading velocities ...
  257 velocities
  scanning bonds ...
  4 = max bonds/atom
  scanning angles ...
  6 = max angles/atom
  scanning dihedrals ...
  10 = max dihedrals/atom
  scanning impropers ...
  1 = max impropers/atom
  reading bonds ...
  271 bonds
  reading angles ...
  465 angles
  reading dihedrals ...
  598 dihedrals
  reading impropers ...
  60 impropers
  4 = max # of 1-2 neighbors
  7 = max # of 1-3 neighbors
  17 = max # of 1-4 neighbors
  19 = max # of special neighbors
  special bonds CPU = 0.000247002 secs
  read_data CPU = 0.00908303 secs
################################################################################

min_style cg
minimize 1e-06 1e-06 1000000 10000000
WARNING: Using 'neigh_modify every 1 delay 0 check yes' setting during minimization (../min.cpp:190)
PPPM initialization ...
  using 12-bit tables for long-range coulomb (../kspace.cpp:332)
  G vector (1/distance) = 0.0944567
  grid = 15 15 15
  stencil order = 5
  estimated absolute RMS force accuracy = 0.025114
  estimated relative force accuracy = 7.56299e-05
  using double precision KISS FFT
  3d grid and FFT values/proc = 8000 3375
Neighbor list info ...
  update every 1 steps, delay 0 steps, check yes
  max neighbors/atom: 2000, page size: 100000
  master list distance cutoff = 14
  ghost atom cutoff = 14
  binsize = 7, bins = 26 26 26
  1 neighbor lists, perpetual/occasional/extra = 1 0 0
  (1) pair lj/cut/coul/long, perpetual
      attributes: half, newton on
      pair build: half/bin/newton
      stencil: half/bin/3d/newton
      bin: standard
Per MPI rank memory allocation (min/avg/max) = 14.81 | 14.81 | 14.81 Mbytes
Step Temp E_pair E_mol TotEng Press 
       0     760.8203    -543.3493    373.64403     410.8671   0.40423215 
       1     760.8203    -543.3493    373.64403     410.8671   0.40423215 
Loop time of 0.099463 on 1 procs for 1 steps with 257 atoms

100.5% CPU use with 1 MPI tasks x no OpenMP threads

Minimization stats:
  Stopping criterion = quadratic factors are zero
  Energy initial, next-to-last, final = 
        -169.705266104     -169.705266104     -169.705266104
  Force two-norm initial, final = 1.03694e+15 1.03694e+15
  Force max component initial, final = 8.08617e+14 8.08617e+14
  Final line search alpha, max atom move = 1.09839e-31 8.88178e-17
  Iterations, force evaluations = 1 82

MPI task timing breakdown:
Section |  min time  |  avg time  |  max time  |%varavg| %total
---------------------------------------------------------------
Pair    | 0.036094   | 0.036094   | 0.036094   |   0.0 | 36.29
Bond    | 0.0064211  | 0.0064211  | 0.0064211  |   0.0 |  6.46
Kspace  | 0.056644   | 0.056644   | 0.056644   |   0.0 | 56.95
Neigh   | 0          | 0          | 0          |   0.0 |  0.00
Comm    | 1.9312e-05 | 1.9312e-05 | 1.9312e-05 |   0.0 |  0.02
Output  | 0          | 0          | 0          |   0.0 |  0.00
Modify  | 0          | 0          | 0          |   0.0 |  0.00
Other   |            | 0.0002851  |            |       |  0.29

Nlocal:    257 ave 257 max 257 min
Histogram: 1 0 0 0 0 0 0 0 0 0
Nghost:    0 ave 0 max 0 min
Histogram: 1 0 0 0 0 0 0 0 0 0
Neighs:    15624 ave 15624 max 15624 min
Histogram: 1 0 0 0 0 0 0 0 0 0

Total # of neighbors = 15624
Ave neighs/atom = 60.7938
Ave special neighs/atom = 10.0311
Neighbor list builds = 0
Dangerous builds = 0
write_dump all custom pysimm.dump.tmp id q x y z vx vy vz
quit


################################################################################
##################################    Init    ##################################
################################################################################
units           real
atom_style      full
pair_style      lj/cut/coul/long 12.0  12.0
kspace_style    pppm 1e-4
bond_style      harmonic
angle_style     harmonic
dihedral_style  fourier
improper_style  cvff
special_bonds   amber
pair_modify     mix arithmetic
read_data       temp.lmps
  orthogonal box = (-90.7916 -90.7916 -90.7916) to (90.7916 90.7916 90.7916)
  1 by 1 by 1 MPI processor grid
  reading atoms ...
  274 atoms
  reading velocities ...
  274 velocities
  scanning bonds ...
  4 = max bonds/atom
  scanning angles ...
  6 = max angles/atom
  scanning dihedrals ...
  10 = max dihedrals/atom
  scanning impropers ...
  1 = max impropers/atom
  reading bonds ...
  289 bonds
  reading angles ...
  496 angles
  reading dihedrals ...
  638 dihedrals
  reading impropers ...
  64 impropers
  4 = max # of 1-2 neighbors
  7 = max # of 1-3 neighbors
  17 = max # of 1-4 neighbors
  19 = max # of special neighbors
  special bonds CPU = 0.00031805 secs
  read_data CPU = 0.00940108 secs
################################################################################

min_style cg
minimize 1e-06 1e-06 1000000 10000000
WARNING: Using 'neigh_modify every 1 delay 0 check yes' setting during minimization (../min.cpp:190)
PPPM initialization ...
  using 12-bit tables for long-range coulomb (../kspace.cpp:332)
  G vector (1/distance) = 0.0928687
  grid = 15 15 15
  stencil order = 5
  estimated absolute RMS force accuracy = 0.0261612
  estimated relative force accuracy = 7.87836e-05
  using double precision KISS FFT
  3d grid and FFT values/proc = 8000 3375
Neighbor list info ...
  update every 1 steps, delay 0 steps, check yes
  max neighbors/atom: 2000, page size: 100000
  master list distance cutoff = 14
  ghost atom cutoff = 14
  binsize = 7, bins = 26 26 26
  1 neighbor lists, perpetual/occasional/extra = 1 0 0
  (1) pair lj/cut/coul/long, perpetual
      attributes: half, newton on
      pair build: half/bin/newton
      stencil: half/bin/3d/newton
      bin: standard
Per MPI rank memory allocation (min/avg/max) = 14.81 | 14.81 | 14.81 Mbytes
Step Temp E_pair E_mol TotEng Press 
       0    761.63547   -580.10628    372.25906    411.94212   0.52098339 
       1    761.63547   -580.10628    372.25906    411.94212   0.52098339 
Loop time of 0.094382 on 1 procs for 1 steps with 274 atoms

100.6% CPU use with 1 MPI tasks x no OpenMP threads

Minimization stats:
  Stopping criterion = quadratic factors are zero
  Energy initial, next-to-last, final = 
        -207.847225438     -207.847225438     -207.847225438
  Force two-norm initial, final = 1.30139e+16 1.30139e+16
  Force max component initial, final = 8.06161e+15 8.06161e+15
  Final line search alpha, max atom move = 2.20348e-32 1.77636e-16
  Iterations, force evaluations = 1 78

MPI task timing breakdown:
Section |  min time  |  avg time  |  max time  |%varavg| %total
---------------------------------------------------------------
Pair    | 0.029999   | 0.029999   | 0.029999   |   0.0 | 31.79
Bond    | 0.0064449  | 0.0064449  | 0.0064449  |   0.0 |  6.83
Kspace  | 0.057643   | 0.057643   | 0.057643   |   0.0 | 61.07
Neigh   | 0          | 0          | 0          |   0.0 |  0.00
Comm    | 1.7166e-05 | 1.7166e-05 | 1.7166e-05 |   0.0 |  0.02
Output  | 0          | 0          | 0          |   0.0 |  0.00
Modify  | 0          | 0          | 0          |   0.0 |  0.00
Other   |            | 0.0002775  |            |       |  0.29

Nlocal:    274 ave 274 max 274 min
Histogram: 1 0 0 0 0 0 0 0 0 0
Nghost:    0 ave 0 max 0 min
Histogram: 1 0 0 0 0 0 0 0 0 0
Neighs:    12848 ave 12848 max 12848 min
Histogram: 1 0 0 0 0 0 0 0 0 0

Total # of neighbors = 12848
Ave neighs/atom = 46.8905
Ave special neighs/atom = 10.0365
Neighbor list builds = 0
Dangerous builds = 0
write_dump all custom pysimm.dump.tmp id q x y z vx vy vz
quit


################################################################################
##################################    Init    ##################################
################################################################################
units           real
atom_style      full
pair_style      lj/cut/coul/long 12.0  12.0
kspace_style    pppm 1e-4
bond_style      harmonic
angle_style     harmonic
dihedral_style  fourier
improper_style  cvff
special_bonds   amber
pair_modify     mix arithmetic
read_data       temp.lmps
  orthogonal box = (-62.9514 -62.9514 -62.9514) to (62.9514 62.9514 62.9514)
  2 by 2 by 4 MPI processor grid
  reading atoms ...
  172 atoms
  reading velocities ...
  172 velocities
  scanning bonds ...
  4 = max bonds/atom
  scanning angles ...
  6 = max angles/atom
  scanning dihedrals ...
  10 = max dihedrals/atom
  scanning impropers ...
  1 = max impropers/atom
  reading bonds ...
  181 bonds
  reading angles ...
  310 angles
  reading dihedrals ...
  398 dihedrals
  reading impropers ...
  40 impropers
  4 = max # of 1-2 neighbors
  7 = max # of 1-3 neighbors
  17 = max # of 1-4 neighbors
  19 = max # of special neighbors
  special bonds CPU = 0.000720024 secs
  read_data CPU = 0.01125 secs
################################################################################

min_style cg
minimize 1e-06 1e-06 1000000 10000000
WARNING: Using 'neigh_modify every 1 delay 0 check yes' setting during minimization (../min.cpp:190)
PPPM initialization ...
  using 12-bit tables for long-range coulomb (../kspace.cpp:332)
  G vector (1/distance) = 0.102977
  grid = 12 12 12
  stencil order = 5
  estimated absolute RMS force accuracy = 0.0268787
  estimated relative force accuracy = 8.09443e-05
  using double precision KISS FFT
  3d grid and FFT values/proc = 968 108
Neighbor list info ...
  update every 1 steps, delay 0 steps, check yes
  max neighbors/atom: 2000, page size: 100000
  master list distance cutoff = 14
  ghost atom cutoff = 14
  binsize = 7, bins = 18 18 18
  1 neighbor lists, perpetual/occasional/extra = 1 0 0
  (1) pair lj/cut/coul/long, perpetual
      attributes: half, newton on
      pair build: half/bin/newton
      stencil: half/bin/3d/newton
      bin: standard
Per MPI rank memory allocation (min/avg/max) = 14 | 14.22 | 14.78 Mbytes
Step Temp E_pair E_mol TotEng Press 
       0    311.97632   -368.28658    316.20706    106.94058    -9.650604 
      46    311.97632   -370.16942       50.933   -160.21632    2.6014347 
Loop time of 0.0980339 on 16 procs for 46 steps with 172 atoms

95.8% CPU use with 16 MPI tasks x no OpenMP threads

Minimization stats:
  Stopping criterion = linesearch alpha is zero
  Energy initial, next-to-last, final = 
        -52.0795279605     -319.236423913     -319.236423913
  Force two-norm initial, final = 4.66569e+15 20.016
  Force max component initial, final = 3.54279e+15 4.56069
  Final line search alpha, max atom move = 2.82178e-11 1.28693e-10
  Iterations, force evaluations = 46 167

MPI task timing breakdown:
Section |  min time  |  avg time  |  max time  |%varavg| %total
---------------------------------------------------------------
Pair    | 3.2187e-05 | 0.007373   | 0.040087   |  14.3 |  7.52
Bond    | 6.175e-05  | 0.0017153  | 0.0097983  |   6.9 |  1.75
Kspace  | 0.042595   | 0.084154   | 0.093924   |   5.4 | 85.84
Neigh   | 0.00022411 | 0.0002477  | 0.00026703 |   0.0 |  0.25
Comm    | 9.6798e-05 | 0.0015698  | 0.0034416  |   3.7 |  1.60
Output  | 0          | 0          | 0          |   0.0 |  0.00
Modify  | 0          | 0          | 0          |   0.0 |  0.00
Other   |            | 0.002974   |            |       |  3.03

Nlocal:    10.75 ave 60 max 0 min
Histogram: 11 0 1 0 2 0 0 1 0 1
Nghost:    73 ave 172 max 0 min
Histogram: 8 0 0 0 0 0 2 1 1 4
Neighs:    528.438 ave 2950 max 0 min
Histogram: 10 2 0 1 0 1 0 1 0 1

Total # of neighbors = 8455
Ave neighs/atom = 49.157
Ave special neighs/atom = 9.98837
Neighbor list builds = 1
Dangerous builds = 0
write_dump all custom pysimm.dump.tmp id q x y z vx vy vz
quit


################################################################################
##################################    Init    ##################################
################################################################################
units           real
atom_style      full
pair_style      lj/cut/coul/long 12.0  12.0
kspace_style    pppm 1e-4
bond_style      harmonic
angle_style     harmonic
dihedral_style  fourier
improper_style  cvff
special_bonds   amber
pair_modify     mix arithmetic
read_data       temp.lmps
  orthogonal box = (-79.3138 -79.3138 -79.3138) to (79.3138 79.3138 79.3138)
  2 by 2 by 4 MPI processor grid
  reading atoms ...
  189 atoms
  reading velocities ...
  189 velocities
  scanning bonds ...
  4 = max bonds/atom
  scanning angles ...
  6 = max angles/atom
  scanning dihedrals ...
  10 = max dihedrals/atom
  scanning impropers ...
  1 = max impropers/atom
  reading bonds ...
  199 bonds
  reading angles ...
  341 angles
  reading dihedrals ...
  438 dihedrals
  reading impropers ...
  44 impropers
  4 = max # of 1-2 neighbors
  7 = max # of 1-3 neighbors
  17 = max # of 1-4 neighbors
  19 = max # of special neighbors
  special bonds CPU = 0.000771999 secs
  read_data CPU = 0.0122929 secs
################################################################################

min_style cg
minimize 1e-06 1e-06 1000000 10000000
WARNING: Using 'neigh_modify every 1 delay 0 check yes' setting during minimization (../min.cpp:190)
PPPM initialization ...
  using 12-bit tables for long-range coulomb (../kspace.cpp:332)
  G vector (1/distance) = 0.0869335
  grid = 12 12 12
  stencil order = 5
  estimated absolute RMS force accuracy = 0.0309284
  estimated relative force accuracy = 9.31401e-05
  using double precision KISS FFT
  3d grid and FFT values/proc = 968 108
Neighbor list info ...
  update every 1 steps, delay 0 steps, check yes
  max neighbors/atom: 2000, page size: 100000
  master list distance cutoff = 14
  ghost atom cutoff = 14
  binsize = 7, bins = 23 23 23
  1 neighbor lists, perpetual/occasional/extra = 1 0 0
  (1) pair lj/cut/coul/long, perpetual
      attributes: half, newton on
      pair build: half/bin/newton
      stencil: half/bin/3d/newton
      bin: standard
Per MPI rank memory allocation (min/avg/max) = 14 | 14.26 | 14.78 Mbytes
Step Temp E_pair E_mol TotEng Press 
       0    643.47969   -399.47395    343.95813    305.08524   -4.6476652 
       1    643.47969   -399.47395    343.95813    305.08524   -4.6476652 
Loop time of 0.040969 on 16 procs for 1 steps with 189 atoms

96.4% CPU use with 16 MPI tasks x no OpenMP threads

Minimization stats:
  Stopping criterion = energy tolerance
  Energy initial, next-to-last, final = 
         -55.515814699      -55.515814699      -55.515814699
  Force two-norm initial, final = 2.65603e+13 2.65603e+13
  Force max component initial, final = 1.67385e+13 1.67385e+13
  Final line search alpha, max atom move = 1.06124e-29 1.77636e-16
  Iterations, force evaluations = 1 84

MPI task timing breakdown:
Section |  min time  |  avg time  |  max time  |%varavg| %total
---------------------------------------------------------------
Pair    | 1.1444e-05 | 0.0031392  | 0.015881   |   8.8 |  7.66
Bond    | 3.5524e-05 | 0.0008076  | 0.0031369  |   0.0 |  1.97
Kspace  | 0.019829   | 0.034916   | 0.039191   |   3.3 | 85.23
Neigh   | 0          | 0          | 0          |   0.0 |  0.00
Comm    | 4.6968e-05 | 0.0007751  | 0.0016258  |   0.0 |  1.89
Output  | 0          | 0          | 0          |   0.0 |  0.00
Modify  | 0          | 0          | 0          |   0.0 |  0.00
Other   |            | 0.001331   |            |       |  3.25

Nlocal:    11.8125 ave 61 max 0 min
Histogram: 11 0 0 1 1 0 2 0 0 1
Nghost:    65.0625 ave 157 max 0 min
Histogram: 8 0 0 0 0 0 1 3 1 3
Neighs:    496.625 ave 2714 max 0 min
Histogram: 11 1 0 1 0 1 0 0 1 1

Total # of neighbors = 7946
Ave neighs/atom = 42.0423
Ave special neighs/atom = 10
Neighbor list builds = 0
Dangerous builds = 0
write_dump all custom pysimm.dump.tmp id q x y z vx vy vz
quit


################################################################################
##################################    Init    ##################################
################################################################################
units           real
atom_style      full
pair_style      lj/cut/coul/long 12.0  12.0
kspace_style    pppm 1e-4
bond_style      harmonic
angle_style     harmonic
dihedral_style  fourier
improper_style  cvff
special_bonds   amber
pair_modify     mix arithmetic
read_data       temp.lmps
  orthogonal box = (-81.874 -81.874 -81.874) to (81.874 81.874 81.874)
  2 by 2 by 4 MPI processor grid
  reading atoms ...
  206 atoms
  reading velocities ...
  206 velocities
  scanning bonds ...
  4 = max bonds/atom
  scanning angles ...
  6 = max angles/atom
  scanning dihedrals ...
  10 = max dihedrals/atom
  scanning impropers ...
  1 = max impropers/atom
  reading bonds ...
  217 bonds
  reading angles ...
  372 angles
  reading dihedrals ...
  478 dihedrals
  reading impropers ...
  48 impropers
  4 = max # of 1-2 neighbors
  7 = max # of 1-3 neighbors
  17 = max # of 1-4 neighbors
  19 = max # of special neighbors
  special bonds CPU = 0.00069499 secs
  read_data CPU = 0.011658 secs
################################################################################

min_style cg
minimize 1e-06 1e-06 1000000 10000000
WARNING: Using 'neigh_modify every 1 delay 0 check yes' setting during minimization (../min.cpp:190)
PPPM initialization ...
  using 12-bit tables for long-range coulomb (../kspace.cpp:332)
  G vector (1/distance) = 0.0848473
  grid = 12 12 12
  stencil order = 5
  estimated absolute RMS force accuracy = 0.0324459
  estimated relative force accuracy = 9.77098e-05
  using double precision KISS FFT
  3d grid and FFT values/proc = 968 108
Neighbor list info ...
  update every 1 steps, delay 0 steps, check yes
  max neighbors/atom: 2000, page size: 100000
  master list distance cutoff = 14
  ghost atom cutoff = 14
  binsize = 7, bins = 24 24 24
  1 neighbor lists, perpetual/occasional/extra = 1 0 0
  (1) pair lj/cut/coul/long, perpetual
      attributes: half, newton on
      pair build: half/bin/newton
      stencil: half/bin/3d/newton
      bin: standard
Per MPI rank memory allocation (min/avg/max) = 14 | 14.29 | 14.78 Mbytes
Step Temp E_pair E_mol TotEng Press 
       0     1018.475   -433.68747    361.69658    550.36462   0.69667138 
       3     1018.475   -433.68747    358.25096      546.919   0.69683406 
Loop time of 0.0670427 on 16 procs for 3 steps with 206 atoms

94.0% CPU use with 16 MPI tasks x no OpenMP threads

Minimization stats:
  Stopping criterion = energy tolerance
  Energy initial, next-to-last, final = 
        -71.9908900746     -75.4364439084     -75.4365114405
  Force two-norm initial, final = 1.79101e+15 2.48511e+06
  Force max component initial, final = 1.31179e+15 1.585e+06
  Final line search alpha, max atom move = 3.59416e-16 5.69674e-10
  Iterations, force evaluations = 3 110

MPI task timing breakdown:
Section |  min time  |  avg time  |  max time  |%varavg| %total
---------------------------------------------------------------
Pair    | 2.0266e-05 | 0.006706   | 0.03337    |  11.4 | 10.00
Bond    | 3.767e-05  | 0.0013667  | 0.0044129  |   4.3 |  2.04
Kspace  | 0.026276   | 0.056041   | 0.064666   |   4.7 | 83.59
Neigh   | 0          | 0          | 0          |   0.0 |  0.00
Comm    | 4.9114e-05 | 0.0011908  | 0.0026066  |   3.3 |  1.78
Output  | 0          | 0          | 0          |   0.0 |  0.00
Modify  | 0          | 0          | 0          |   0.0 |  0.00
Other   |            | 0.001738   |            |       |  2.59

Nlocal:    12.875 ave 44 max 0 min
Histogram: 8 1 1 1 1 0 1 1 0 2
Nghost:    88.875 ave 200 max 0 min
Histogram: 8 0 0 0 0 0 0 1 3 4
Neighs:    769.688 ave 3889 max 0 min
Histogram: 10 0 1 1 2 1 0 0 0 1

Total # of neighbors = 12315
Ave neighs/atom = 59.7816
Ave special neighs/atom = 10.0097
Neighbor list builds = 0
Dangerous builds = 0
write_dump all custom pysimm.dump.tmp id q x y z vx vy vz
quit


################################################################################
##################################    Init    ##################################
################################################################################
units           real
atom_style      full
pair_style      lj/cut/coul/long 12.0  12.0
kspace_style    pppm 1e-4
bond_style      harmonic
angle_style     harmonic
dihedral_style  fourier
improper_style  cvff
special_bonds   amber
pair_modify     mix arithmetic
read_data       temp.lmps
  orthogonal box = (-62.9514 -62.9514 -62.9514) to (62.9514 62.9514 62.9514)
  2 by 2 by 4 MPI processor grid
  reading atoms ...
  172 atoms
  reading velocities ...
  172 velocities
  scanning bonds ...
  4 = max bonds/atom
  scanning angles ...
  6 = max angles/atom
  scanning dihedrals ...
  10 = max dihedrals/atom
  scanning impropers ...
  1 = max impropers/atom
  reading bonds ...
  181 bonds
  reading angles ...
  310 angles
  reading dihedrals ...
  398 dihedrals
  reading impropers ...
  40 impropers
  4 = max # of 1-2 neighbors
  7 = max # of 1-3 neighbors
  17 = max # of 1-4 neighbors
  19 = max # of special neighbors
  special bonds CPU = 0.00141311 secs
  read_data CPU = 0.012135 secs
################################################################################

min_style cg
minimize 1e-06 1e-06 1000000 10000000
WARNING: Using 'neigh_modify every 1 delay 0 check yes' setting during minimization (../min.cpp:190)
PPPM initialization ...
  using 12-bit tables for long-range coulomb (../kspace.cpp:332)
  G vector (1/distance) = 0.102977
  grid = 12 12 12
  stencil order = 5
  estimated absolute RMS force accuracy = 0.0268787
  estimated relative force accuracy = 8.09443e-05
  using double precision KISS FFT
  3d grid and FFT values/proc = 968 108
Neighbor list info ...
  update every 1 steps, delay 0 steps, check yes
  max neighbors/atom: 2000, page size: 100000
  master list distance cutoff = 14
  ghost atom cutoff = 14
  binsize = 7, bins = 18 18 18
  1 neighbor lists, perpetual/occasional/extra = 1 0 0
  (1) pair lj/cut/coul/long, perpetual
      attributes: half, newton on
      pair build: half/bin/newton
      stencil: half/bin/3d/newton
      bin: standard
Per MPI rank memory allocation (min/avg/max) = 14 | 14.19 | 14.78 Mbytes
Step Temp E_pair E_mol TotEng Press 
       0    294.37297   -365.25918    328.50001    113.28818   -10.865548 
       4    294.37297   -365.25918    326.26194    111.05011   -10.865548 
Loop time of 0.0682648 on 16 procs for 4 steps with 172 atoms

94.4% CPU use with 16 MPI tasks x no OpenMP threads

Minimization stats:
  Stopping criterion = energy tolerance
  Energy initial, next-to-last, final = 
        -36.7591712409     -38.9972196418     -38.9972438634
  Force two-norm initial, final = 7.8836e+15 21987.8
  Force max component initial, final = 6.26889e+15 14887.2
  Final line search alpha, max atom move = 2.51042e-12 3.73731e-08
  Iterations, force evaluations = 4 116

MPI task timing breakdown:
Section |  min time  |  avg time  |  max time  |%varavg| %total
---------------------------------------------------------------
Pair    | 2.0266e-05 | 0.00393    | 0.027125   |  11.6 |  5.76
Bond    | 4.3392e-05 | 0.00096412 | 0.0070469  |   0.0 |  1.41
Kspace  | 0.030764   | 0.060608   | 0.06594    |   3.8 | 88.78
Neigh   | 0          | 0          | 0          |   0.0 |  0.00
Comm    | 5.4836e-05 | 0.0010468  | 0.0022035  |   3.0 |  1.53
Output  | 0          | 0          | 0          |   0.0 |  0.00
Modify  | 0          | 0          | 0          |   0.0 |  0.00
Other   |            | 0.001716   |            |       |  2.51

Nlocal:    10.75 ave 63 max 0 min
Histogram: 11 1 1 1 0 0 0 0 1 1
Nghost:    68.125 ave 155 max 0 min
Histogram: 8 0 0 0 0 0 2 0 1 5
Neighs:    458.125 ave 2436 max 0 min
Histogram: 11 1 0 1 0 0 1 1 0 1

Total # of neighbors = 7330
Ave neighs/atom = 42.6163
Ave special neighs/atom = 9.98837
Neighbor list builds = 0
Dangerous builds = 0
write_dump all custom pysimm.dump.tmp id q x y z vx vy vz
quit


################################################################################
##################################    Init    ##################################
################################################################################
units           real
atom_style      full
pair_style      lj/cut/coul/long 12.0  12.0
kspace_style    pppm 1e-4
bond_style      harmonic
angle_style     harmonic
dihedral_style  fourier
improper_style  cvff
special_bonds   amber
pair_modify     mix arithmetic
read_data       temp.lmps
  orthogonal box = (-62.9514 -62.9514 -62.9514) to (62.9514 62.9514 62.9514)
  1 by 1 by 1 MPI processor grid
  reading atoms ...
  172 atoms
  reading velocities ...
  172 velocities
  scanning bonds ...
  4 = max bonds/atom
  scanning angles ...
  6 = max angles/atom
  scanning dihedrals ...
  10 = max dihedrals/atom
  scanning impropers ...
  1 = max impropers/atom
  reading bonds ...
  181 bonds
  reading angles ...
  310 angles
  reading dihedrals ...
  398 dihedrals
  reading impropers ...
  40 impropers
  4 = max # of 1-2 neighbors
  7 = max # of 1-3 neighbors
  17 = max # of 1-4 neighbors
  19 = max # of special neighbors
  special bonds CPU = 0.000611067 secs
  read_data CPU = 0.00849891 secs
################################################################################

min_style cg
minimize 1e-06 1e-06 1000000 10000000
WARNING: Using 'neigh_modify every 1 delay 0 check yes' setting during minimization (../min.cpp:190)
PPPM initialization ...
  using 12-bit tables for long-range coulomb (../kspace.cpp:332)
  G vector (1/distance) = 0.102977
  grid = 12 12 12
  stencil order = 5
  estimated absolute RMS force accuracy = 0.0268787
  estimated relative force accuracy = 8.09443e-05
  using double precision KISS FFT
  3d grid and FFT values/proc = 4913 1728
Neighbor list info ...
  update every 1 steps, delay 0 steps, check yes
  max neighbors/atom: 2000, page size: 100000
  master list distance cutoff = 14
  ghost atom cutoff = 14
  binsize = 7, bins = 18 18 18
  1 neighbor lists, perpetual/occasional/extra = 1 0 0
  (1) pair lj/cut/coul/long, perpetual
      attributes: half, newton on
      pair build: half/bin/newton
      stencil: half/bin/3d/newton
      bin: standard
Per MPI rank memory allocation (min/avg/max) = 14.47 | 14.47 | 14.47 Mbytes
Step Temp E_pair E_mol TotEng Press 
       0    305.52293   -374.32379    323.55437    104.96127   -8.0951564 
       2    305.52293   -374.32379    323.15455    104.56145   -8.0956037 
Loop time of 0.363515 on 1 procs for 2 steps with 172 atoms

100.4% CPU use with 1 MPI tasks x no OpenMP threads

Minimization stats:
  Stopping criterion = quadratic factors are zero
  Energy initial, next-to-last, final = 
        -50.7694222673     -51.1692442036     -51.1692442036
  Force two-norm initial, final = 3.88677e+15 1.99936e+15
  Force max component initial, final = 2.97625e+15 1.58e+15
  Final line search alpha, max atom move = 5.62136e-32 8.88178e-17
  Iterations, force evaluations = 2 171

MPI task timing breakdown:
Section |  min time  |  avg time  |  max time  |%varavg| %total
---------------------------------------------------------------
Pair    | 0.16391    | 0.16391    | 0.16391    |   0.0 | 45.09
Bond    | 0.023787   | 0.023787   | 0.023787   |   0.0 |  6.54
Kspace  | 0.17462    | 0.17462    | 0.17462    |   0.0 | 48.04
Neigh   | 0          | 0          | 0          |   0.0 |  0.00
Comm    | 8.5831e-05 | 8.5831e-05 | 8.5831e-05 |   0.0 |  0.02
Output  | 0          | 0          | 0          |   0.0 |  0.00
Modify  | 0          | 0          | 0          |   0.0 |  0.00
Other   |            | 0.001114   |            |       |  0.31

Nlocal:    172 ave 172 max 172 min
Histogram: 1 0 0 0 0 0 0 0 0 0
Nghost:    0 ave 0 max 0 min
Histogram: 1 0 0 0 0 0 0 0 0 0
Neighs:    12552 ave 12552 max 12552 min
Histogram: 1 0 0 0 0 0 0 0 0 0

Total # of neighbors = 12552
Ave neighs/atom = 72.9767
Ave special neighs/atom = 9.98837
Neighbor list builds = 0
Dangerous builds = 0
write_dump all custom pysimm.dump.tmp id q x y z vx vy vz
quit


################################################################################
##################################    Init    ##################################
################################################################################
units           real
atom_style      full
pair_style      lj/cut/coul/long 12.0  12.0
kspace_style    pppm 1e-4
bond_style      harmonic
angle_style     harmonic
dihedral_style  fourier
improper_style  cvff
special_bonds   amber
pair_modify     mix arithmetic
read_data       temp.lmps
  orthogonal box = (-79.3138 -79.3138 -79.3138) to (79.3138 79.3138 79.3138)
  1 by 1 by 1 MPI processor grid
  reading atoms ...
  189 atoms
  reading velocities ...
  189 velocities
  scanning bonds ...
  4 = max bonds/atom
  scanning angles ...
  6 = max angles/atom
  scanning dihedrals ...
  10 = max dihedrals/atom
  scanning impropers ...
  1 = max impropers/atom
  reading bonds ...
  199 bonds
  reading angles ...
  341 angles
  reading dihedrals ...
  438 dihedrals
  reading impropers ...
  44 impropers
  4 = max # of 1-2 neighbors
  7 = max # of 1-3 neighbors
  17 = max # of 1-4 neighbors
  19 = max # of special neighbors
  special bonds CPU = 0.000365973 secs
  read_data CPU = 0.00948787 secs
################################################################################

min_style cg
minimize 1e-06 1e-06 1000000 10000000
WARNING: Using 'neigh_modify every 1 delay 0 check yes' setting during minimization (../min.cpp:190)
PPPM initialization ...
  using 12-bit tables for long-range coulomb (../kspace.cpp:332)
  G vector (1/distance) = 0.0869335
  grid = 12 12 12
  stencil order = 5
  estimated absolute RMS force accuracy = 0.0309284
  estimated relative force accuracy = 9.31401e-05
  using double precision KISS FFT
  3d grid and FFT values/proc = 4913 1728
Neighbor list info ...
  update every 1 steps, delay 0 steps, check yes
  max neighbors/atom: 2000, page size: 100000
  master list distance cutoff = 14
  ghost atom cutoff = 14
  binsize = 7, bins = 23 23 23
  1 neighbor lists, perpetual/occasional/extra = 1 0 0
  (1) pair lj/cut/coul/long, perpetual
      attributes: half, newton on
      pair build: half/bin/newton
      stencil: half/bin/3d/newton
      bin: standard
Per MPI rank memory allocation (min/avg/max) = 14.51 | 14.51 | 14.51 Mbytes
Step Temp E_pair E_mol TotEng Press 
       0    718.02667   -399.31332    333.04932    336.11261   -1.6626196 
       3    718.02667   -399.31332    332.86858    335.93187   -1.6631285 
Loop time of 0.242839 on 1 procs for 3 steps with 189 atoms

100.1% CPU use with 1 MPI tasks x no OpenMP threads

Minimization stats:
  Stopping criterion = energy tolerance
  Energy initial, next-to-last, final = 
        -66.2639990237     -66.4447390733     -66.4447390733
  Force two-norm initial, final = 1.23255e+15 7.55035e+13
  Force max component initial, final = 9.11244e+14 4.98746e+13
  Final line search alpha, max atom move = 3.56165e-30 1.77636e-16
  Iterations, force evaluations = 3 244

MPI task timing breakdown:
Section |  min time  |  avg time  |  max time  |%varavg| %total
---------------------------------------------------------------
Pair    | 0.092296   | 0.092296   | 0.092296   |   0.0 | 38.01
Bond    | 0.019174   | 0.019174   | 0.019174   |   0.0 |  7.90
Kspace  | 0.13041    | 0.13041    | 0.13041    |   0.0 | 53.70
Neigh   | 0          | 0          | 0          |   0.0 |  0.00
Comm    | 6.5565e-05 | 6.5565e-05 | 6.5565e-05 |   0.0 |  0.03
Output  | 0          | 0          | 0          |   0.0 |  0.00
Modify  | 0          | 0          | 0          |   0.0 |  0.00
Other   |            | 0.0008979  |            |       |  0.37

Nlocal:    189 ave 189 max 189 min
Histogram: 1 0 0 0 0 0 0 0 0 0
Nghost:    0 ave 0 max 0 min
Histogram: 1 0 0 0 0 0 0 0 0 0
Neighs:    9423 ave 9423 max 9423 min
Histogram: 1 0 0 0 0 0 0 0 0 0

Total # of neighbors = 9423
Ave neighs/atom = 49.8571
Ave special neighs/atom = 10
Neighbor list builds = 0
Dangerous builds = 0
write_dump all custom pysimm.dump.tmp id q x y z vx vy vz
quit


################################################################################
##################################    Init    ##################################
################################################################################
units           real
atom_style      full
pair_style      lj/cut/coul/long 12.0  12.0
kspace_style    pppm 1e-4
bond_style      harmonic
angle_style     harmonic
dihedral_style  fourier
improper_style  cvff
special_bonds   amber
pair_modify     mix arithmetic
read_data       temp.lmps
  orthogonal box = (-81.874 -81.874 -81.874) to (81.874 81.874 81.874)
  1 by 1 by 1 MPI processor grid
  reading atoms ...
  206 atoms
  reading velocities ...
  206 velocities
  scanning bonds ...
  4 = max bonds/atom
  scanning angles ...
  6 = max angles/atom
  scanning dihedrals ...
  10 = max dihedrals/atom
  scanning impropers ...
  1 = max impropers/atom
  reading bonds ...
  217 bonds
  reading angles ...
  372 angles
  reading dihedrals ...
  478 dihedrals
  reading impropers ...
  48 impropers
  4 = max # of 1-2 neighbors
  7 = max # of 1-3 neighbors
  17 = max # of 1-4 neighbors
  19 = max # of special neighbors
  special bonds CPU = 0.000999928 secs
  read_data CPU = 0.0081439 secs
################################################################################

min_style cg
minimize 1e-06 1e-06 1000000 10000000
WARNING: Using 'neigh_modify every 1 delay 0 check yes' setting during minimization (../min.cpp:190)
PPPM initialization ...
  using 12-bit tables for long-range coulomb (../kspace.cpp:332)
  G vector (1/distance) = 0.0848473
  grid = 12 12 12
  stencil order = 5
  estimated absolute RMS force accuracy = 0.0324459
  estimated relative force accuracy = 9.77098e-05
  using double precision KISS FFT
  3d grid and FFT values/proc = 4913 1728
Neighbor list info ...
  update every 1 steps, delay 0 steps, check yes
  max neighbors/atom: 2000, page size: 100000
  master list distance cutoff = 14
  ghost atom cutoff = 14
  binsize = 7, bins = 24 24 24
  1 neighbor lists, perpetual/occasional/extra = 1 0 0
  (1) pair lj/cut/coul/long, perpetual
      attributes: half, newton on
      pair build: half/bin/newton
      stencil: half/bin/3d/newton
      bin: standard
Per MPI rank memory allocation (min/avg/max) = 14.52 | 14.52 | 14.52 Mbytes
Step Temp E_pair E_mol TotEng Press 
       0    676.05018   -437.55285    339.19812    314.75659   -2.4215419 
       5    676.05018   -437.55285    337.77742    313.33589   -2.4242063 
Loop time of 0.273653 on 1 procs for 5 steps with 206 atoms

99.7% CPU use with 1 MPI tasks x no OpenMP threads

Minimization stats:
  Stopping criterion = energy tolerance
  Energy initial, next-to-last, final = 
        -98.3547262944      -99.775342377     -99.7754256583
  Force two-norm initial, final = 1.55779e+16 111886
  Force max component initial, final = 1.21343e+16 63587.3
  Final line search alpha, max atom move = 3.39373e-15 2.15798e-10
  Iterations, force evaluations = 5 216

MPI task timing breakdown:
Section |  min time  |  avg time  |  max time  |%varavg| %total
---------------------------------------------------------------
Pair    | 0.10608    | 0.10608    | 0.10608    |   0.0 | 38.76
Bond    | 0.022926   | 0.022926   | 0.022926   |   0.0 |  8.38
Kspace  | 0.14351    | 0.14351    | 0.14351    |   0.0 | 52.44
Neigh   | 0          | 0          | 0          |   0.0 |  0.00
Comm    | 8.5115e-05 | 8.5115e-05 | 8.5115e-05 |   0.0 |  0.03
Output  | 0          | 0          | 0          |   0.0 |  0.00
Modify  | 0          | 0          | 0          |   0.0 |  0.00
Other   |            | 0.001059   |            |       |  0.39

Nlocal:    206 ave 206 max 206 min
Histogram: 1 0 0 0 0 0 0 0 0 0
Nghost:    0 ave 0 max 0 min
Histogram: 1 0 0 0 0 0 0 0 0 0
Neighs:    9908 ave 9908 max 9908 min
Histogram: 1 0 0 0 0 0 0 0 0 0

Total # of neighbors = 9908
Ave neighs/atom = 48.0971
Ave special neighs/atom = 10.0097
Neighbor list builds = 0
Dangerous builds = 0
write_dump all custom pysimm.dump.tmp id q x y z vx vy vz
quit


################################################################################
##################################    Init    ##################################
################################################################################
units           real
atom_style      full
pair_style      lj/cut/coul/long 12.0  12.0
kspace_style    pppm 1e-4
bond_style      harmonic
angle_style     harmonic
dihedral_style  fourier
improper_style  cvff
special_bonds   amber
pair_modify     mix arithmetic
read_data       temp.lmps
  orthogonal box = (-84.2834 -84.2834 -84.2834) to (84.2834 84.2834 84.2834)
  1 by 1 by 1 MPI processor grid
  reading atoms ...
  223 atoms
  reading velocities ...
  223 velocities
  scanning bonds ...
  4 = max bonds/atom
  scanning angles ...
  6 = max angles/atom
  scanning dihedrals ...
  10 = max dihedrals/atom
  scanning impropers ...
  1 = max impropers/atom
  reading bonds ...
  235 bonds
  reading angles ...
  403 angles
  reading dihedrals ...
  518 dihedrals
  reading impropers ...
  52 impropers
  4 = max # of 1-2 neighbors
  7 = max # of 1-3 neighbors
  17 = max # of 1-4 neighbors
  19 = max # of special neighbors
  special bonds CPU = 0.00134301 secs
  read_data CPU = 0.0116398 secs
################################################################################

min_style cg
minimize 1e-06 1e-06 1000000 10000000
WARNING: Using 'neigh_modify every 1 delay 0 check yes' setting during minimization (../min.cpp:190)
PPPM initialization ...
  using 12-bit tables for long-range coulomb (../kspace.cpp:332)
  G vector (1/distance) = 0.08297
  grid = 12 12 12
  stencil order = 5
  estimated absolute RMS force accuracy = 0.0338463
  estimated relative force accuracy = 0.000101927
  using double precision KISS FFT
  3d grid and FFT values/proc = 4913 1728
Neighbor list info ...
  update every 1 steps, delay 0 steps, check yes
  max neighbors/atom: 2000, page size: 100000
  master list distance cutoff = 14
  ghost atom cutoff = 14
  binsize = 7, bins = 25 25 25
  1 neighbor lists, perpetual/occasional/extra = 1 0 0
  (1) pair lj/cut/coul/long, perpetual
      attributes: half, newton on
      pair build: half/bin/newton
      stencil: half/bin/3d/newton
      bin: standard
Per MPI rank memory allocation (min/avg/max) = 14.53 | 14.53 | 14.53 Mbytes
Step Temp E_pair E_mol TotEng Press 
       0      728.719   -473.96962    368.34225    376.59501  -0.80622869 
       1      728.719   -473.96962    368.34225    376.59501  -0.80622869 
Loop time of 0.196096 on 1 procs for 1 steps with 223 atoms

100.4% CPU use with 1 MPI tasks x no OpenMP threads

Minimization stats:
  Stopping criterion = quadratic factors are zero
  Energy initial, next-to-last, final = 
        -105.627371793     -105.627371793     -105.627371793
  Force two-norm initial, final = 1.82141e+15 1.82141e+15
  Force max component initial, final = 1.46532e+15 1.46532e+15
  Final line search alpha, max atom move = 2.42453e-31 3.55271e-16
  Iterations, force evaluations = 1 88

MPI task timing breakdown:
Section |  min time  |  avg time  |  max time  |%varavg| %total
---------------------------------------------------------------
Pair    | 0.077226   | 0.077226   | 0.077226   |   0.0 | 39.38
Bond    | 0.017145   | 0.017145   | 0.017145   |   0.0 |  8.74
Kspace  | 0.10094    | 0.10094    | 0.10094    |   0.0 | 51.48
Neigh   | 0          | 0          | 0          |   0.0 |  0.00
Comm    | 5.5552e-05 | 5.5552e-05 | 5.5552e-05 |   0.0 |  0.03
Output  | 0          | 0          | 0          |   0.0 |  0.00
Modify  | 0          | 0          | 0          |   0.0 |  0.00
Other   |            | 0.000725   |            |       |  0.37

Nlocal:    223 ave 223 max 223 min
Histogram: 1 0 0 0 0 0 0 0 0 0
Nghost:    0 ave 0 max 0 min
Histogram: 1 0 0 0 0 0 0 0 0 0
Neighs:    10813 ave 10813 max 10813 min
Histogram: 1 0 0 0 0 0 0 0 0 0

Total # of neighbors = 10813
Ave neighs/atom = 48.4888
Ave special neighs/atom = 10.0179
Neighbor list builds = 0
Dangerous builds = 0
write_dump all custom pysimm.dump.tmp id q x y z vx vy vz
quit


################################################################################
##################################    Init    ##################################
################################################################################
units           real
atom_style      full
pair_style      lj/cut/coul/long 12.0  12.0
kspace_style    pppm 1e-4
bond_style      harmonic
angle_style     harmonic
dihedral_style  fourier
improper_style  cvff
special_bonds   amber
pair_modify     mix arithmetic
read_data       temp.lmps
  orthogonal box = (-86.5625 -86.5625 -86.5625) to (86.5625 86.5625 86.5625)
  1 by 1 by 1 MPI processor grid
  reading atoms ...
  240 atoms
  reading velocities ...
  240 velocities
  scanning bonds ...
  4 = max bonds/atom
  scanning angles ...
  6 = max angles/atom
  scanning dihedrals ...
  10 = max dihedrals/atom
  scanning impropers ...
  1 = max impropers/atom
  reading bonds ...
  253 bonds
  reading angles ...
  434 angles
  reading dihedrals ...
  558 dihedrals
  reading impropers ...
  56 impropers
  4 = max # of 1-2 neighbors
  7 = max # of 1-3 neighbors
  17 = max # of 1-4 neighbors
  19 = max # of special neighbors
  special bonds CPU = 0.000576019 secs
  read_data CPU = 0.00929403 secs
################################################################################

min_style cg
minimize 1e-06 1e-06 1000000 10000000
WARNING: Using 'neigh_modify every 1 delay 0 check yes' setting during minimization (../min.cpp:190)
PPPM initialization ...
  using 12-bit tables for long-range coulomb (../kspace.cpp:332)
  G vector (1/distance) = 0.0812685
  grid = 12 12 12
  stencil order = 5
  estimated absolute RMS force accuracy = 0.0351478
  estimated relative force accuracy = 0.000105846
  using double precision KISS FFT
  3d grid and FFT values/proc = 4913 1728
Neighbor list info ...
  update every 1 steps, delay 0 steps, check yes
  max neighbors/atom: 2000, page size: 100000
  master list distance cutoff = 14
  ghost atom cutoff = 14
  binsize = 7, bins = 25 25 25
  1 neighbor lists, perpetual/occasional/extra = 1 0 0
  (1) pair lj/cut/coul/long, perpetual
      attributes: half, newton on
      pair build: half/bin/newton
      stencil: half/bin/3d/newton
      bin: standard
Per MPI rank memory allocation (min/avg/max) = 14.54 | 14.54 | 14.54 Mbytes
Step Temp E_pair E_mol TotEng Press 
       0    738.73201   -510.08472    364.58369     380.7817   -0.8165219 
      32    738.73201   -508.99582    97.358874    114.64579    4.4163438 
Loop time of 0.410351 on 1 procs for 32 steps with 240 atoms

99.7% CPU use with 1 MPI tasks x no OpenMP threads

Minimization stats:
  Stopping criterion = linesearch alpha is zero
  Energy initial, next-to-last, final = 
        -145.501037019     -411.636945396     -411.636945396
  Force two-norm initial, final = 3.02385e+16 29.5259
  Force max component initial, final = 2.15391e+16 5.83085
  Final line search alpha, max atom move = 9.70214e-12 5.65718e-11
  Iterations, force evaluations = 32 175

MPI task timing breakdown:
Section |  min time  |  avg time  |  max time  |%varavg| %total
---------------------------------------------------------------
Pair    | 0.16792    | 0.16792    | 0.16792    |   0.0 | 40.92
Bond    | 0.035921   | 0.035921   | 0.035921   |   0.0 |  8.75
Kspace  | 0.20346    | 0.20346    | 0.20346    |   0.0 | 49.58
Neigh   | 0.00085783 | 0.00085783 | 0.00085783 |   0.0 |  0.21
Comm    | 0.0001502  | 0.0001502  | 0.0001502  |   0.0 |  0.04
Output  | 0          | 0          | 0          |   0.0 |  0.00
Modify  | 0          | 0          | 0          |   0.0 |  0.00
Other   |            | 0.002046   |            |       |  0.50

Nlocal:    240 ave 240 max 240 min
Histogram: 1 0 0 0 0 0 0 0 0 0
Nghost:    0 ave 0 max 0 min
Histogram: 1 0 0 0 0 0 0 0 0 0
Neighs:    11901 ave 11901 max 11901 min
Histogram: 1 0 0 0 0 0 0 0 0 0

Total # of neighbors = 11901
Ave neighs/atom = 49.5875
Ave special neighs/atom = 10.025
Neighbor list builds = 1
Dangerous builds = 0
write_dump all custom pysimm.dump.tmp id q x y z vx vy vz
quit


################################################################################
##################################    Init    ##################################
################################################################################
units           real
atom_style      full
pair_style      lj/cut/coul/long 12.0  12.0
kspace_style    pppm 1e-4
bond_style      harmonic
angle_style     harmonic
dihedral_style  fourier
improper_style  cvff
special_bonds   amber
pair_modify     mix arithmetic
read_data       temp.lmps
  orthogonal box = (-88.7274 -88.7274 -88.7274) to (88.7274 88.7274 88.7274)
  1 by 1 by 1 MPI processor grid
  reading atoms ...
  257 atoms
  reading velocities ...
  257 velocities
  scanning bonds ...
  4 = max bonds/atom
  scanning angles ...
  6 = max angles/atom
  scanning dihedrals ...
  10 = max dihedrals/atom
  scanning impropers ...
  1 = max impropers/atom
  reading bonds ...
  271 bonds
  reading angles ...
  465 angles
  reading dihedrals ...
  598 dihedrals
  reading impropers ...
  60 impropers
  4 = max # of 1-2 neighbors
  7 = max # of 1-3 neighbors
  17 = max # of 1-4 neighbors
  19 = max # of special neighbors
  special bonds CPU = 0.000290155 secs
  read_data CPU = 0.00616789 secs
################################################################################

min_style cg
minimize 1e-06 1e-06 1000000 10000000
WARNING: Using 'neigh_modify every 1 delay 0 check yes' setting during minimization (../min.cpp:190)
PPPM initialization ...
  using 12-bit tables for long-range coulomb (../kspace.cpp:332)
  G vector (1/distance) = 0.0944567
  grid = 15 15 15
  stencil order = 5
  estimated absolute RMS force accuracy = 0.025114
  estimated relative force accuracy = 7.56299e-05
  using double precision KISS FFT
  3d grid and FFT values/proc = 8000 3375
Neighbor list info ...
  update every 1 steps, delay 0 steps, check yes
  max neighbors/atom: 2000, page size: 100000
  master list distance cutoff = 14
  ghost atom cutoff = 14
  binsize = 7, bins = 26 26 26
  1 neighbor lists, perpetual/occasional/extra = 1 0 0
  (1) pair lj/cut/coul/long, perpetual
      attributes: half, newton on
      pair build: half/bin/newton
      stencil: half/bin/3d/newton
      bin: standard
Per MPI rank memory allocation (min/avg/max) = 14.81 | 14.81 | 14.81 Mbytes
Step Temp E_pair E_mol TotEng Press 
       0    776.45685   -545.07136    365.65705     413.0901  -0.37225077 
       4    776.45685   -545.07136    362.08178    409.51484  -0.37225877 
Loop time of 0.128777 on 1 procs for 4 steps with 257 atoms

99.4% CPU use with 1 MPI tasks x no OpenMP threads

Minimization stats:
  Stopping criterion = energy tolerance
  Energy initial, next-to-last, final = 
        -179.414315191     -182.989550426     -182.989580417
  Force two-norm initial, final = 4.37974e+14 5679.2
[...]
kspace_style    pppm 1e-4
bond_style      harmonic
angle_style     harmonic
dihedral_style  fourier
improper_style  cvff
special_bonds   amber
pair_modify     mix arithmetic
read_data       temp.lmps
  orthogonal box = (-130.944 -130.944 -130.944) to (130.944 130.944 130.944)
  1 by 1 by 1 MPI processor grid
  reading atoms ...
  784 atoms
  reading velocities ...
  784 velocities
  scanning bonds ...
  4 = max bonds/atom
  scanning angles ...
  6 = max angles/atom
  scanning dihedrals ...
  10 = max dihedrals/atom
  scanning impropers ...
  1 = max impropers/atom
  reading bonds ...
  829 bonds
  reading angles ...
  1426 angles
  reading dihedrals ...
  1838 dihedrals
  reading impropers ...
  184 impropers
  4 = max # of 1-2 neighbors
  7 = max # of 1-3 neighbors
  17 = max # of 1-4 neighbors
  19 = max # of special neighbors
  special bonds CPU = 0.00132608 secs
  read_data CPU = 0.0197861 secs
################################################################################

min_style cg
minimize 1e-06 1e-06 1000000 10000000
WARNING: Using 'neigh_modify every 1 delay 0 check yes' setting during minimization (../min.cpp:190)
PPPM initialization ...
  using 12-bit tables for long-range coulomb (../kspace.cpp:332)
  G vector (1/distance) = 0.0807323
  grid = 18 18 18
  stencil order = 5
  estimated absolute RMS force accuracy = 0.0347707
  estimated relative force accuracy = 0.000104711
  using double precision KISS FFT
  3d grid and FFT values/proc = 12167 5832
Neighbor list info ...
  update every 1 steps, delay 0 steps, check yes
  max neighbors/atom: 2000, page size: 100000
  master list distance cutoff = 14
  ghost atom cutoff = 14
  binsize = 7, bins = 38 38 38
  1 neighbor lists, perpetual/occasional/extra = 1 0 0
  (1) pair lj/cut/coul/long, perpetual
      attributes: half, newton on
      pair build: half/bin/newton
      stencil: half/bin/3d/newton
      bin: standard
Per MPI rank memory allocation (min/avg/max) = 15.42 | 15.42 | 15.42 Mbytes
Step Temp E_pair E_mol TotEng Press 
       0    270.45972   -1800.3144    556.05814   -613.01024   -0.1425387 
      16    270.45972   -1800.5834    289.88406   -879.45331    1.3576257 
Loop time of 1.07775 on 1 procs for 16 steps with 784 atoms

100.1% CPU use with 1 MPI tasks x no OpenMP threads

Minimization stats:
  Stopping criterion = linesearch alpha is zero
  Energy initial, next-to-last, final = 
        -1244.25626759     -1510.69933424     -1510.69933424
  Force two-norm initial, final = 3.4945e+15 43.8446
  Force max component initial, final = 2.18132e+15 11.3645
  Final line search alpha, max atom move = 4.94266e-12 5.61707e-11
  Iterations, force evaluations = 16 149

MPI task timing breakdown:
Section |  min time  |  avg time  |  max time  |%varavg| %total
---------------------------------------------------------------
Pair    | 0.63356    | 0.63356    | 0.63356    |   0.0 | 58.79
Bond    | 0.064036   | 0.064036   | 0.064036   |   0.0 |  5.94
Kspace  | 0.37359    | 0.37359    | 0.37359    |   0.0 | 34.66
Neigh   | 0.0038869  | 0.0038869  | 0.0038869  |   0.0 |  0.36
Comm    | 8.75e-05   | 8.75e-05   | 8.75e-05   |   0.0 |  0.01
Output  | 0          | 0          | 0          |   0.0 |  0.00
Modify  | 0          | 0          | 0          |   0.0 |  0.00
Other   |            | 0.002586   |            |       |  0.24

Nlocal:    784 ave 784 max 784 min
Histogram: 1 0 0 0 0 0 0 0 0 0
Nghost:    0 ave 0 max 0 min
Histogram: 1 0 0 0 0 0 0 0 0 0
Neighs:    87380 ave 87380 max 87380 min
Histogram: 1 0 0 0 0 0 0 0 0 0

Total # of neighbors = 87380
Ave neighs/atom = 111.454
Ave special neighs/atom = 10.0893
Neighbor list builds = 1
Dangerous builds = 0
write_dump all custom pysimm.dump.tmp id q x y z vx vy vz
quit


################################################################################
##################################    Init    ##################################
################################################################################
units           real
atom_style      full
pair_style      lj/cut/coul/long 12.0  12.0
kspace_style    pppm 1e-4
bond_style      harmonic
angle_style     harmonic
dihedral_style  fourier
improper_style  cvff
special_bonds   amber
pair_modify     mix arithmetic
read_data       temp.lmps
  orthogonal box = (-131.907 -131.907 -131.907) to (131.907 131.907 131.907)
  1 by 1 by 1 MPI processor grid
  reading atoms ...
  801 atoms
  reading velocities ...
  801 velocities
  scanning bonds ...
  4 = max bonds/atom
  scanning angles ...
  6 = max angles/atom
  scanning dihedrals ...
  10 = max dihedrals/atom
  scanning impropers ...
  1 = max impropers/atom
  reading bonds ...
  847 bonds
  reading angles ...
  1457 angles
  reading dihedrals ...
  1878 dihedrals
  reading impropers ...
  188 impropers
  4 = max # of 1-2 neighbors
  7 = max # of 1-3 neighbors
  17 = max # of 1-4 neighbors
  19 = max # of special neighbors
  special bonds CPU = 0.00142503 secs
  read_data CPU = 0.0205131 secs
################################################################################

min_style cg
minimize 1e-06 1e-06 1000000 10000000
WARNING: Using 'neigh_modify every 1 delay 0 check yes' setting during minimization (../min.cpp:190)
PPPM initialization ...
  using 12-bit tables for long-range coulomb (../kspace.cpp:332)
  G vector (1/distance) = 0.0802704
  grid = 18 18 18
  stencil order = 5
  estimated absolute RMS force accuracy = 0.0351376
  estimated relative force accuracy = 0.000105816
  using double precision KISS FFT
  3d grid and FFT values/proc = 12167 5832
Neighbor list info ...
  update every 1 steps, delay 0 steps, check yes
  max neighbors/atom: 2000, page size: 100000
  master list distance cutoff = 14
  ghost atom cutoff = 14
  binsize = 7, bins = 38 38 38
  1 neighbor lists, perpetual/occasional/extra = 1 0 0
  (1) pair lj/cut/coul/long, perpetual
      attributes: half, newton on
      pair build: half/bin/newton
      stencil: half/bin/3d/newton
      bin: standard
Per MPI rank memory allocation (min/avg/max) = 15.42 | 15.42 | 15.42 Mbytes
Step Temp E_pair E_mol TotEng Press 
       0    291.06638   -1841.5855    581.60487   -565.88974   0.38746653 
       3    291.06638   -1841.5856    581.40891   -566.08585   0.38734337 
Loop time of 0.946683 on 1 procs for 3 steps with 801 atoms

100.0% CPU use with 1 MPI tasks x no OpenMP threads

Minimization stats:
  Stopping criterion = energy tolerance
  Energy initial, next-to-last, final = 
        -1259.98061797      -1260.1762894     -1260.17673177
  Force two-norm initial, final = 2.75892e+15 13674.5
  Force max component initial, final = 1.73638e+15 9999.13
  Final line search alpha, max atom move = 5.72732e-11 5.72682e-07
  Iterations, force evaluations = 3 103

MPI task timing breakdown:
Section |  min time  |  avg time  |  max time  |%varavg| %total
---------------------------------------------------------------
Pair    | 0.5775     | 0.5775     | 0.5775     |   0.0 | 61.00
Bond    | 0.056501   | 0.056501   | 0.056501   |   0.0 |  5.97
Kspace  | 0.31081    | 0.31081    | 0.31081    |   0.0 | 32.83
Neigh   | 0          | 0          | 0          |   0.0 |  0.00
Comm    | 5.4121e-05 | 5.4121e-05 | 5.4121e-05 |   0.0 |  0.01
Output  | 0          | 0          | 0          |   0.0 |  0.00
Modify  | 0          | 0          | 0          |   0.0 |  0.00
Other   |            | 0.001811   |            |       |  0.19

Nlocal:    801 ave 801 max 801 min
Histogram: 1 0 0 0 0 0 0 0 0 0
Nghost:    0 ave 0 max 0 min
Histogram: 1 0 0 0 0 0 0 0 0 0
Neighs:    93922 ave 93922 max 93922 min
Histogram: 1 0 0 0 0 0 0 0 0 0

Total # of neighbors = 93922
Ave neighs/atom = 117.256
Ave special neighs/atom = 10.0899
Neighbor list builds = 0
Dangerous builds = 0
write_dump all custom pysimm.dump.tmp id q x y z vx vy vz
quit


################################################################################
##################################    Init    ##################################
################################################################################
units           real
atom_style      full
pair_style      lj/cut/coul/long 12.0  12.0
kspace_style    pppm 1e-4
bond_style      harmonic
angle_style     harmonic
dihedral_style  fourier
improper_style  cvff
special_bonds   amber
pair_modify     mix arithmetic
read_data       temp.lmps
  orthogonal box = (-132.856 -132.856 -132.856) to (132.856 132.856 132.856)
  1 by 1 by 1 MPI processor grid
  reading atoms ...
  818 atoms
  reading velocities ...
  818 velocities
  scanning bonds ...
  4 = max bonds/atom
  scanning angles ...
  6 = max angles/atom
  scanning dihedrals ...
  10 = max dihedrals/atom
  scanning impropers ...
  1 = max impropers/atom
  reading bonds ...
  865 bonds
  reading angles ...
  1488 angles
  reading dihedrals ...
  1918 dihedrals
  reading impropers ...
  192 impropers
  4 = max # of 1-2 neighbors
  7 = max # of 1-3 neighbors
  17 = max # of 1-4 neighbors
  19 = max # of special neighbors
  special bonds CPU = 0.000552177 secs
  read_data CPU = 0.0167751 secs
################################################################################

min_style cg
minimize 1e-06 1e-06 1000000 10000000
WARNING: Using 'neigh_modify every 1 delay 0 check yes' setting during minimization (../min.cpp:190)
PPPM initialization ...
  using 12-bit tables for long-range coulomb (../kspace.cpp:332)
  G vector (1/distance) = 0.0798228
  grid = 18 18 18
  stencil order = 5
  estimated absolute RMS force accuracy = 0.0355012
  estimated relative force accuracy = 0.000106911
  using double precision KISS FFT
  3d grid and FFT values/proc = 12167 5832
Neighbor list info ...
  update every 1 steps, delay 0 steps, check yes
  max neighbors/atom: 2000, page size: 100000
  master list distance cutoff = 14
  ghost atom cutoff = 14
  binsize = 7, bins = 38 38 38
  1 neighbor lists, perpetual/occasional/extra = 1 0 0
  (1) pair lj/cut/coul/long, perpetual
      attributes: half, newton on
      pair build: half/bin/newton
      stencil: half/bin/3d/newton
      bin: standard
Per MPI rank memory allocation (min/avg/max) = 15.43 | 15.43 | 15.43 Mbytes
Step Temp E_pair E_mol TotEng Press 
       0    259.11003   -1864.8634    575.25798    -658.5891  -0.47980573 
      41    259.11003   -1874.9523    285.13524   -958.80072    1.1850581 
Loop time of 1.00673 on 1 procs for 41 steps with 818 atoms

100.1% CPU use with 1 MPI tasks x no OpenMP threads

Minimization stats:
  Stopping criterion = linesearch alpha is zero
  Energy initial, next-to-last, final = 
        -1289.60541339     -1589.81703387     -1589.81703387
  Force two-norm initial, final = 5.89411e+15 33.8152
  Force max component initial, final = 4.31414e+15 6.06984
  Final line search alpha, max atom move = 8.62195e-12 5.23338e-11
  Iterations, force evaluations = 41 206

MPI task timing breakdown:
Section |  min time  |  avg time  |  max time  |%varavg| %total
---------------------------------------------------------------
Pair    | 0.58191    | 0.58191    | 0.58191    |   0.0 | 57.80
Bond    | 0.061942   | 0.061942   | 0.061942   |   0.0 |  6.15
Kspace  | 0.35754    | 0.35754    | 0.35754    |   0.0 | 35.52
Neigh   | 0.0024559  | 0.0024559  | 0.0024559  |   0.0 |  0.24
Comm    | 6.3419e-05 | 6.3419e-05 | 6.3419e-05 |   0.0 |  0.01
Output  | 0          | 0          | 0          |   0.0 |  0.00
Modify  | 0          | 0          | 0          |   0.0 |  0.00
Other   |            | 0.00281    |            |       |  0.28

Nlocal:    818 ave 818 max 818 min
Histogram: 1 0 0 0 0 0 0 0 0 0
Nghost:    0 ave 0 max 0 min
Histogram: 1 0 0 0 0 0 0 0 0 0
Neighs:    85210 ave 85210 max 85210 min
Histogram: 1 0 0 0 0 0 0 0 0 0

Total # of neighbors = 85210
Ave neighs/atom = 104.169
Ave special neighs/atom = 10.0905
Neighbor list builds = 1
Dangerous builds = 0
write_dump all custom pysimm.dump.tmp id q x y z vx vy vz
quit


################################################################################
##################################    Init    ##################################
################################################################################
units           real
atom_style      full
pair_style      lj/cut/coul/long 12.0  12.0
kspace_style    pppm 1e-4
bond_style      harmonic
angle_style     harmonic
dihedral_style  fourier
improper_style  cvff
special_bonds   amber
pair_modify     mix arithmetic
read_data       temp.lmps
  orthogonal box = (-133.792 -133.792 -133.792) to (133.792 133.792 133.792)
  1 by 1 by 1 MPI processor grid
  reading atoms ...
  835 atoms
  reading velocities ...
  835 velocities
  scanning bonds ...
  4 = max bonds/atom
  scanning angles ...
  6 = max angles/atom
  scanning dihedrals ...
  10 = max dihedrals/atom
  scanning impropers ...
  1 = max impropers/atom
  reading bonds ...
  883 bonds
  reading angles ...
  1519 angles
  reading dihedrals ...
  1958 dihedrals
  reading impropers ...
  196 impropers
  4 = max # of 1-2 neighbors
  7 = max # of 1-3 neighbors
  17 = max # of 1-4 neighbors
  19 = max # of special neighbors
  special bonds CPU = 0.000709057 secs
  read_data CPU = 0.01212 secs
################################################################################

min_style cg
minimize 1e-06 1e-06 1000000 10000000
WARNING: Using 'neigh_modify every 1 delay 0 check yes' setting during minimization (../min.cpp:190)
PPPM initialization ...
  using 12-bit tables for long-range coulomb (../kspace.cpp:332)
  G vector (1/distance) = 0.0793829
  grid = 18 18 18
  stencil order = 5
  estimated absolute RMS force accuracy = 0.0358525
  estimated relative force accuracy = 0.000107969
  using double precision KISS FFT
  3d grid and FFT values/proc = 12167 5832
Neighbor list info ...
  update every 1 steps, delay 0 steps, check yes
  max neighbors/atom: 2000, page size: 100000
  master list distance cutoff = 14
  ghost atom cutoff = 14
  binsize = 7, bins = 39 39 39
  1 neighbor lists, perpetual/occasional/extra = 1 0 0
  (1) pair lj/cut/coul/long, perpetual
      attributes: half, newton on
      pair build: half/bin/newton
      stencil: half/bin/3d/newton
      bin: standard
Per MPI rank memory allocation (min/avg/max) = 15.45 | 15.45 | 15.45 Mbytes
Step Temp E_pair E_mol TotEng Press 
       0    268.21415   -1888.3663    606.68061   -614.90648 0.0017139549 
       3    268.21415   -1888.3663    605.86587   -615.72122 0.0017506888 
Loop time of 1.26585 on 1 procs for 3 steps with 835 atoms

100.1% CPU use with 1 MPI tasks x no OpenMP threads

Minimization stats:
  Stopping criterion = energy tolerance
  Energy initial, next-to-last, final = 
        -1281.68566625     -1282.50040356     -1282.50040356
  Force two-norm initial, final = 2.661e+15 1.55935e+13
  Force max component initial, final = 2.10615e+15 1.15747e+13
  Final line search alpha, max atom move = 1.35594e-29 1.56945e-16
  Iterations, force evaluations = 3 265

MPI task timing breakdown:
Section |  min time  |  avg time  |  max time  |%varavg| %total
---------------------------------------------------------------
Pair    | 0.75871    | 0.75871    | 0.75871    |   0.0 | 59.94
Bond    | 0.075485   | 0.075485   | 0.075485   |   0.0 |  5.96
Kspace  | 0.42921    | 0.42921    | 0.42921    |   0.0 | 33.91
Neigh   | 0          | 0          | 0          |   0.0 |  0.00
Comm    | 6.3419e-05 | 6.3419e-05 | 6.3419e-05 |   0.0 |  0.01
Output  | 0          | 0          | 0          |   0.0 |  0.00
Modify  | 0          | 0          | 0          |   0.0 |  0.00
Other   |            | 0.00238    |            |       |  0.19

Nlocal:    835 ave 835 max 835 min
Histogram: 1 0 0 0 0 0 0 0 0 0
Nghost:    0 ave 0 max 0 min
Histogram: 1 0 0 0 0 0 0 0 0 0
Neighs:    96410 ave 96410 max 96410 min
Histogram: 1 0 0 0 0 0 0 0 0 0

Total # of neighbors = 96410
Ave neighs/atom = 115.461
Ave special neighs/atom = 10.091
Neighbor list builds = 0
Dangerous builds = 0
write_dump all custom pysimm.dump.tmp id q x y z vx vy vz
quit


################################################################################
##################################    Init    ##################################
################################################################################
units           real
atom_style      full
pair_style      lj/cut/coul/long 12.0  12.0
kspace_style    pppm 1e-4
bond_style      harmonic
angle_style     harmonic
dihedral_style  fourier
improper_style  cvff
special_bonds   amber
pair_modify     mix arithmetic
read_data       temp.lmps
  orthogonal box = (-134.714 -134.714 -134.714) to (134.714 134.714 134.714)
  1 by 1 by 1 MPI processor grid
  reading atoms ...
  852 atoms
  reading velocities ...
  852 velocities
  scanning bonds ...
  4 = max bonds/atom
  scanning angles ...
  6 = max angles/atom
  scanning dihedrals ...
  10 = max dihedrals/atom
  scanning impropers ...
  1 = max impropers/atom
  reading bonds ...
  901 bonds
  reading angles ...
  1550 angles
  reading dihedrals ...
  1998 dihedrals
  reading impropers ...
  200 impropers
  4 = max # of 1-2 neighbors
  7 = max # of 1-3 neighbors
  17 = max # of 1-4 neighbors
  19 = max # of special neighbors
  special bonds CPU = 0.00148511 secs
  read_data CPU = 0.0216389 secs
################################################################################

min_style cg
minimize 1e-06 1e-06 1000000 10000000
WARNING: Using 'neigh_modify every 1 delay 0 check yes' setting during minimization (../min.cpp:190)
PPPM initialization ...
  using 12-bit tables for long-range coulomb (../kspace.cpp:332)
  G vector (1/distance) = 0.0789539
  grid = 18 18 18
  stencil order = 5
  estimated absolute RMS force accuracy = 0.036197
  estimated relative force accuracy = 0.000109006
  using double precision KISS FFT
  3d grid and FFT values/proc = 12167 5832
Neighbor list info ...
  update every 1 steps, delay 0 steps, check yes
  max neighbors/atom: 2000, page size: 100000
  master list distance cutoff = 14
  ghost atom cutoff = 14
  binsize = 7, bins = 39 39 39
  1 neighbor lists, perpetual/occasional/extra = 1 0 0
  (1) pair lj/cut/coul/long, perpetual
      attributes: half, newton on
      pair build: half/bin/newton
      stencil: half/bin/3d/newton
      bin: standard
Per MPI rank memory allocation (min/avg/max) = 15.45 | 15.45 | 15.45 Mbytes
Step Temp E_pair E_mol TotEng Press 
       0    327.78105    -1933.174    617.84079   -483.86108   0.15901201 
       5    327.78105    -1933.174    616.96489     -484.737    0.1588423 
Loop time of 1.01815 on 1 procs for 5 steps with 852 atoms

100.0% CPU use with 1 MPI tasks x no OpenMP threads

Minimization stats:
  Stopping criterion = energy tolerance
  Energy initial, next-to-last, final = 
        -1315.33322035     -1316.20908245     -1316.20914077
  Force two-norm initial, final = 4.41162e+15 861.231
  Force max component initial, final = 3.11568e+15 550.57
  Final line search alpha, max atom move = 7.60521e-10 4.1872e-07
  Iterations, force evaluations = 5 172

MPI task timing breakdown:
Section |  min time  |  avg time  |  max time  |%varavg| %total
---------------------------------------------------------------
Pair    | 0.60906    | 0.60906    | 0.60906    |   0.0 | 59.82
Bond    | 0.061847   | 0.061847   | 0.061847   |   0.0 |  6.07
Kspace  | 0.34513    | 0.34513    | 0.34513    |   0.0 | 33.90
Neigh   | 0          | 0          | 0          |   0.0 |  0.00
Comm    | 6.2943e-05 | 6.2943e-05 | 6.2943e-05 |   0.0 |  0.01
Output  | 0          | 0          | 0          |   0.0 |  0.00
Modify  | 0          | 0          | 0          |   0.0 |  0.00
Other   |            | 0.002048   |            |       |  0.20

Nlocal:    852 ave 852 max 852 min
Histogram: 1 0 0 0 0 0 0 0 0 0
Nghost:    0 ave 0 max 0 min
Histogram: 1 0 0 0 0 0 0 0 0 0
Neighs:    94924 ave 94924 max 94924 min
Histogram: 1 0 0 0 0 0 0 0 0 0

Total # of neighbors = 94924
Ave neighs/atom = 111.413
Ave special neighs/atom = 10.0915
Neighbor list builds = 0
Dangerous builds = 0
write_dump all custom pysimm.dump.tmp id q x y z vx vy vz
quit
