pySIMM System Object

631 atoms
667 bonds
1147 angles
1478 dihedrals
148 impropers

6 atom types
6 bond types
8 angle types
3 dihedral types
2 improper types

-121.557764 121.557764 xlo xhi
-121.557764 121.557764 ylo yhi
-121.557764 121.557764 zlo zhi

Masses

   1	12.01	# c3
   2	12.01	# ca
   3	1.008	# ha
   4	16.0	# oh
   5	1.008	# hc
   6	1.008	# ho

Pair Coeffs

   1	0.1094	3.3996695084235347	# c3
   2	0.086	3.3996695084235347	# ca
   3	0.015	2.59964245953351	# ha
   4	0.2104	3.0664733878390478	# oh
   5	0.0157	2.649532787749369	# hc
   6	0.0047	0.5379246460131368	# ho

Bond Coeffs

   1	371.4	0.973	# ho,oh
   2	461.1	1.3984	# ca,ca
   3	384.0	1.3637	# ca,oh
   4	345.8	1.086	# ca,ha
   5	321.0	1.5156	# c3,ca
   6	330.6	1.0969	# c3,hc

Angle Coeffs

   1	46.8	110.47	# ca,c3,hc
   2	49.0	108.58	# ca,oh,ho
   3	69.52	119.9	# ca,ca,oh
   4	66.62	120.02	# ca,ca,ca
   5	39.4	107.58	# hc,c3,hc
   6	48.18	119.88	# ca,ca,ha
   7	63.53	120.77	# c3,ca,ca
   8	63.5	119.89	# ca,oh,ca

Dihedral Coeffs

   1	1	3.625	2	180	# X,ca,ca,X
   2	1	0.9	2	180	# X,ca,oh,X
   3	1	0.0	2	0	# X,c3,ca,X

Improper Coeffs

   1	1.1	-1	2	# ca,X,X,ha
   2	1.1	-1	2	# ca,ca,ca,c3

Atoms

   1	1	1	-0.211274	-6.84697	13.2193	-3.78387
   2	1	2	0.221306	-6.71227	11.728	-3.53687
   3	1	2	-0.631195	-5.98317	10.9541	-4.44927
   4	1	3	0.289556	-5.52147	11.443	-5.30087
   5	1	2	0.263167	-5.85637	9.5625	-4.28107
   6	1	2	-0.339066	-6.45817	8.9639	-3.16467
   7	1	3	0.163087	-6.36077	7.892	-3.02287
   8	1	2	0.033139	-7.18057	9.7239	-2.22767
   9	1	1	-0.070169	-7.80547	9.0367	-1.01937
  10	1	2	-0.051663	-7.30977	11.1143	-2.41876
  11	1	4	-0.031436	-8.02177	11.8684	-1.52677
  12	1	5	0.081364	-7.17597	9.1668	-0.131768
  13	1	5	-0.00525	-7.92917	7.9611	-1.18827
  14	1	5	-0.006128	-8.79897	9.4408	-0.787368
  15	1	5	0.002513	-6.47217	13.5061	-4.77427
  16	1	5	0.147318	-6.28657	13.7847	-3.03147
  17	1	5	0.144731	-7.89877	13.5219	-3.72507
  18	1	1	-0.211274	-7.15757	9.2478	-7.23547
  19	1	2	0.221306	-5.68087	9.564	-7.40537
  20	1	2	-0.631195	-5.26307	10.2159	-8.57327
  21	1	3	0.289556	-5.99527	10.5046	-9.31767
  22	1	2	0.263167	-3.91257	10.5398	-8.76947
  23	1	2	-0.339066	-2.97327	10.1443	-7.81097
  24	1	3	0.163087	-1.93437	10.401	-7.96707
  25	1	2	0.033139	-3.36757	9.4916	-6.62987
  26	1	1	-0.070169	-2.30787	9.1047	-5.60457
  27	1	2	-0.051663	-4.73827	9.2466	-6.40317
  28	1	4	-0.031436	-5.16257	8.7779	-5.17857
  29	1	5	0.081364	-2.65757	9.2662	-4.57797
  30	1	5	-0.00525	-1.39357	9.6966	-5.72757
  31	1	5	-0.006128	-2.03037	8.0481	-5.70837
  32	1	5	0.002513	-7.69547	9.2544	-8.19147
  33	1	5	0.147318	-7.63767	9.9753	-6.57027
  34	1	5	0.144731	-7.28677	8.2525	-6.79417
  35	1	1	-0.211274	-4.79917	11.1903	-12.4481
  36	1	2	0.221306	-4.91437	12.3635	-11.4916
  37	1	2	-0.631195	-5.74347	13.4431	-11.8361
  38	1	3	0.289556	-6.29817	13.4241	-12.7677
  39	1	2	0.263167	-5.87807	14.5442	-10.9819
  40	1	2	-0.339066	-5.12337	14.5814	-9.79857
  41	1	3	0.163087	-5.18337	15.4463	-9.14517
  42	1	2	0.033139	-4.28347	13.5193	-9.44017
  43	1	1	-0.070169	-3.46557	13.6402	-8.16417
  44	1	2	-0.051663	-4.21407	12.378	-10.2674
  45	1	4	-0.031436	-3.50757	11.2686	-9.86227
  46	1	5	0.081364	-3.32147	14.6896	-7.87657
  47	1	5	-0.00525	-2.46597	13.2057	-8.29457
  48	1	5	-0.006128	-3.96187	13.1288	-7.32997
  49	1	5	0.002513	-5.50077	11.2723	-13.2878
  50	1	5	0.147318	-5.00467	10.2455	-11.9333
  51	1	5	0.144731	-3.78387	11.1362	-12.8594
  52	1	1	-0.211274	-8.69597	14.472	-9.43587
  53	1	2	0.221306	-8.14497	15.886	-9.35437
  54	1	2	-0.631195	-8.49577	16.6772	-8.25157
  55	1	3	0.289556	-9.17027	16.2817	-7.49927
  56	1	2	0.263167	-7.97057	17.9701	-8.10427
  57	1	2	-0.339066	-7.15087	18.4908	-9.11017
  58	1	3	0.163087	-6.76667	19.5014	-9.01057
  59	1	2	0.033139	-6.79147	17.7219	-10.2274
  60	1	1	-0.070169	-5.86937	18.354	-11.2612
  61	1	2	-0.051663	-7.25517	16.392	-10.3284
  62	1	4	-0.031436	-6.75397	15.5563	-11.2994
  63	1	5	0.081364	-5.62637	17.678	-12.0884
  64	1	5	-0.00525	-4.92697	18.6694	-10.7973
  65	1	5	-0.006128	-6.33807	19.2447	-11.6986
  66	1	5	0.002513	-9.58907	14.339	-8.81087
  67	1	5	0.147318	-7.93977	13.7483	-9.10947
  68	1	5	0.144731	-8.97587	14.2233	-10.4665
  69	1	1	-0.211274	-6.66997	16.5466	-5.59267
  70	1	2	0.221306	-7.93647	17.2113	-5.07597
  71	1	2	-0.631195	-8.42727	16.765	-3.84297
  72	1	3	0.289556	-7.90997	15.9707	-3.31707
  73	1	2	0.263167	-9.56367	17.3477	-3.26257
  74	1	2	-0.339066	-10.2026	18.3988	-3.92557
  75	1	3	0.163087	-11.0669	18.8654	-3.46357
  76	1	2	0.033139	-9.73227	18.8649	-5.16157
  77	1	1	-0.070169	-10.4329	20.0463	-5.82157
  78	1	2	-0.051663	-8.61077	18.2532	-5.76157
  79	1	4	-0.031436	-8.18757	18.7308	-6.98137
  80	1	5	0.081364	-10.7397	19.8025	-6.84617
  81	1	5	-0.00525	-9.76727	20.9184	-5.86577
  82	1	5	-0.006128	-11.3319	20.3476	-5.26757
  83	1	5	0.002513	-5.94717	16.3712	-4.78487
  84	1	5	0.147318	-6.16767	17.1535	-6.34957
  85	1	5	0.144731	-6.90657	15.5808	-6.05187
  86	1	1	-0.211274	-7.69437	18.4004	-0.983468
  87	1	2	0.221306	-8.10307	17.0	-0.558868
  88	1	2	-0.631195	-7.30437	16.3425	0.386032
  89	1	3	0.289556	-6.42547	16.8364	0.785532
  90	1	2	0.263167	-7.64167	15.069	0.851332
  91	1	2	-0.339066	-8.79547	14.443	0.347832
  92	1	3	0.163087	-9.07747	13.4564	0.700932
  93	1	2	0.033139	-9.60227	15.0733	-0.612568
  94	1	1	-0.070169	-10.8467	14.359	-1.12757
  95	1	2	-0.051663	-9.24887	16.3545	-1.07807
  96	1	4	-0.031436	-10.0328	16.9565	-2.03397
  97	1	5	0.081364	-11.7561	14.8741	-0.792468
  98	1	5	-0.00525	-10.9045	13.3254	-0.764068
  99	1	5	-0.006128	-10.8613	14.3208	-2.22457
 100	1	5	0.002513	-7.09417	18.8984	-0.213368
 101	1	5	0.147318	-8.57057	19.0311	-1.17177
 102	1	5	0.144731	-7.09997	18.3642	-1.90337
 103	1	1	-0.211274	-5.61477	12.0531	0.783032
 104	1	2	0.221306	-6.64517	12.0803	1.90023
 105	1	2	-0.631195	-7.08287	10.8667	2.44433
 106	1	3	0.289556	-6.68087	9.93697	2.05833
 107	1	2	0.263167	-8.02387	10.8421	3.48753
 108	1	2	-0.339066	-8.50727	12.0525	3.99803
 109	1	3	0.163087	-9.22617	12.0362	4.81203
 110	1	2	0.033139	-8.08257	13.2814	3.46993
 111	1	1	-0.070169	-8.63357	14.5773	4.05273
 112	1	2	-0.051663	-7.16547	13.2917	2.39823
 113	1	4	-0.031436	-6.83467	14.4764	1.79293
 114	1	5	0.081364	-9.36397	15.0303	3.37153
 115	1	5	-0.00525	-7.83097	15.3071	4.22173
 116	1	5	-0.006128	-9.13207	14.4104	5.01663
 117	1	5	0.002513	-5.54777	11.0649	0.311732
 118	1	5	0.147318	-4.62257	12.3057	1.17303
 119	1	5	0.144731	-5.86127	12.7755	-0.00266769
 120	1	1	-0.211274	-10.2909	8.4281	2.15763
 121	1	2	0.221306	-9.00367	7.7767	2.62903
 122	1	2	-0.631195	-8.65127	6.5176	2.12333
 123	1	3	0.289556	-9.29777	6.0205	1.40833
 124	1	2	0.263167	-7.45077	5.9046	2.49943
 125	1	2	-0.339066	-6.59847	6.5663	3.39983
 126	1	3	0.163087	-5.65597	6.1099	3.68393
 127	1	2	0.033139	-6.94447	7.8176	3.93773
 128	1	1	-0.070169	-6.00237	8.5055	4.91923
 129	1	2	-0.051663	-8.15297	8.4266	3.54433
 130	1	4	-0.031436	-8.48897	9.6677	4.02713
 131	1	5	0.081364	-5.58607	9.4248	4.48853
 132	1	5	-0.00525	-5.16177	7.8587	5.19933
 133	1	5	-0.006128	-6.53227	8.7788	5.84013
 134	1	5	0.002513	-10.8278	7.8062	1.43033
 135	1	5	0.147318	-10.0764	9.3912	1.67813
 136	1	5	0.144731	-10.9602	8.6127	3.00563
 137	1	1	-0.211274	-5.65737	2.9061	3.70803
 138	1	2	0.221306	-5.05847	3.5395	2.46543
 139	1	2	-0.631195	-3.69667	3.3474	2.19183
 140	1	3	0.289556	-3.08337	2.7741	2.87693
 141	1	2	0.263167	-3.10027	3.9629	1.08483
 142	1	2	-0.339066	-3.90017	4.7077	0.203432
 143	1	3	0.163087	-3.45267	5.1793	-0.664568
 144	1	2	0.033139	-5.25887	4.919	0.463932
 145	1	1	-0.070169	-6.06187	5.7955	-0.485468
 146	1	2	-0.051663	-5.83387	4.3651	1.62503
 147	1	4	-0.031436	-7.12587	4.6808	1.96613
 148	1	5	0.081364	-6.23697	6.7789	-0.0350677
 149	1	5	-0.00525	-7.03597	5.345	-0.715068
 150	1	5	-0.006128	-5.53857	5.9518	-1.43747
 151	1	5	0.002513	-4.96777	2.198	4.18413
 152	1	5	0.147318	-6.57197	2.3592	3.45223
 153	1	5	0.144731	-5.91757	3.6745	4.44543
 154	1	1	-0.211274	-0.678368	3.913	-1.76837
 155	1	2	0.221306	-0.644468	5.1255	-0.855768
 156	1	2	-0.631195	-0.247768	6.3564	-1.39237
 157	1	3	0.289556	0.0676319	6.4201	-2.42897
 158	1	2	0.263167	-0.313968	7.5242	-0.623968
 159	1	2	-0.339066	-0.690168	7.4449	0.722132
 160	1	3	0.163087	-0.723968	8.3521	1.31763
 161	1	2	0.033139	-1.07247	6.2177	1.28983
 162	1	1	-0.070169	-1.51057	6.1822	2.75003
 163	1	2	-0.051663	-1.09867	5.0601	0.478032
 164	1	4	-0.031436	-1.73707	3.9264	0.923732
 165	1	5	0.081364	-1.08627	7.0201	3.31653
 166	1	5	-0.00525	-1.18157	5.2589	3.24423
 167	1	5	-0.006128	-2.60247	6.2402	2.83643
 168	1	5	0.002513	-0.0738681	4.0628	-2.67197
 169	1	5	0.147318	-1.70557	3.699	-2.08417
 170	1	5	0.144731	-0.289268	3.0273	-1.25397
 171	1	1	-0.211274	-3.01567	8.2012	-1.68427
 172	1	2	0.221306	-2.34007	9.5635	-1.69107
 173	1	2	-0.631195	-3.14497	10.6614	-2.04247
 174	1	3	0.289556	-4.19537	10.5093	-2.27007
 175	1	2	0.263167	-2.61257	11.9479	-2.15637
 176	1	2	-0.339066	-1.26327	12.1496	-1.83897
 177	1	3	0.163087	-0.842168	13.1485	-1.90317
 178	1	2	0.033139	-0.435768	11.0726	-1.47977
 179	1	1	-0.070169	1.03603	11.3479	-1.19477
 180	1	2	-0.051663	-0.957168	9.7608	-1.42897
 181	1	4	-0.031436	-0.0547681	8.7324	-1.21197
 182	1	5	0.081364	1.38103	10.7943	-0.312768
 183	1	5	-0.00525	1.21983	12.4122	-1.00247
 184	1	5	-0.006128	1.65733	11.0514	-2.04787
 185	1	5	0.002513	-4.05697	8.2512	-2.01847
 186	1	5	0.147318	-3.02487	7.7747	-0.675068
 187	1	5	0.144731	-2.49657	7.5053	-2.35117
 188	1	1	-0.211274	-2.04847	12.4797	-5.18567
 189	1	2	0.221306	-2.27597	13.8584	-4.59617
 190	1	2	-0.631195	-1.80297	14.9695	-5.31017
 191	1	3	0.289556	-1.29217	14.8173	-6.25407
 192	1	2	0.263167	-1.95047	16.2681	-4.80267
 193	1	2	-0.339066	-2.61267	16.4414	-3.58067
 194	1	3	0.163087	-2.72387	17.4451	-3.18087
 195	1	2	0.033139	-3.12037	15.3468	-2.86097
 196	1	1	-0.070169	-3.82837	15.5871	-1.53397
 197	1	2	-0.051663	-2.93597	14.0392	-3.35617
 198	1	4	-0.031436	-3.40677	12.9689	-2.62347
 199	1	5	0.081364	-3.30767	15.07	-0.718368
 200	1	5	-0.00525	-4.86117	15.2191	-1.56427
 201	1	5	-0.006128	-3.86347	16.6543	-1.28057
 202	1	5	0.002513	-1.64137	12.5215	-6.20257
 203	1	5	0.147318	-2.98837	11.919	-5.21967
 204	1	5	0.144731	-1.33607	11.9101	-4.57887
 205	1	1	-0.211274	-3.59177	18.5005	-7.03627
 206	1	2	0.221306	-2.26807	18.0362	-7.61577
 207	1	2	-0.631195	-2.04577	18.2242	-8.98847
 208	1	3	0.289556	-2.81107	18.6855	-9.60067
 209	1	2	0.263167	-0.833968	17.8378	-9.57647
 210	1	2	-0.339066	0.172132	17.3001	-8.76427
 211	1	3	0.163087	1.12423	17.0349	-9.20727
 212	1	2	0.033139	-0.0125681	17.1405	-7.38097
 213	1	1	-0.070169	1.15853	16.6515	-6.53627
 214	1	2	-0.051663	-1.25537	17.4806	-6.80417
 215	1	4	-0.031436	-1.44607	17.374	-5.44537
 216	1	5	0.081364	0.920432	15.7181	-6.01327
 217	1	5	-0.00525	1.43383	17.4007	-5.78357
 218	1	5	-0.006128	2.04893	16.464	-7.15077
 219	1	5	0.002513	-4.38897	18.4986	-7.79047
 220	1	5	0.147318	-3.49577	19.5197	-6.64477
 221	1	5	0.144731	-3.91427	17.852	-6.21527
 222	1	1	-0.211274	-2.84227	16.3057	-11.7008
 223	1	2	0.221306	-1.40517	16.0456	-12.0999
 224	1	2	-0.631195	-1.12377	14.8852	-12.8311
 225	1	3	0.289556	-1.92357	14.1922	-13.0737
 226	1	2	0.263167	0.182932	14.5993	-13.2377
 227	1	2	-0.339066	1.20633	15.5093	-12.9429
 228	1	3	0.163087	2.21873	15.2929	-13.2704
 229	1	2	0.033139	0.947632	16.6788	-12.202
 230	1	1	-0.070169	2.10353	17.6257	-11.8979
 231	1	2	-0.051663	-0.363468	16.9267	-11.7389
 232	1	4	-0.031436	-0.630968	18.0047	-10.9248
 233	1	5	0.081364	2.57823	17.3741	-10.9429
 234	1	5	-0.00525	1.77643	18.6723	-11.8467
 235	1	5	-0.006128	2.87833	17.5664	-12.6728
 236	1	5	0.002513	-3.54657	15.722	-12.3069
 237	1	5	0.147318	-3.09357	17.3623	-11.8335
 238	1	5	0.144731	-2.99417	16.0452	-10.6482
 239	1	1	-0.211274	0.583732	12.5663	-11.0199
 240	1	2	0.221306	0.00143186	11.7386	-12.1548
 241	1	2	-0.631195	-0.480568	10.4607	-11.8363
 242	1	3	0.289556	-0.459068	10.1301	-10.8038
 243	1	2	0.263167	-0.973668	9.6005	-12.831
 244	1	2	-0.339066	-1.02707	10.0582	-14.1497
 245	1	3	0.163087	-1.41347	9.3977	-14.9196
 246	1	2	0.033139	-0.573368	11.3457	-14.4929
 247	1	1	-0.070169	-0.660468	11.7908	-15.947
 248	1	2	-0.051663	-0.0375681	12.1906	-13.4963
 249	1	4	-0.031436	0.480332	13.4164	-13.8655
 250	1	5	0.081364	-1.40817	11.2086	-16.4991
 251	1	5	-0.00525	0.303532	11.6614	-16.4546
 252	1	5	-0.006128	-0.952368	12.8457	-16.0297
 253	1	5	0.002513	0.808432	11.9576	-10.1354
 254	1	5	0.147318	-0.121468	13.3503	-10.7188
 255	1	5	0.144731	1.51763	13.0487	-11.3279
 256	1	1	-0.211274	1.48093	7.622	-12.2805
 257	1	2	0.221306	0.437932	7.4064	-11.1962
 258	1	2	-0.631195	0.879732	6.9879	-9.93767
 259	1	3	0.289556	1.93773	6.8179	-9.76487
 260	1	2	0.263167	-0.0263681	6.8249	-8.88007
 261	1	2	-0.339066	-1.39577	6.9988	-9.11637
 262	1	3	0.163087	-2.09687	6.8474	-8.30087
 263	1	2	0.033139	-1.86257	7.4122	-10.3712
 264	1	1	-0.070169	-3.35707	7.6079	-10.5877
 265	1	2	-0.051663	-0.935368	7.6764	-11.401
 266	1	4	-0.031436	-1.35537	8.3088	-12.5453
 267	1	5	0.081364	-3.91477	7.5325	-9.64627
 268	1	5	-0.00525	-3.75077	6.8435	-11.2687
 269	1	5	-0.006128	-3.57227	8.5908	-11.0196
 270	1	5	0.002513	2.32563	6.9323	-12.1644
 271	1	5	0.147318	1.87053	8.6451	-12.2397
 272	1	5	0.144731	1.05823	7.4591	-13.2778
 273	1	1	-0.211274	1.00893	9.4917	-7.80467
 274	1	2	0.221306	1.87233	8.4586	-7.10357
 275	1	2	-0.631195	3.03703	8.9284	-6.48067
 276	1	3	0.289556	3.27863	9.98535	-6.51567
 277	1	2	0.263167	3.87513	8.0645	-5.77717
 278	1	2	-0.339066	3.57083	6.6971	-5.73647
 279	1	3	0.163087	4.22533	6.015	-5.20567
 280	1	2	0.033139	2.42333	6.1957	-6.37517
 281	1	1	-0.070169	2.14663	4.6981	-6.32757
 282	1	2	-0.051663	1.55603	7.0784	-7.05167
 283	1	4	-0.031436	0.402032	6.5625	-7.60827
 284	1	5	0.081364	1.78713	4.3279	-7.29667
 285	1	5	-0.00525	1.38703	4.4614	-5.57247
 286	1	5	-0.006128	3.05213	4.129	-6.08207
 287	1	5	0.002513	1.20033	10.5096	-7.44067
 288	1	5	0.147318	-0.0514681	9.2804	-7.64827
 289	1	5	0.144731	1.20313	9.4802	-8.88267
 290	1	1	-0.211274	7.30993	6.9074	-5.60217
 291	1	2	0.221306	6.72493	7.2189	-4.23527
 292	1	2	-0.631195	7.34093	6.6485	-3.11837
 293	1	3	0.289556	8.22603	6.0361	-3.24577
 294	1	2	0.263167	6.85143	6.8714	-1.82907
 295	1	2	-0.339066	5.70603	7.6691	-1.65877
 296	1	3	0.163087	5.32073	7.8529	-0.660668
 297	1	2	0.033139	5.05523	8.2392	-2.77187
 298	1	1	-0.070169	3.79103	9.0722	-2.56567
 299	1	2	-0.051663	5.57683	8.018	-4.06647
 300	1	4	-0.031436	4.97903	8.5875	-5.16027
 301	1	5	0.081364	2.89733	8.4974	-2.84237
 302	1	5	-0.00525	3.80123	9.9831	-3.17877
 303	1	5	-0.006128	3.67543	9.3857	-1.52107
 304	1	5	0.002513	8.38793	6.7087	-5.53867
 305	1	5	0.147318	7.16973	7.7336	-6.30787
 306	1	5	0.144731	6.82893	6.017	-6.02267
 307	1	1	-0.211274	5.32043	4.4708	-0.151568
 308	1	2	0.221306	6.14003	5.2359	0.873732
 309	1	2	-0.631195	5.89793	4.9667	2.22413
 310	1	3	0.289556	5.22353	4.1638	2.47133
 311	1	2	0.263167	6.54443	5.6816	3.24253
 312	1	2	-0.339066	7.49463	6.644	2.87883
 313	1	3	0.163087	8.01883	7.1872	3.65833
 314	1	2	0.033139	7.83133	6.86	1.53183
 315	1	1	-0.070169	8.97073	7.8141	1.19823
 316	1	2	-0.051663	7.13283	6.1723	0.515232
 317	1	4	-0.031436	7.54243	6.2996	-0.790668
 318	1	5	0.081364	8.74393	8.4216	0.313632
 319	1	5	-0.00525	9.89333	7.2544	0.995032
 320	1	5	-0.006128	9.17323	8.5039	2.02843
 321	1	5	0.002513	4.46473	3.9629	0.313532
 322	1	5	0.147318	5.93133	3.7168	-0.658168
 323	1	5	0.144731	4.90843	5.1505	-0.905668
 324	1	1	-0.211274	3.42363	4.6416	4.42623
 325	1	2	0.221306	4.54673	3.8034	5.02423
 326	1	2	-0.631195	4.21593	2.5415	5.53613
 327	1	3	0.289556	3.20043	2.1697	5.45203
 328	1	2	0.263167	5.17903	1.757	6.17953
 329	1	2	-0.339066	6.48253	2.2576	6.32793
 330	1	3	0.163087	7.23213	1.6732	6.85413
 331	1	2	0.033139	6.84523	3.5023	5.79953
 332	1	1	-0.070169	8.26373	4.0084	6.02623
 333	1	2	-0.051663	5.88083	4.2708	5.10943
 334	1	4	-0.031436	6.25713	5.4817	4.57493
 335	1	5	0.081364	8.24743	4.9727	6.54693
 336	1	5	-0.00525	8.80813	4.1368	5.08343
 337	1	5	-0.006128	8.84523	3.3165	6.64953
 338	1	5	0.002513	2.45313	4.3538	4.84573
 339	1	5	0.147318	3.34343	4.523	3.34103
 340	1	5	0.144731	3.57603	5.7076	4.63323
 341	1	1	-0.211274	5.19253	0.543501	9.53663
 342	1	2	0.221306	5.97253	-0.358699	8.59163
 343	1	2	-0.631195	6.95993	-1.2039	9.12333
 344	1	3	0.289556	7.13363	-1.2186	10.1909
 345	1	2	0.263167	7.70813	-2.0398	8.28653
 346	1	2	-0.339066	7.50053	-1.9883	6.90563
 347	1	3	0.163087	8.10803	-2.5928	6.25013
 348	1	2	0.033139	6.52943	-1.1466	6.34733
 349	1	1	-0.070169	6.40313	-1.1386	4.82943
 350	1	2	-0.051663	5.74343	-0.342199	7.20053
 351	1	4	-0.031436	4.81853	0.528601	6.67523
 352	1	5	0.081364	6.35163	-2.1666	4.45023
 353	1	5	-0.00525	7.27593	-0.656999	4.37243
 354	1	5	-0.006128	5.50613	-0.621999	4.46593
 355	1	5	0.002513	5.36233	0.292001	10.59
 356	1	5	0.147318	4.11473	0.470601	9.35203
 357	1	5	0.144731	5.48673	1.5911	9.39633
 358	1	1	-0.211274	10.2963	-4.0921	6.70133
 359	1	2	0.221306	9.26453	-4.8629	7.51033
 360	1	2	-0.631195	9.12303	-6.2292	7.23953
 361	1	3	0.289556	9.72933	-6.6946	6.47083
 362	1	2	0.263167	8.28223	-7.0394	8.00833
 363	1	2	-0.339066	7.57773	-6.4642	9.07833
 364	1	3	0.163087	6.99273	-7.1081	9.73273
 365	1	2	0.033139	7.69543	-5.0881	9.36173
 366	1	1	-0.070169	7.03903	-4.5204	10.6145
 367	1	2	-0.051663	8.51883	-4.271	8.55443
 368	1	4	-0.031436	8.61913	-2.9242	8.81613
 369	1	5	0.081364	7.66743	-3.7535	11.0905
 370	1	5	-0.00525	6.88523	-5.3047	11.3696
 371	1	5	-0.006128	6.06943	-4.0552	10.3947
 372	1	5	0.002513	10.5208	-3.1041	7.12463
 373	1	5	0.147318	9.95933	-3.9529	5.66773
 374	1	5	0.144731	11.2375	-4.6524	6.66673
 375	1	1	-0.211274	6.49793	-8.2379	5.57853
 376	1	2	0.221306	6.54453	-9.3844	6.57013
 377	1	2	-0.631195	5.80683	-10.5444	6.27093
 378	1	3	0.289556	5.13793	-10.5478	5.42163
 379	1	2	0.263167	5.99103	-11.7229	7.00643
 380	1	2	-0.339066	6.83533	-11.6882	8.12303
 381	1	3	0.163087	7.01533	-12.5985	8.67703
 382	1	2	0.033139	7.52253	-10.5206	8.48703
 383	1	1	-0.070169	8.50173	-10.6129	9.65363
 384	1	2	-0.051663	7.41633	-9.3656	7.68443
 385	1	4	-0.031436	8.38683	-8.3973	7.83513
 386	1	5	0.081364	8.09803	-11.2401	10.4595
 387	1	5	-0.00525	8.74043	-9.6373	10.1009
 388	1	5	-0.006128	9.43683	-11.072	9.31513
 389	1	5	0.002513	5.82883	-8.4501	4.73433
 390	1	5	0.147318	7.49563	-8.0492	5.17083
 391	1	5	0.144731	6.16693	-7.3134	6.06243
 392	1	1	-0.211274	5.78783	-12.5709	3.63093
 393	1	2	0.221306	6.57623	-13.5428	4.48673
 394	1	2	-0.631195	7.65343	-14.1804	3.85703
 395	1	3	0.289556	7.88933	-13.9553	2.82573
 396	1	2	0.263167	8.47603	-15.0628	4.55573
 397	1	2	-0.339066	8.13433	-15.4008	5.87163
 398	1	3	0.163087	8.74383	-16.1166	6.41143
 399	1	2	0.033139	7.07173	-14.7651	6.53943
 400	1	1	-0.070169	6.81643	-15.1952	7.98203
 401	1	2	-0.051663	6.32683	-13.7707	5.85993
 402	1	4	-0.031436	5.48233	-12.9236	6.55643
 403	1	5	0.081364	5.99483	-14.6482	8.45643
 404	1	5	-0.00525	7.71893	-15.0544	8.59433
 405	1	5	-0.006128	6.55243	-16.2606	8.02173
 406	1	5	0.002513	5.83863	-12.8528	2.57123
 407	1	5	0.147318	6.21143	-11.5699	3.72343
 408	1	5	0.144731	4.72873	-12.5267	3.90813
 409	1	1	-0.211274	10.8617	-13.68	5.95673
 410	1	2	0.221306	11.2754	-15.1309	5.73173
 411	1	2	-0.631195	12.1893	-15.7056	6.62623
 412	1	3	0.289556	12.5273	-15.1528	7.49603
 413	1	2	0.263167	12.6196	-17.0267	6.44853
 414	1	2	-0.339066	12.2607	-17.6984	5.26953
 415	1	3	0.163087	12.6617	-18.6898	5.07333
 416	1	2	0.033139	11.3077	-17.1693	4.39583
 417	1	1	-0.070169	10.9131	-18.0039	3.18653
 418	1	2	-0.051663	10.7321	-15.9151	4.68223
 419	1	4	-0.031436	9.63803	-15.5042	3.95813
 420	1	5	0.081364	9.94483	-17.7177	2.76073
 421	1	5	-0.00525	10.8466	-19.0676	3.44703
 422	1	5	-0.006128	11.6772	-17.9048	2.40413
 423	1	5	0.002513	11.735	-13.0515	6.17243
 424	1	5	0.147318	10.1676	-13.5799	6.79943
 425	1	5	0.144731	10.3722	-13.2608	5.06983
 426	1	1	-0.211274	10.463	-18.5448	8.23623
 427	1	2	0.221306	11.5959	-19.491	7.86833
 428	1	2	-0.631195	11.274	-20.8445	7.72043
 429	1	3	0.289556	10.2467	-21.1725	7.85843
 430	1	2	0.263167	12.2451	-21.7793	7.34403
 431	1	2	-0.339066	13.5798	-21.369	7.21993
 432	1	3	0.163087	14.3352	-22.1014	6.94813
 433	1	2	0.033139	13.9243	-20.013	7.36233
 434	1	1	-0.070169	15.3734	-19.5902	7.15233
 435	1	2	-0.051663	12.9225	-19.0573	7.63413
 436	1	4	-0.031436	13.2013	-17.7093	7.48613
 437	1	5	0.081364	15.9469	-19.7465	8.07323
 438	1	5	-0.00525	15.4709	-18.533	6.87433
 439	1	5	-0.006128	15.848	-20.1751	6.35793
 440	1	5	0.002513	10.4003	-18.4285	9.32583
 441	1	5	0.147318	9.50633	-18.9265	7.87223
 442	1	5	0.144731	10.5751	-17.5433	7.81203
 443	1	1	-0.211274	11.8823	-21.7927	4.24603
 444	1	2	0.221306	10.6489	-22.3793	4.92253
 445	1	2	-0.631195	9.40703	-22.2546	4.27463
 446	1	3	0.289556	9.33483	-21.6388	3.39083
 447	1	2	0.263167	8.26593	-22.8956	4.77643
 448	1	2	-0.339066	8.39043	-23.7079	5.90663
 449	1	3	0.163087	7.51753	-24.2464	6.26373
 450	1	2	0.033139	9.60913	-23.819	6.59513
 451	1	1	-0.070169	9.65713	-24.7168	7.82063
 452	1	2	-0.051663	10.739	-23.1196	6.12433
 453	1	4	-0.031436	11.8627	-23.0258	6.91083
 454	1	5	0.081364	10.6797	-24.9908	8.11093
 455	1	5	-0.00525	9.11513	-25.6483	7.61923
 456	1	5	-0.006128	9.17933	-24.228	8.67603
 457	1	5	0.002513	11.6669	-21.488	3.21563
 458	1	5	0.147318	12.6835	-22.5385	4.20193
 459	1	5	0.144731	12.273	-20.9219	4.77943
 460	1	1	-0.211274	7.48503	-22.0804	1.31893
 461	1	2	0.221306	6.47423	-21.4732	2.26743
 462	1	2	-0.631195	5.59013	-20.5436	1.71523
 463	1	3	0.289556	5.66243	-20.2811	0.666232
 464	1	2	0.263167	4.58913	-19.9715	2.50013
 465	1	2	-0.339066	4.53893	-20.2437	3.86853
 466	1	3	0.163087	3.78753	-19.7558	4.47703
 467	1	2	0.033139	5.42433	-21.1648	4.45713
 468	1	1	-0.070169	5.27723	-21.4297	5.95703
 469	1	2	-0.051663	6.37603	-21.8185	3.63593
 470	1	4	-0.031436	7.06963	-22.9085	4.10863
 471	1	5	0.081364	5.52713	-20.5376	6.54233
 472	1	5	-0.00525	5.91943	-22.246	6.30403
 473	1	5	-0.006128	4.24393	-21.6902	6.21813
 474	1	5	0.002513	7.13633	-22.008	0.280632
 475	1	5	0.147318	7.65623	-23.1416	1.53663
 476	1	5	0.144731	8.43973	-21.5427	1.37323
 477	1	1	-0.211274	2.58103	-16.6924	1.01783
 478	1	2	0.221306	1.82473	-18.0151	1.04813
 479	1	2	-0.631195	0.474132	-18.0122	0.670132
 480	1	3	0.289556	0.000431861	-17.0675	0.406132
 481	1	2	0.263167	-0.302168	-19.1759	0.763632
 482	1	2	-0.339066	0.337032	-20.3713	1.13143
 483	1	3	0.163087	-0.257668	-21.2763	1.21063
 484	1	2	0.033139	1.70283	-20.4111	1.47143
 485	1	1	-0.070169	2.29183	-21.7673	1.85243
 486	1	2	-0.051663	2.45023	-19.1979	1.48723
 487	1	4	-0.031436	3.75183	-19.059	1.92253
 488	1	5	0.081364	3.17583	-21.9921	1.25303
 489	1	5	-0.00525	1.57843	-22.581	1.68213
 490	1	5	-0.006128	2.56513	-21.7948	2.91193
 491	1	5	0.002513	2.62323	-16.245	2.02073
 492	1	5	0.147318	2.09203	-15.977	0.347032
 493	1	5	0.144731	3.61013	-16.8229	0.662732
 494	1	1	-0.211274	-2.93667	-18.5144	-1.93857
 495	1	2	0.221306	-2.88527	-17.5765	-0.751468
 496	1	2	-0.631195	-3.37677	-16.2726	-0.906168
 497	1	3	0.289556	-3.69357	-15.9258	-1.88907
 498	1	2	0.263167	-3.39167	-15.3849	0.181832
 499	1	2	-0.339066	-2.97937	-15.822	1.43723
 500	1	3	0.163087	-3.01777	-15.1317	2.28043
 501	1	2	0.033139	-2.47167	-17.1201	1.61233
 502	1	1	-0.070169	-2.03777	-17.5421	3.01503
 503	1	2	-0.051663	-2.37067	-17.9841	0.497332
 504	1	4	-0.031436	-1.66337	-19.1589	0.579832
 505	1	5	0.081364	-2.91417	-17.8364	3.59333
 506	1	5	-0.00525	-1.52697	-16.7195	3.52883
 507	1	5	-0.006128	-1.35507	-18.3912	3.00933
 508	1	5	0.002513	-2.94487	-17.9821	-2.89727
 509	1	5	0.147318	-3.84187	-19.1328	-1.89347
 510	1	5	0.144731	-2.06927	-19.1761	-1.93987
 511	1	1	-0.211274	-6.11707	-13.3575	-1.58557
 512	1	2	0.221306	-4.66727	-13.039	-1.94047
 513	1	2	-0.631195	-4.43277	-12.2459	-3.07357
 514	1	3	0.289556	-5.27217	-11.8713	-3.65087
 515	1	2	0.263167	-3.13347	-11.8245	-3.39167
 516	1	2	-0.339066	-2.06797	-12.2379	-2.58217
 517	1	3	0.163087	-1.07257	-11.8642	-2.79137
 518	1	2	0.033139	-2.28407	-12.9795	-1.41177
 519	1	1	-0.070169	-1.13867	-13.1073	-0.409568
 520	1	2	-0.051663	-3.59517	-13.3945	-1.10177
 521	1	4	-0.031436	-3.82607	-14.0994	0.0450323
 522	1	5	0.081364	-0.317068	-12.4177	-0.641168
 523	1	5	-0.00525	-0.726368	-14.1265	-0.369868
 524	1	5	-0.006128	-1.48187	-12.8335	0.592132
 525	1	5	0.002513	-6.69937	-12.4318	-1.64547
 526	1	5	0.147318	-6.25867	-13.7669	-0.571168
 527	1	5	0.144731	-6.53867	-14.0675	-2.30617
 528	1	1	-0.211274	-3.39657	-9.2421	-1.86477
 529	1	2	0.221306	-2.12047	-9.1437	-2.68547
 530	1	2	-0.631195	-1.01447	-8.4463	-2.16987
 531	1	3	0.289556	-1.06147	-8.0269	-1.17217
 532	1	2	0.263167	0.176732	-8.3388	-2.90377
 533	1	2	-0.339066	0.233032	-8.9146	-4.17817
 534	1	3	0.163087	1.14633	-8.8404	-4.75757
 535	1	2	0.033139	-0.848568	-9.6502	-4.69867
 536	1	1	-0.070169	-0.679968	-10.3256	-6.05897
 537	1	2	-0.051663	-2.02497	-9.8011	-3.93207
 538	1	4	-0.031436	-2.93497	-10.7865	-4.27577
 539	1	5	0.081364	-0.276568	-9.6053	-6.78277
 540	1	5	-0.00525	-1.62837	-10.6971	-6.47677
 541	1	5	-0.006128	0.0190319	-11.1756	-5.99347
 542	1	5	0.002513	-3.55477	-8.352	-1.24247
 543	1	5	0.147318	-3.37427	-10.1279	-1.21567
 544	1	5	0.144731	-4.27177	-9.3414	-2.52107
 545	1	1	-0.211274	1.15553	-5.2712	-0.872968
 546	1	2	0.221306	1.61533	-6.5917	-0.274568
 547	1	2	-0.631195	2.00743	-6.6536	1.08203
 548	1	3	0.289556	1.94703	-5.7789	1.71513
 549	1	2	0.263167	2.54253	-7.8435	1.61853
 550	1	2	-0.339066	2.77253	-8.917	0.752532
 551	1	3	0.163087	3.28833	-9.8017	1.12813
 552	1	2	0.033139	2.36783	-8.8851	-0.592468
 553	1	1	-0.070169	2.76033	-10.0651	-1.47447
 554	1	2	-0.051663	1.71393	-7.7382	-1.09757
 555	1	4	-0.031436	1.28313	-7.6818	-2.41467
 556	1	5	0.081364	2.66863	-9.8171	-2.52977
 557	1	5	-0.00525	2.13353	-10.9363	-1.26357
 558	1	5	-0.006128	3.80653	-10.349	-1.30117
 559	1	5	0.002513	1.73093	-5.0234	-1.77347
 560	1	5	0.147318	1.30193	-4.4464	-0.172568
 561	1	5	0.144731	0.0960319	-5.3053	-1.16377
 562	1	1	-0.211274	3.38973	-5.983	4.98973
 563	1	2	0.221306	2.38493	-7.1067	5.09723
 564	1	2	-0.631195	1.60463	-7.1833	6.24853
 565	1	3	0.289556	1.71003	-6.438	7.02503
 566	1	2	0.263167	0.652132	-8.1962	6.39523
 567	1	2	-0.339066	0.523932	-9.1682	5.39753
 568	1	3	0.163087	-0.225268	-9.9481	5.50953
 569	1	2	0.033139	1.31883	-9.12	4.24123
 570	1	1	-0.070169	1.18963	-10.2733	3.26303
 571	1	2	-0.051663	2.23123	-8.0514	4.06213
 572	1	4	-0.031436	3.00703	-7.9193	2.92143
 573	1	5	0.081364	0.553932	-9.999	2.41803
 574	1	5	-0.00525	0.761732	-11.1612	3.74923
 575	1	5	-0.006128	2.16923	-10.569	2.88323
 576	1	5	0.002513	4.39023	-6.3976	4.82883
 577	1	5	0.147318	3.42433	-5.3603	5.90083
 578	1	5	0.144731	3.15343	-5.3213	4.14313
 579	1	1	-0.211274	-1.18067	-10.3305	9.17013
 580	1	2	0.221306	-2.04727	-9.5011	8.22413
 581	1	2	-0.631195	-3.42547	-9.7775	8.18143
 582	1	3	0.289556	-3.82867	-10.5927	8.76653
 583	1	2	0.263167	-4.30037	-9.0117	7.38993
 584	1	2	-0.339066	-3.76817	-7.9731	6.62573
 585	1	3	0.163087	-4.44517	-7.3747	6.03023
 586	1	2	0.033139	-2.38487	-7.6914	6.60323
 587	1	1	-0.070169	-1.92967	-6.5348	5.69883
 588	1	2	-0.051663	-1.51597	-8.4593	7.42603
 589	1	4	-0.031436	-0.161368	-8.1882	7.50003
 590	1	5	0.081364	-2.73337	-6.2527	5.00183
 591	1	5	-0.00525	-1.06147	-6.7727	5.07923
 592	1	5	-0.006128	-1.69597	-5.6274	6.26833
 593	1	5	0.002513	-1.58317	-11.3476	9.26423
 594	1	5	0.147318	-1.14227	-9.8962	10.1748
 595	1	5	0.144731	-0.146468	-10.436	8.82203
 596	1	1	-0.211274	-6.08577	-7.8738	9.93423
 597	1	2	0.221306	-6.43857	-9.3247	9.64973
 598	1	2	-0.631195	-6.77227	-10.1327	10.739
 599	1	3	0.289556	-6.74777	-9.7195	11.7378
 600	1	2	0.263167	-7.08917	-11.4835	10.5723
 601	1	2	-0.339066	-7.09957	-12.0221	9.27343
 602	1	3	0.163087	-7.33477	-13.0761	9.12293
 603	1	2	0.033139	-6.72217	-11.234	8.17123
 604	1	1	-0.070169	-6.63037	-11.9057	6.80463
 605	1	2	-0.051663	-6.33097	-9.8913	8.36703
 606	1	4	-0.031436	-5.67187	-9.2082	7.36583
 607	1	5	0.081364	-6.65847	-11.1834	5.97133
 608	1	5	-0.00525	-7.46457	-12.6105	6.64023
 609	1	5	-0.006128	-5.68417	-12.4608	6.72813
 610	1	5	0.002513	-6.43947	-7.5655	10.9334
 611	1	5	0.147318	-6.56087	-7.1985	9.21543
 612	1	5	0.144731	-5.00557	-7.71	9.89093
 613	1	1	-0.211274	-6.89567	-15.1066	11.73
 614	1	2	0.221306	-8.08477	-14.395	12.3492
 615	1	2	-0.631195	-9.03787	-15.1354	13.0584
 616	1	3	0.289556	-8.93087	-16.2122	13.1857
 617	1	2	0.263167	-10.1594	-14.5197	13.6142
 618	1	2	-0.339066	-10.3403	-13.1449	13.441
 619	1	3	0.163087	-11.2067	-12.6847	13.8903
 620	1	2	0.033139	-9.41387	-12.3807	12.7095
 621	1	1	-0.070169	-9.73307	-10.9006	12.5439
 622	1	2	-0.051663	-8.26187	-12.9927	12.1759
 623	1	4	-0.031436	-7.19187	-12.2622	11.6932
 624	1	5	0.081364	-9.19807	-10.4229	11.7166
 625	1	5	-0.00525	-9.49827	-10.3538	13.46
 626	1	5	-0.006128	-10.8102	-10.7699	12.3167
 627	1	5	0.002513	-7.11187	-16.1653	11.5148
 628	1	5	0.147318	-6.02627	-15.0569	12.3889
 629	1	5	0.144731	-6.62427	-14.6493	10.7794
 630	1	6	0	-8.81811	12.7118	-0.529101
 631	1	3	0	-11.1789	-15.3425	14.4043

Velocities

   1	0.00239848	-0.00256788	-0.00241157
   2	0.000748538	-0.000819529	-0.000736328
   3	0.000173804	-0.00123778	0.000151282
   4	0.00239665	-0.00101632	-0.00140704
   5	0.0018349	-0.000892781	7.23753e-05
   6	0.00115084	-0.000288554	0.000892422
   7	0.00378866	-0.00248633	0.00121586
   8	-0.00084781	-0.000990697	-0.00115819
   9	-0.000578196	-0.000715853	0.000139544
  10	-0.00148393	-0.000713102	-0.000928553
  11	-0.00126703	0.000835645	-0.000402154
  12	-0.000188871	0.000189676	-0.000680445
  13	-0.00132142	0.000922908	0.00142351
  14	-0.00178236	0.000457875	-0.00200277
  15	0.00891582	-0.000673771	-0.00232165
  16	0.000304812	-0.00204509	-0.00503927
  17	0.00479304	-0.00170614	-0.00241103
  18	0.00176326	0.000175107	0.000804221
  19	0.00136102	-8.82578e-05	0.000291005
  20	0.0018936	-4.50921e-05	-3.0806e-05
  21	0.00438416	-0.00361862	0.000501799
  22	6.59689e-05	0.00184389	0.000990461
  23	0.00162971	-0.000544834	-0.00123226
  24	-0.000459301	0.00247671	-0.00237971
  25	0.000184154	-0.00110562	-0.000900842
  26	0.00124529	-0.00127844	-0.000770536
  27	0.00129709	1.2151e-05	-3.35631e-05
  28	0.0035121	0.00163813	-0.000229156
  29	0.0029079	0.00302528	0.000713809
  30	0.0027979	-0.00791506	-0.00394817
  31	-0.0019538	0.00148361	0.00252007
  32	0.00100949	-0.0103548	-0.00203101