pySIMM System Object

818 atoms
865 bonds
1488 angles
1918 dihedrals
192 impropers

6 atom types
6 bond types
8 angle types
3 dihedral types
2 improper types

-132.855994 132.855994 xlo xhi
-132.855994 132.855994 ylo yhi
-132.855994 132.855994 zlo zhi

Masses

   1	12.01	# c3
   2	12.01	# ca
   3	1.008	# ha
   4	16.0	# oh
   5	1.008	# hc
   6	1.008	# ho

Pair Coeffs

   1	0.1094	3.3996695084235347	# c3
   2	0.086	3.3996695084235347	# ca
   3	0.015	2.59964245953351	# ha
   4	0.2104	3.0664733878390478	# oh
   5	0.0157	2.649532787749369	# hc
   6	0.0047	0.5379246460131368	# ho

Bond Coeffs

   1	371.4	0.973	# ho,oh
   2	461.1	1.3984	# ca,ca
   3	384.0	1.3637	# ca,oh
   4	345.8	1.086	# ca,ha
   5	321.0	1.5156	# c3,ca
   6	330.6	1.0969	# c3,hc

Angle Coeffs

   1	46.8	110.47	# ca,c3,hc
   2	49.0	108.58	# ca,oh,ho
   3	69.52	119.9	# ca,ca,oh
   4	66.62	120.02	# ca,ca,ca
   5	39.4	107.58	# hc,c3,hc
   6	48.18	119.88	# ca,ca,ha
   7	63.53	120.77	# c3,ca,ca
   8	63.5	119.89	# ca,oh,ca

Dihedral Coeffs

   1	1	3.625	2	180	# X,ca,ca,X
   2	1	0.9	2	180	# X,ca,oh,X
   3	1	0.0	2	0	# X,c3,ca,X

Improper Coeffs

   1	1.1	-1	2	# ca,X,X,ha
   2	1.1	-1	2	# ca,ca,ca,c3

Atoms

   1	1	1	-0.211274	-20.4271	2.87562	5.93349
   2	1	2	0.221306	-18.9614	3.11048	5.61126
   3	1	2	-0.631195	-17.9664	2.86057	6.57315
   4	1	3	0.289556	-18.2561	2.47634	7.54823
   5	1	2	0.263167	-16.6154	3.15535	6.29905
   6	1	2	-0.339066	-16.2745	3.68213	5.04777
   7	1	3	0.163087	-15.2405	3.94743	4.84572
   8	1	2	0.033139	-17.2511	3.9259	4.06838
   9	1	1	-0.070169	-16.8373	4.54849	2.74334
  10	1	2	-0.051663	-18.6015	3.64654	4.36276
  11	1	4	-0.031436	-19.5778	3.94645	3.45528
  12	1	5	0.081364	-17.0382	3.87979	1.8986
  13	1	5	-0.00525	-15.7645	4.77735	2.74338
  14	1	5	-0.006128	-17.3759	5.48641	2.56806
  15	1	5	0.002513	-20.6102	2.62735	6.98512
  16	1	5	0.147318	-20.8357	2.07252	5.31107
  17	1	5	0.144731	-20.9953	3.78246	5.70225
  18	1	1	-0.211274	-16.8811	5.23045	8.62178
  19	1	2	0.221306	-16.5156	3.9195	9.29115
  20	1	2	-0.631195	-16.856	3.73667	10.635
  21	1	3	0.289556	-17.3818	4.52175	11.1678
  22	1	2	0.263167	-16.5517	2.5369	11.2982
  23	1	2	-0.339066	-15.8778	1.52806	10.6038
  24	1	3	0.163087	-15.6717	0.592198	11.1088
  25	1	2	0.033139	-15.5208	1.69052	9.25485
  26	1	1	-0.070169	-14.8226	0.553153	8.5249
  27	1	2	-0.051663	-15.8748	2.87499	8.58451
  28	1	4	-0.031436	-15.6241	2.98918	7.24075
  29	1	5	0.081364	-15.522	0.0434752	7.85559
  30	1	5	-0.00525	-14.4213	-0.193239	9.22042
  31	1	5	-0.006128	-13.9885	0.923431	7.9181
  32	1	5	0.002513	-16.9637	6.05271	9.34259
  33	1	5	0.147318	-17.8401	5.13346	8.1011
  34	1	5	0.144731	-16.1251	5.51325	7.8817
  35	1	1	-0.211274	-16.882	4.34845	14.6341
  36	1	2	0.221306	-18.1719	3.81269	14.0379
  37	1	2	-0.631195	-19.4025	4.35966	14.4457
  38	1	3	0.289556	-19.4251	5.14692	15.1891
  39	1	2	0.263167	-20.6064	3.89282	13.8997
  40	1	2	-0.339066	-20.5698	2.86197	12.9493
  41	1	3	0.163087	-21.491	2.47516	12.5274
  42	1	2	0.033139	-19.3544	2.30704	12.5277
  43	1	1	-0.070169	-19.3878	1.17402	11.5191
  44	1	2	-0.051663	-18.1461	2.79927	13.0618
  45	1	4	-0.031436	-16.944	2.32365	12.5975
  46	1	5	0.081364	-20.3847	0.72378	11.4513
  47	1	5	-0.00525	-18.6923	0.379866	11.8124
  48	1	5	-0.006128	-19.1135	1.52669	10.5175
  49	1	5	0.002513	-17.0601	4.95087	15.5327
  50	1	5	0.147318	-16.3518	4.96965	13.9037
  51	1	5	0.144731	-16.2107	3.5267	14.9113
  52	1	1	-0.211274	-21.9736	6.08917	11.8992
  53	1	2	0.221306	-23.0134	5.0541	12.2903
  54	1	2	-0.631195	-24.0501	4.77487	11.3902
  55	1	3	0.289556	-24.1066	5.31664	10.4504
  56	1	2	0.263167	-24.9994	3.78536	11.6787
  57	1	2	-0.339066	-24.9283	3.09808	12.8953
  58	1	3	0.163087	-25.6655	2.33221	13.115
  59	1	2	0.033139	-23.8941	3.35717	13.812
  60	1	1	-0.070169	-23.8021	2.53458	15.0899
  61	1	2	-0.051663	-22.9206	4.32723	13.4955
  62	1	4	-0.031436	-21.802	4.45545	14.2861
  63	1	5	0.081364	-23.6566	3.18206	15.9636
  64	1	5	-0.00525	-22.9599	1.83335	15.044
  65	1	5	-0.006128	-24.7136	1.94899	15.2632
  66	1	5	0.002513	-22.3335	6.75025	11.1013
  67	1	5	0.147318	-21.0597	5.59757	11.5458
  68	1	5	0.144731	-21.7093	6.71874	12.7562
  69	1	1	-0.211274	-23.7349	1.93016	9.51965
  70	1	2	0.221306	-24.7134	2.81351	8.76261
  71	1	2	-0.631195	-24.5515	2.9199	7.37643
  72	1	3	0.289556	-23.7277	2.40052	6.89683
  73	1	2	0.263167	-25.4489	3.67422	6.60313
  74	1	2	-0.339066	-26.495	4.34915	7.24043
  75	1	3	0.163087	-27.1851	4.93625	6.64214
  76	1	2	0.033139	-26.6642	4.27638	8.63145
  77	1	1	-0.070169	-27.8094	5.03857	9.28565
  78	1	2	-0.051663	-25.7711	3.50343	9.40222
  79	1	4	-0.031436	-25.9586	3.43113	10.7638
  80	1	5	0.081364	-27.4353	5.7114	10.0673
  81	1	5	-0.00525	-28.5261	4.34804	9.74712
  82	1	5	-0.006128	-28.3583	5.65121	8.55921
  83	1	5	0.002513	-23.2146	1.23013	8.85392
  84	1	5	0.147318	-24.2542	1.33548	10.2776
  85	1	5	0.144731	-22.9761	2.54117	10.0214
  86	1	1	-0.211274	-25.9257	0.884989	5.06124
  87	1	2	0.221306	-24.7548	1.56732	4.37464
  88	1	2	-0.631195	-23.8831	0.778228	3.61356
  89	1	3	0.289556	-24.0487	-0.290467	3.5324
  90	1	2	0.263167	-22.8092	1.3514	2.92637
  91	1	2	-0.339066	-22.61	2.73832	3.01122
  92	1	3	0.163087	-21.7985	3.19748	2.45895
  93	1	2	0.033139	-23.4552	3.54811	3.78251
  94	1	1	-0.070169	-23.2021	5.04973	3.84551
  95	1	2	-0.051663	-24.529	2.95903	4.47762
  96	1	4	-0.031436	-25.3475	3.75757	5.23811
  97	1	5	0.081364	-24.0809	5.60447	3.49484
  98	1	5	-0.00525	-22.353	5.34793	3.21751
  99	1	5	-0.006128	-22.9849	5.3736	4.87126
 100	1	5	0.002513	-26.137	-0.0997413	4.62584
 101	1	5	0.147318	-26.8367	1.48755	4.97209
 102	1	5	0.144731	-25.7179	0.742247	6.12767
 103	1	1	-0.211274	-19.1564	0.639229	2.76653
 104	1	2	0.221306	-19.7639	1.13704	1.4653
 105	1	2	-0.631195	-18.9197	1.70693	0.501606
 106	1	3	0.289556	-17.855	1.77602	0.694874
 107	1	2	0.263167	-19.4373	2.16985	-0.721205
 108	1	2	-0.339066	-20.8093	2.05883	-0.966653
 109	1	3	0.163087	-21.207	2.41112	-1.91316
 110	1	2	0.033139	-21.6738	1.49516	-0.015665
 111	1	1	-0.070169	-23.1615	1.39612	-0.332609
 112	1	2	-0.051663	-21.1478	1.04016	1.21223
 113	1	4	-0.031436	-21.9881	0.544704	2.17833
 114	1	5	0.081364	-23.7365	2.11794	0.260499
 115	1	5	-0.00525	-23.5482	0.392969	-0.113069
 116	1	5	-0.006128	-23.3649	1.6001	-1.3915
 117	1	5	0.002513	-19.7763	0.906322	3.62884
 118	1	5	0.147318	-18.1619	1.06716	2.93457
 119	1	5	0.144731	-19.0535	-0.451475	2.75471
 120	1	1	-0.211274	-17.413	5.25761	-1.08386
 121	1	2	0.221306	-16.626	3.97934	-1.30774
 122	1	2	-0.631195	-15.2321	4.00448	-1.16582
 123	1	3	0.289556	-14.7291	4.92567	-0.892274
 124	1	2	0.263167	-14.4783	2.838	-1.33366
 125	1	2	-0.339066	-15.1302	1.64349	-1.67927
 126	1	3	0.163087	-14.5549	0.732012	-1.80447
 127	1	2	0.033139	-16.5223	1.5985	-1.84213
 128	1	1	-0.070169	-17.1856	0.279545	-2.22237
 129	1	2	-0.051663	-17.2764	2.77039	-1.62709
 130	1	4	-0.031436	-18.646	2.73305	-1.69329
 131	1	5	0.081364	-17.7428	-0.139684	-1.37583
 132	1	5	-0.00525	-16.4482	-0.469674	-2.537
 133	1	5	-0.006128	-17.8879	0.415958	-3.05447
 134	1	5	0.002513	-16.7629	6.10452	-0.830769
 135	1	5	0.147318	-18.1325	5.12919	-0.266661
 136	1	5	0.144731	-17.9726	5.52288	-1.98809
 137	1	1	-0.211274	-11.501	1.04514	-2.6497
 138	1	2	0.221306	-11.768	0.876045	-1.16491
 139	1	2	-0.631195	-11.3249	-0.290811	-0.528876
 140	1	3	0.289556	-10.8053	-1.05509	-1.09493
 141	1	2	0.263167	-11.6155	-0.519555	0.820371
 142	1	2	-0.339066	-12.2996	0.463339	1.55247
 143	1	3	0.163087	-12.5189	0.295859	2.60157
 144	1	2	0.033139	-12.7644	1.63187	0.934353
 145	1	1	-0.070169	-13.5745	2.62855	1.75592
 146	1	2	-0.051663	-12.5235	1.8235	-0.442767
 147	1	4	-0.031436	-13.1263	2.86523	-1.10207
 148	1	5	0.081364	-14.6418	2.55275	1.51513
 149	1	5	-0.00525	-13.2548	3.6596	1.5593
 150	1	5	-0.006128	-13.4649	2.45138	2.83338
 151	1	5	0.002513	-10.7176	0.364223	-3.00578
 152	1	5	0.147318	-11.1769	2.06841	-2.87001
 153	1	5	0.144731	-12.4109	0.845798	-3.2269
 154	1	1	-0.211274	-10.2812	-2.01838	4.06469
 155	1	2	0.221306	-11.6923	-2.4067	3.6589
 156	1	2	-0.631195	-12.5885	-2.80428	4.65945
 157	1	3	0.289556	-12.2613	-2.86208	5.68979
 158	1	2	0.263167	-13.9269	-3.06904	4.35051
 159	1	2	-0.339066	-14.3576	-3.0104	3.02115
 160	1	3	0.163087	-15.3976	-3.22107	2.78999
 161	1	2	0.033139	-13.4739	-2.6336	1.99796
 162	1	1	-0.070169	-14.0082	-2.54942	0.572338
 163	1	2	-0.051663	-12.1404	-2.29121	2.32681
 164	1	4	-0.031436	-11.3116	-1.73366	1.38244
 165	1	5	0.081364	-14.8652	-3.21854	0.429249
 166	1	5	-0.00525	-13.247	-2.8392	-0.162684
 167	1	5	-0.006128	-14.3403	-1.53057	0.336233
 168	1	5	0.002513	-10.2043	-0.935885	4.22599
 169	1	5	0.147318	-9.55356	-2.29915	3.29516
 170	1	5	0.144731	-9.97968	-2.51712	4.99199
 171	1	1	-0.211274	-14.9808	-0.310871	4.94652
 172	1	2	0.221306	-16.129	-1.21394	5.37502
 173	1	2	-0.631195	-17.3425	-0.585664	5.69105
 174	1	3	0.289556	-17.4259	0.493675	5.61975
 175	1	2	0.263167	-18.4346	-1.31586	6.16661
 176	1	2	-0.339066	-18.3278	-2.70902	6.2687
 177	1	3	0.163087	-19.1718	-3.28155	6.64264
 178	1	2	0.033139	-17.1263	-3.36576	5.96104
 179	1	1	-0.070169	-17.0443	-4.87727	6.1355
 180	1	2	-0.051663	-16.0076	-2.62052	5.53116
 181	1	4	-0.031436	-14.8147	-3.29443	5.36439
 182	1	5	0.081364	-16.7735	-5.36303	5.18996
 183	1	5	-0.00525	-18.0017	-5.30291	6.46186
 184	1	5	-0.006128	-16.2898	-5.14824	6.88449
 185	1	5	0.002513	-15.1909	0.746887	5.14571
 186	1	5	0.147318	-14.7913	-0.408786	3.87127
 187	1	5	0.144731	-14.0573	-0.559938	5.47912
 188	1	1	-0.211274	-18.0058	-0.952239	9.15367
 189	1	2	0.221306	-19.4899	-1.24083	9.00564
 190	1	2	-0.631195	-20.1689	-1.71067	10.1345
 191	1	3	0.289556	-19.612	-1.84448	11.0539
 192	1	2	0.263167	-21.5332	-2.02329	10.0875
 193	1	2	-0.339066	-22.2298	-1.80172	8.89209
 194	1	3	0.163087	-23.2897	-2.02938	8.84945
 195	1	2	0.033139	-21.5774	-1.30304	7.74878
 196	1	1	-0.070169	-22.3729	-1.0687	6.47078
 197	1	2	-0.051663	-20.1905	-1.05034	7.79118
 198	1	4	-0.031436	-19.5393	-0.653313	6.64166
 199	1	5	0.081364	-21.9838	-1.68362	5.64995
 200	1	5	-0.00525	-22.3138	-0.0174391	6.16187
 201	1	5	-0.006128	-23.4342	-1.31589	6.59824
 202	1	5	0.002513	-17.6877	-0.918809	10.2019
 203	1	5	0.147318	-17.7612	0.0143152	8.70195
 204	1	5	0.144731	-17.406	-1.72619	8.66342
 205	1	1	-0.211274	-23.5569	-0.650391	12.8831
 206	1	2	0.221306	-22.398	-1.5198	13.3398
 207	1	2	-0.631195	-21.9394	-1.36483	14.6544
 208	1	3	0.289556	-22.4325	-0.662486	15.3154
 209	1	2	0.263167	-20.8366	-2.09184	15.1173
 210	1	2	-0.339066	-20.2448	-3.04077	14.2748
 211	1	3	0.163087	-19.41	-3.62846	14.6404
 212	1	2	0.033139	-20.7195	-3.25307	12.9703
 213	1	1	-0.070169	-20.0523	-4.34259	12.1358
 214	1	2	-0.051663	-21.7697	-2.44279	12.4758
 215	1	4	-0.031436	-22.2032	-2.5431	11.1723
 216	1	5	0.081364	-20.6455	-4.61906	11.2562
 217	1	5	-0.00525	-19.9096	-5.25471	12.7289
 218	1	5	-0.006128	-19.0628	-4.02063	11.7881
 219	1	5	0.002513	-24.211	-0.379186	13.7212
 220	1	5	0.147318	-24.1776	-1.16498	12.1412
 221	1	5	0.144731	-23.1807	0.275729	12.4356
 222	1	1	-0.211274	-19.9608	0.9791	15.8817
 223	1	2	0.221306	-18.847	0.0337158	16.2834
 224	1	2	-0.631195	-17.5505	0.553752	16.3889
 225	1	3	0.289556	-17.3699	1.59895	16.1646
 226	1	2	0.263167	-16.4879	-0.261263	16.7916
 227	1	2	-0.339066	-16.7367	-1.59802	17.1224
 228	1	3	0.163087	-15.9128	-2.22277	17.4524
 229	1	2	0.033139	-18.0266	-2.14459	17.0137
 230	1	1	-0.070169	-18.2349	-3.60906	17.3802
 231	1	2	-0.051663	-19.0871	-1.33152	16.5572
 232	1	4	-0.031436	-20.3425	-1.86537	16.3768
 233	1	5	0.081364	-19.22	-3.77739	17.8321
 234	1	5	-0.00525	-17.4849	-3.94672	18.1068
 235	1	5	-0.006128	-18.15	-4.25274	16.4967
 236	1	5	0.002513	-19.6889	2.02602	16.0587
 237	1	5	0.147318	-20.8695	0.78235	16.4583
 238	1	5	0.144731	-20.1938	0.859054	14.8187
 239	1	1	-0.211274	-15.4354	-0.614033	13.9825
 240	1	2	0.221306	-14.6376	0.576631	14.4923
 241	1	2	-0.631195	-13.901	1.3055	13.5479
 242	1	3	0.289556	-13.9346	1.02062	12.5028
 243	1	2	0.263167	-13.1037	2.39241	13.9271
 244	1	2	-0.339066	-13.0625	2.76319	15.2741
 245	1	3	0.163087	-12.4397	3.60196	15.569
 246	1	2	0.033139	-13.7876	2.04988	16.2441
 247	1	1	-0.070169	-13.6906	2.4756	17.7038
 248	1	2	-0.051663	-14.5815	0.947143	15.8594
 249	1	4	-0.031436	-15.2063	0.217874	16.8497
 250	1	5	0.081364	-13.0337	3.34465	17.8313
 251	1	5	-0.00525	-13.2879	1.66547	18.3248
 252	1	5	-0.006128	-14.6775	2.74743	18.0989
 253	1	5	0.002513	-15.1518	-0.896054	12.9613
 254	1	5	0.147318	-16.5082	-0.384909	13.9776
 255	1	5	0.144731	-15.2798	-1.49363	14.6166
 256	1	1	-0.211274	-10.5379	0.765861	12.9394
 257	1	2	0.221306	-11.0877	1.4627	11.7058
 258	1	2	-0.631195	-10.7018	0.980338	10.4478
 259	1	3	0.289556	-10.0202	0.139783	10.3932
 260	1	2	0.263167	-11.1618	1.58993	9.2688
 261	1	2	-0.339066	-12.0094	2.69919	9.36731
 262	1	3	0.163087	-12.3572	3.17766	8.45756
 263	1	2	0.033139	-12.4015	3.20621	10.6181
 264	1	1	-0.070169	-13.2909	4.44042	10.6805
 265	1	2	-0.051663	-11.9507	2.57775	11.7966
 266	1	4	-0.031436	-12.3363	3.08021	13.0188
 267	1	5	0.081364	-13.7392	4.6627	9.7055
 268	1	5	-0.00525	-12.7133	5.32	10.9902
 269	1	5	-0.006128	-14.1101	4.30751	11.3975
 270	1	5	0.002513	-9.71007	0.0878246	12.6961
 271	1	5	0.147318	-11.3217	0.175217	13.4276
 272	1	5	0.144731	-10.1651	1.49699	13.6654
 273	1	1	-0.211274	-11.5944	-1.63268	8.22838
 274	1	2	0.221306	-10.1784	-1.18807	7.9038
 275	1	2	-0.631195	-9.18505	-2.16206	7.72769
 276	1	3	0.289556	-9.43306	-3.21402	7.82074
 277	1	2	0.263167	-7.86395	-1.79643	7.43931
 278	1	2	-0.339066	-7.542	-0.437527	7.31463
 279	1	3	0.163087	-6.52365	-0.148547	7.07245
 280	1	2	0.033139	-8.51926	0.555632	7.49872
 281	1	1	-0.070169	-8.12938	2.02285	7.37395
 282	1	2	-0.051663	-9.84298	0.17786	7.80443
 283	1	4	-0.031436	-10.7968	1.14395	8.02041
 284	1	5	0.081364	-8.43106	2.58771	8.26488
 285	1	5	-0.00525	-8.61233	2.48257	6.50257
 286	1	5	-0.006128	-7.04538	2.14779	7.2578
 287	1	5	0.002513	-11.7318	-2.71203	8.08761
 288	1	5	0.147318	-12.3186	-1.11432	7.58985
 289	1	5	0.144731	-11.843	-1.39492	9.26941
 290	1	1	-0.211274	-6.02856	-1.99676	9.9832
 291	1	2	0.221306	-5.0943	-2.31186	8.82642
 292	1	2	-0.631195	-3.71321	-2.28125	9.06895
 293	1	3	0.289556	-3.34357	-2.03512	10.058
 294	1	2	0.263167	-2.79367	-2.60947	8.06581
 295	1	2	-0.339066	-3.27424	-2.93019	6.78638
 296	1	3	0.163087	-2.57318	-3.18065	5.99633
 297	1	2	0.033139	-4.65338	-2.95786	6.51633
 298	1	1	-0.070169	-5.13218	-3.33038	5.11881
 299	1	2	-0.051663	-5.5746	-2.65556	7.54124
 300	1	4	-0.031436	-6.92265	-2.78371	7.28399
 301	1	5	0.081364	-5.64591	-4.29912	5.12985
 302	1	5	-0.00525	-4.29877	-3.40343	4.40874
 303	1	5	-0.006128	-5.83104	-2.57991	4.72774
 304	1	5	0.002513	-5.51314	-2.03761	10.951
 305	1	5	0.147318	-6.85888	-2.71024	10.022
 306	1	5	0.144731	-6.44909	-0.990832	9.87115
 307	1	1	-0.211274	0.32583	-0.915617	6.86395
 308	1	2	0.221306	0.398593	-2.43076	6.83263
 309	1	2	-0.631195	1.36238	-3.04741	6.02119
 310	1	3	0.289556	2.03824	-2.43907	5.42962
 311	1	2	0.263167	1.46072	-4.44492	5.96942
 312	1	2	-0.339066	0.596818	-5.21903	6.75272
 313	1	3	0.163087	0.683968	-6.29992	6.71782
 314	1	2	0.033139	-0.370743	-4.62242	7.57888
 315	1	1	-0.070169	-1.26045	-5.50991	8.44135
 316	1	2	-0.051663	-0.487286	-3.21601	7.59923
 317	1	4	-0.031436	-1.45125	-2.60386	8.36758
 318	1	5	0.081364	-0.908315	-6.54852	8.44826
 319	1	5	-0.00525	-2.29365	-5.51369	8.07351
 320	1	5	-0.006128	-1.27143	-5.16433	9.48287
 321	1	5	0.002513	1.06057	-0.451521	6.19427
 322	1	5	0.147318	0.51679	-0.547585	7.87848
 323	1	5	0.144731	-0.670406	-0.57373	6.56066
 324	1	1	-0.211274	2.30487	-4.8097	2.30258
 325	1	2	0.221306	3.50485	-4.43711	3.15436
 326	1	2	-0.631195	4.674	-4.00201	2.51375
 327	1	3	0.289556	4.71575	-3.93124	1.43352
 328	1	2	0.263167	5.80656	-3.64588	3.25403
 329	1	2	-0.339066	5.74805	-3.70411	4.65604
 330	1	3	0.163087	6.60966	-3.40431	5.2441
 331	1	2	0.033139	4.59289	-4.15263	5.31932
 332	1	1	-0.070169	4.60111	-4.21475	6.84267
 333	1	2	-0.051663	3.46506	-4.53677	4.5606
 334	1	4	-0.031436	2.36197	-5.09499	5.16304
 335	1	5	0.081364	4.01777	-5.0624	7.22201
 336	1	5	-0.00525	4.17584	-3.2971	7.26837
 337	1	5	-0.006128	5.62054	-4.32098	7.23461
 338	1	5	0.002513	1.37425	-4.41103	2.72612
 339	1	5	0.147318	2.20755	-5.89838	2.23215
 340	1	5	0.144731	2.39646	-4.40686	1.2885
 341	1	1	-0.211274	8.32352	-5.71832	3.38124
 342	1	2	0.221306	8.89026	-4.32186	3.57004
 343	1	2	-0.631195	10.1334	-4.18982	4.20392
 344	1	3	0.289556	10.6711	-5.07091	4.53434
 345	1	2	0.263167	10.6845	-2.9251	4.43785
 346	1	2	-0.339066	9.99915	-1.78496	3.99815
 347	1	3	0.163087	10.4334	-0.805321	4.17309
 348	1	2	0.033139	8.75804	-1.89381	3.35044
 349	1	1	-0.070169	8.03825	-0.632819	2.89013
 350	1	2	-0.051663	8.18615	-3.16783	3.15861
 351	1	4	-0.031436	6.94277	-3.26583	2.57901
 352	1	5	0.081364	8.55799	0.27391	3.22302
 353	1	5	-0.00525	7.01665	-0.592027	3.28835
 354	1	5	-0.006128	7.97644	-0.597572	1.79505
 355	1	5	0.002513	9.10037	-6.4898	3.45726
 356	1	5	0.147318	7.85096	-5.81975	2.39804
 357	1	5	0.144731	7.56484	-5.92815	4.14449
 358	1	1	-0.211274	10.2432	-3.40156	7.53391
 359	1	2	0.221306	11.1619	-2.19952	7.39755
 360	1	2	-0.631195	11.2294	-1.30137	8.47054
 361	1	3	0.289556	10.6378	-1.47821	9.36159
 362	1	2	0.263167	12.0606	-0.179352	8.41667
 363	1	2	-0.339066	12.8379	0.0393113	7.26596
 364	1	3	0.163087	13.4925	0.903484	7.21032
 365	1	2	0.033139	12.7861	-0.846479	6.17651
 366	1	1	-0.070169	13.6394	-0.569541	4.944
 367	1	2	-0.051663	11.9339	-1.96866	6.23588
 368	1	4	-0.031436	11.847	-2.81387	5.15407
 369	1	5	0.081364	13.0182	-0.484542	4.04408
 370	1	5	-0.00525	14.3639	-1.37681	4.7788
 371	1	5	-0.006128	14.2037	0.366543	5.04162
 372	1	5	0.002513	9.9275	-3.56411	8.57229
 373	1	5	0.147318	10.7452	-4.31407	7.19537
 374	1	5	0.144731	9.34223	-3.26242	6.92547
 375	1	1	-0.211274	11.4384	3.40205	8.82609
 376	1	2	0.221306	12.7999	2.96533	9.33723
 377	1	2	-0.631195	13.8262	3.91365	9.44093
 378	1	3	0.289556	13.6483	4.94474	9.15685
 379	1	2	0.263167	15.1042	3.53564	9.86867
 380	1	2	-0.339066	15.3398	2.20486	10.2432
 381	1	3	0.163087	16.3265	1.90851	10.5841
 382	1	2	0.033139	14.3235	1.24197	10.1586
 383	1	1	-0.070169	14.6187	-0.194096	10.5727
 384	1	2	-0.051663	13.0545	1.62103	9.67567
 385	1	4	-0.031436	12.0799	0.673571	9.49344
 386	1	5	0.081364	14.6091	-0.862468	9.70285
 387	1	5	-0.00525	13.871	-0.557886	11.289
 388	1	5	-0.006128	15.6017	-0.284763	11.0516
 389	1	5	0.002513	11.3687	4.49142	8.71305
 390	1	5	0.147318	10.6494	3.08697	9.51871
 391	1	5	0.144731	11.2319	2.94526	7.85101
 392	1	1	-0.211274	17.9599	4.63014	12.0839
 393	1	2	0.221306	18.3717	4.23975	10.676
 394	1	2	-0.631195	19.7169	3.93904	10.419
 395	1	3	0.289556	20.451	4.01804	11.2126
 396	1	2	0.263167	20.1294	3.53964	9.14277
 397	1	2	-0.339066	19.1725	3.43004	8.12075
 398	1	3	0.163087	19.4755	3.11249	7.12778
 399	1	2	0.033139	17.8232	3.74163	8.35103
 400	1	1	-0.070169	16.8334	3.62361	7.1972
 401	1	2	-0.051663	17.4202	4.15359	9.63992
 402	1	4	-0.031436	16.1068	4.46885	9.89683
 403	1	5	0.081364	16.1866	2.74698	7.32743
 404	1	5	-0.00525	17.3447	3.51424	6.23242
 405	1	5	-0.006128	16.193	4.51176	7.12813
 406	1	5	0.002513	18.8065	4.62053	12.7817
 407	1	5	0.147318	17.2044	3.93296	12.4657
 408	1	5	0.144731	17.526	5.6362	12.0913
 409	1	1	-0.211274	21.478	0.40848	9.3137
 410	1	2	0.221306	21.8925	1.07531	8.01484
 411	1	2	-0.631195	22.2538	0.271065	6.92578
 412	1	3	0.289556	22.2256	-0.809001	7.01723
 413	1	2	0.263167	22.5911	0.851548	5.6962
 414	1	2	-0.339066	22.6238	2.24679	5.58178
 415	1	3	0.163087	22.9005	2.69271	4.63168
 416	1	2	0.033139	22.2715	3.07275	6.66141
 417	1	1	-0.070169	22.2782	4.58638	6.47555
 418	1	2	-0.051663	21.8874	2.47967	7.88245
 419	1	4	-0.031436	21.4576	3.26054	8.92726
 420	1	5	0.081364	21.3754	5.04752	6.89461
 421	1	5	-0.00525	22.317	4.86211	5.4139
 422	1	5	-0.006128	23.1481	5.03765	6.96871
 423	1	5	0.002513	21.6745	-0.670849	9.30545
 424	1	5	0.147318	20.406	0.557508	9.48962
 425	1	5	0.144731	22.024	0.840041	10.1598
 426	1	1	-0.211274	24.8255	-1.96896	4.08085
 427	1	2	0.221306	23.3255	-2.17511	3.95945
 428	1	2	-0.631195	22.8676	-3.40824	3.47584
 429	1	3	0.289556	23.5758	-4.16854	3.16936
 430	1	2	0.263167	21.4992	-3.66072	3.33209
 431	1	2	-0.339066	20.5838	-2.68083	3.74915
 432	1	3	0.163087	19.5189	-2.87469	3.66322
 433	1	2	0.033139	21.0182	-1.42076	4.20417
 434	1	1	-0.070169	19.9654	-0.366481	4.53652
 435	1	2	-0.051663	22.4073	-1.15861	4.29595
 436	1	4	-0.031436	22.8992	0.0940768	4.59602
 437	1	5	0.081364	20.239	0.616109	4.13319
 438	1	5	-0.00525	19.8411	-0.264471	5.62163
 439	1	5	-0.006128	18.9839	-0.62548	4.12011
 440	1	5	0.002513	25.2463	-1.56381	3.15263
 441	1	5	0.147318	25.3306	-2.9159	4.29937
 442	1	5	0.144731	25.0703	-1.28079	4.89854
 443	1	1	-0.211274	19.9619	-7.41379	3.399
 444	1	2	0.221306	19.2968	-6.39771	2.48425
 445	1	2	-0.631195	18.0407	-6.72408	1.94992
 446	1	3	0.289556	17.5458	-7.64501	2.23494
 447	1	2	0.263167	17.3787	-5.83724	1.09594
 448	1	2	-0.339066	18.0269	-4.65562	0.710973
 449	1	3	0.163087	17.5381	-3.97868	0.0183455
 450	1	2	0.033139	19.2883	-4.31154	1.21922
 451	1	1	-0.070169	19.9192	-3.0296	0.684691
 452	1	2	-0.051663	19.9073	-5.15979	2.1721
 453	1	4	-0.031436	21.1186	-4.85664	2.76232
 454	1	5	0.081364	21.011	-3.02891	0.778493
 455	1	5	-0.00525	19.5254	-2.1503	1.20949
 456	1	5	-0.006128	19.6924	-2.89955	-0.381024
 457	1	5	0.002513	19.7031	-7.23287	4.44921
 458	1	5	0.147318	21.0533	-7.3867	3.30449
 459	1	5	0.144731	19.6465	-8.43144	3.14276
 460	1	1	-0.211274	15.2658	-5.46352	-2.03014
 461	1	2	0.221306	14.8065	-4.70249	-0.797374
 462	1	2	-0.631195	14.0543	-3.53362	-0.976492
 463	1	3	0.289556	13.8087	-3.19376	-1.97796
 464	1	2	0.263167	13.6842	-2.74595	0.118946
 465	1	2	-0.339066	13.9952	-3.18327	1.41363
 466	1	3	0.163087	13.711	-2.57013	2.26413
 467	1	2	0.033139	14.7535	-4.34562	1.62
 468	1	1	-0.070169	15.1602	-4.70451	3.04506
 469	1	2	-0.051663	15.192	-5.09336	0.503251
 470	1	4	-0.031436	16.1	-6.11277	0.672057
 471	1	5	0.081364	14.4605	-4.28496	3.77812
 472	1	5	-0.00525	16.157	-4.30692	3.2757
 473	1	5	-0.006128	15.1848	-5.79059	3.19949
 474	1	5	0.002513	15.1019	-4.88767	-2.95007
 475	1	5	0.147318	14.7189	-6.40815	-2.1254
 476	1	5	0.144731	16.3362	-5.69428	-1.97653
 477	1	1	-0.211274	16.0448	-0.864109	0.425099
 478	1	2	0.221306	14.8509	-0.0657793	0.930746
 479	1	2	-0.631195	15.1396	1.04313	1.73535
 480	1	3	0.289556	16.1684	1.26138	2.0005
 481	1	2	0.263167	14.1255	1.87357	2.21613
 482	1	2	-0.339066	12.7954	1.59825	1.87013
 483	1	3	0.163087	12.005	2.24644	2.23471
 484	1	2	0.033139	12.4733	0.474653	1.08625
 485	1	1	-0.070169	11.0122	0.192995	0.755745
 486	1	2	-0.051663	13.4997	-0.382011	0.629951
 487	1	4	-0.031436	13.1486	-1.50182	-0.0997493
 488	1	5	0.081364	10.7412	-0.839587	1.00967
 489	1	5	-0.00525	10.8184	0.339963	-0.314335
 490	1	5	-0.006128	10.3357	0.856088	1.30922
 491	1	5	0.002513	16.9391	-0.235247	0.329772
 492	1	5	0.147318	15.8526	-1.29814	-0.561629
 493	1	5	0.144731	16.2872	-1.67838	1.11845
 494	1	1	-0.211274	14.3068	4.6074	0.629958
 495	1	2	0.221306	13.7269	4.97991	1.98347
 496	1	2	-0.631195	13.103	6.22723	2.10978
 497	1	3	0.289556	13.0169	6.87233	1.24247
 498	1	2	0.263167	12.6114	6.66576	3.34462
 499	1	2	-0.339066	12.7138	5.82298	4.45827
 500	1	3	0.163087	12.3244	6.15734	5.41352
 501	1	2	0.033139	13.3091	4.55313	4.35098
 502	1	1	-0.070169	13.375	3.65979	5.58467
 503	1	2	-0.051663	13.8207	4.12742	3.10644
 504	1	4	-0.031436	14.4766	2.92219	3.02703
 505	1	5	0.081364	13.3659	4.25318	6.5061
 506	1	5	-0.00525	14.287	3.05133	5.60516
 507	1	5	-0.006128	12.5165	2.97718	5.61372
 508	1	5	0.002513	14.4481	5.48827	-0.00969572
 509	1	5	0.147318	13.6404	3.91202	0.107427
 510	1	5	0.144731	15.2835	4.12295	0.740177
 511	1	1	-0.211274	9.37318	6.80228	3.77359
 512	1	2	0.221306	9.75807	7.78935	2.6853
 513	1	2	-0.631195	8.79566	8.13284	1.73394
 514	1	3	0.289556	7.81547	7.67415	1.79606
 515	1	2	0.263167	9.10497	8.99291	0.667984
 516	1	2	-0.339066	10.3867	9.55218	0.598567
 517	1	3	0.163087	10.6359	10.2077	-0.229427
 518	1	2	0.033139	11.3718	9.22666	1.55024
 519	1	1	-0.070169	12.7707	9.81105	1.38725
 520	1	2	-0.051663	11.0607	8.31949	2.58701
 521	1	4	-0.031436	12.0252	7.89976	3.46962
 522	1	5	0.081364	13.3014	9.88135	2.34454
 523	1	5	-0.00525	12.7314	10.8218	0.96256
 524	1	5	-0.006128	13.3751	9.19215	0.712346
 525	1	5	0.002513	8.28568	6.67327	3.84775
 526	1	5	0.147318	9.73409	7.13868	4.75149
 527	1	5	0.144731	9.81457	5.82086	3.56321
 528	1	1	-0.211274	5.42605	9.29508	0.645606
 529	1	2	0.221306	6.03175	8.15602	-0.159844
 530	1	2	-0.631195	5.27782	6.98361	-0.312543
 531	1	3	0.289556	4.30465	6.89948	0.158117
 532	1	2	0.263167	5.79536	5.88395	-1.01058
 533	1	2	-0.339066	7.04664	6.00017	-1.63249
 534	1	3	0.163087	7.4544	5.16669	-2.19568
 535	1	2	0.033139	7.82027	7.15874	-1.48995
 536	1	1	-0.070169	9.19381	7.19505	-2.14758
 537	1	2	-0.051663	7.33246	8.22587	-0.706504
 538	1	4	-0.031436	8.19058	9.23121	-0.332297
 539	1	5	0.081364	9.52503	8.22075	-2.34791
 540	1	5	-0.00525	9.17859	6.66844	-3.11065
 541	1	5	-0.006128	9.94531	6.71098	-1.51195
 542	1	5	0.002513	4.93209	8.92667	1.55327
 543	1	5	0.147318	4.67611	9.81877	0.0424125
 544	1	5	0.144731	6.17315	10.034	0.956097
 545	1	1	-0.211274	4.63898	4.28243	-3.889
 546	1	2	0.221306	5.34705	3.29569	-2.97554
 547	1	2	-0.631195	5.83147	2.11293	-3.54392
 548	1	3	0.289556	5.68372	1.91461	-4.59935
 549	1	2	0.263167	6.53074	1.17648	-2.77683
 550	1	2	-0.339066	6.75404	1.43361	-1.41568
 551	1	3	0.163087	7.3005	0.71186	-0.816003
 552	1	2	0.033139	6.27573	2.61704	-0.819396
 553	1	1	-0.070169	6.57853	2.85318	0.657592
 554	1	2	-0.051663	5.55368	3.54935	-1.6033
 555	1	4	-0.031436	5.07546	4.71525	-1.05121
 556	1	5	0.081364	7.66263	2.875	0.824648
 557	1	5	-0.00525	6.16163	2.04844	1.2758
 558	1	5	-0.006128	6.17367	3.79903	1.03672
 559	1	5	0.002513	5.36613	4.92037	-4.40716
 560	1	5	0.147318	3.95291	4.93395	-3.33761
 561	1	5	0.144731	4.05048	3.7564	-4.6483
 562	1	1	-0.211274	6.1648	-2.675	-2.67919
 563	1	2	0.221306	7.60174	-2.19869	-2.80969
 564	1	2	-0.631195	8.61373	-3.16109	-2.71379
 565	1	3	0.289556	8.36101	-4.20187	-2.55458
 566	1	2	0.263167	9.95887	-2.80454	-2.88784
 567	1	2	-0.339066	10.2863	-1.45761	-3.07939
 568	1	3	0.163087	11.3265	-1.18475	-3.22404
 569	1	2	0.033139	9.28655	-0.471975	-3.17736
 570	1	1	-0.070169	9.69572	0.958945	-3.50614
 571	1	2	-0.051663	7.92902	-0.848393	-3.06185
 572	1	4	-0.031436	6.92078	0.0214768	-3.40413
 573	1	5	0.081364	9.27331	1.66943	-2.78545
 574	1	5	-0.00525	9.34995	1.2434	-4.50796
 575	1	5	-0.006128	10.7857	1.08427	-3.48331
 576	1	5	0.002513	5.45778	-2.04958	-3.2369
 577	1	5	0.147318	5.8646	-2.67037	-1.62584
 578	1	5	0.144731	6.0597	-3.6958	-3.06132
 579	1	1	-0.211274	10.551	-6.06829	-1.21971
 580	1	2	0.221306	10.5155	-6.12944	-2.73753
 581	1	2	-0.631195	10.2332	-7.36118	-3.34651
 582	1	3	0.289556	10.0634	-8.2448	-2.74231
 583	1	2	0.263167	10.1543	-7.47541	-4.73994
 584	1	2	-0.339066	10.4035	-6.34785	-5.53252
 585	1	3	0.163087	10.382	-6.44815	-6.61315
 586	1	2	0.033139	10.6927	-5.1013	-4.94461
 587	1	1	-0.070169	10.9822	-3.90344	-5.84217
 588	1	2	-0.051663	10.7286	-4.98589	-3.53599
 589	1	4	-0.031436	10.9433	-3.76082	-2.94299
 590	1	5	0.081364	10.9823	-4.18112	-6.90298
 591	1	5	-0.00525	11.9663	-3.47325	-5.61547
 592	1	5	-0.006128	10.2302	-3.11622	-5.71014
 593	1	5	0.002513	9.53984	-5.95376	-0.80961
 594	1	5	0.147318	11.1629	-5.23276	-0.856896
 595	1	5	0.144731	10.9841	-6.98515	-0.805888
 596	1	1	-0.211274	7.14838	-7.59323	-4.69164
 597	1	2	0.221306	7.46341	-8.73689	-5.64271
 598	1	2	-0.631195	6.36359	-9.38514	-6.23478
 599	1	3	0.289556	5.3558	-9.05016	-6.01537
 600	1	2	0.263167	6.53922	-10.4676	-7.11215
 601	1	2	-0.339066	7.83675	-10.8917	-7.39873
 602	1	3	0.163087	7.97619	-11.7288	-8.07543
 603	1	2	0.033139	8.9528	-10.269	-6.81842
 604	1	1	-0.070169	10.3388	-10.798	-7.16771
 605	1	2	-0.051663	8.78212	-9.18788	-5.92272
 606	1	4	-0.031436	9.92587	-8.70342	-5.30836
 607	1	5	0.081364	10.9856	-9.99055	-7.53176
 608	1	5	-0.00525	10.2957	-11.5612	-7.95557
 609	1	5	-0.006128	10.8183	-11.2531	-6.29239
 610	1	5	0.002513	7.45398	-7.83351	-3.66625
 611	1	5	0.147318	6.0764	-7.37338	-4.67178
 612	1	5	0.144731	7.65098	-6.67115	-5.00385
 613	1	1	-0.211274	3.63985	-12.7701	-6.16338
 614	1	2	0.221306	3.24197	-11.4908	-6.87729
 615	1	2	-0.631195	1.92345	-11.0279	-6.73958
 616	1	3	0.289556	1.20643	-11.5751	-6.13871
 617	1	2	0.263167	1.53615	-9.81303	-7.31639
 618	1	2	-0.339066	2.46045	-9.10684	-8.09984
 619	1	3	0.163087	2.18406	-8.15928	-8.54386
 620	1	2	0.033139	3.7652	-9.57098	-8.29017
 621	1	1	-0.070169	4.69296	-8.75015	-9.17728
 622	1	2	-0.051663	4.17789	-10.7447	-7.62746
 623	1	4	-0.031436	5.4892	-11.1493	-7.68746
 624	1	5	0.081364	5.49781	-9.35926	-9.60485
 625	1	5	-0.00525	5.14758	-7.92646	-8.61361
 626	1	5	-0.006128	4.14014	-8.31234	-10.0187
 627	1	5	0.002513	3.67826	-13.6136	-6.86376
 628	1	5	0.147318	2.92671	-13.0213	-5.37131
 629	1	5	0.144731	4.62543	-12.6693	-5.69422
 630	1	1	-0.211274	-0.455425	-7.10963	-8.79986
 631	1	2	0.221306	0.0922434	-6.89048	-7.39808
 632	1	2	-0.631195	0.427941	-5.58921	-6.99841
 633	1	3	0.289556	0.318932	-4.76388	-7.69255
 634	1	2	0.263167	0.992528	-5.35634	-5.73453
 635	1	2	-0.339066	1.11983	-6.41982	-4.83573
 636	1	3	0.163087	1.52699	-6.23199	-3.84774
 637	1	2	0.033139	0.79121	-7.73016	-5.21093
 638	1	1	-0.070169	1.0139	-8.846	-4.19425
 639	1	2	-0.051663	0.328294	-7.97326	-6.5233
 640	1	4	-0.031436	0.318011	-9.25607	-7.01183
 641	1	5	0.081364	2.08568	-9.00411	-4.02268
 642	1	5	-0.00525	0.578055	-9.80157	-4.50888
 643	1	5	-0.006128	0.552304	-8.59043	-3.23165
 644	1	5	0.002513	0.183183	-7.77241	-9.39493
 645	1	5	0.147318	-0.546153	-6.16572	-9.34697
 646	1	5	0.144731	-1.45054	-7.56528	-8.75108
 647	1	1	-0.211274	-0.549102	-2.18696	-4.61549
 648	1	2	0.221306	0.440601	-1.99377	-5.75134
 649	1	2	-0.631195	0.424847	-0.779091	-6.44121
 650	1	3	0.289556	-0.289079	-0.0129292	-6.16117
 651	1	2	0.263167	1.34636	-0.508051	-7.45648
 652	1	2	-0.339066	2.28744	-1.48929	-7.80507
 653	1	3	0.163087	3.02453	-1.27681	-8.57314
 654	1	2	0.033139	2.31402	-2.72964	-7.13317
 655	1	1	-0.070169	3.35309	-3.77364	-7.52922
 656	1	2	-0.051663	1.38947	-2.97543	-6.0919
 657	1	4	-0.031436	1.44771	-4.12426	-5.34146
 658	1	5	0.081364	3.79444	-4.2554	-6.6481
 659	1	5	-0.00525	4.17442	-3.3317	-8.10624