pySIMM System Object

172 atoms
181 bonds
310 angles
398 dihedrals
40 impropers

6 atom types
6 bond types
8 angle types
3 dihedral types
2 improper types

-62.951372 62.951372 xlo xhi
-62.951372 62.951372 ylo yhi
-62.951372 62.951372 zlo zhi

Masses

   1	12.01	# c3
   2	12.01	# ca
   3	1.008	# ha
   4	16.0	# oh
   5	1.008	# hc
   6	1.008	# ho

Pair Coeffs

   1	0.1094	3.3996695084235347	# c3
   2	0.086	3.3996695084235347	# ca
   3	0.015	2.59964245953351	# ha
   4	0.2104	3.0664733878390478	# oh
   5	0.0157	2.649532787749369	# hc
   6	0.0047	0.5379246460131368	# ho

Bond Coeffs

   1	371.4	0.973	# ho,oh
   2	461.1	1.3984	# ca,ca
   3	384.0	1.3637	# ca,oh
   4	345.8	1.086	# ca,ha
   5	321.0	1.5156	# c3,ca
   6	330.6	1.0969	# c3,hc

Angle Coeffs

   1	46.8	110.47	# ca,c3,hc
   2	49.0	108.58	# ca,oh,ho
   3	69.52	119.9	# ca,ca,oh
   4	66.62	120.02	# ca,ca,ca
   5	39.4	107.58	# hc,c3,hc
   6	48.18	119.88	# ca,ca,ha
   7	63.53	120.77	# c3,ca,ca
   8	63.5	119.89	# ca,oh,ca

Dihedral Coeffs

   1	1	0.9	2	180	# X,ca,oh,X
   2	1	0.0	2	0	# X,c3,ca,X
   3	1	3.625	2	180	# X,ca,ca,X

Improper Coeffs

   1	1.1	-1	2	# ca,ca,ca,c3
   2	1.1	-1	2	# ca,X,X,ha

Atoms

   1	1	1	-0.211274	-4.84197	-5.13199	3.24121
   2	1	2	0.221306	-4.94644	-3.61472	3.28351
   3	1	2	-0.631195	-3.82734	-2.86993	2.89819
   4	1	3	0.289556	-2.94429	-3.40187	2.57413
   5	1	2	0.263167	-3.82506	-1.46633	2.89438
   6	1	2	-0.339066	-5.05103	-0.808345	3.10877
   7	1	3	0.163087	-5.1076	0.270085	3.00752
   8	1	2	0.033139	-6.21955	-1.55108	3.41152
   9	1	1	-0.070169	-7.58884	-0.880742	3.4259
  10	1	2	-0.051663	-6.13649	-2.9451	3.61202
  11	1	4	-0.031436	-7.2209	-3.64643	4.07227
  12	1	5	0.081364	-7.58025	0.0567156	2.85883
  13	1	5	-0.00525	-8.33613	-1.5267	2.94227
  14	1	5	-0.006128	-7.9385	-0.674835	4.44404
  15	1	5	0.002513	-4.52061	-5.46372	2.24553
  16	1	5	0.147318	-5.79703	-5.62664	3.44987
  17	1	5	0.144731	-4.11065	-5.49597	3.97062
  18	1	1	-0.211274	-2.16744	0.976514	4.91008
  19	1	2	0.221306	-1.92724	1.34596	3.456
  20	1	2	-0.631195	-1.28535	2.57013	3.18825
  21	1	3	0.289556	-1.046	3.23662	4.01055
  22	1	2	0.263167	-0.866769	2.9268	1.89775
  23	1	2	-0.339066	-1.10194	2.0079	0.860353
  24	1	3	0.163087	-0.728038	2.22713	-0.134061
  25	1	2	0.033139	-1.76832	0.783487	1.10135
  26	1	1	-0.070169	-1.9204	-0.217039	-0.0385233
  27	1	2	-0.051663	-2.21555	0.449103	2.4014
  28	1	4	-0.031436	-2.60288	-0.858527	2.64957
  29	1	5	0.081364	-1.30819	0.0597935	-0.903851
  30	1	5	-0.00525	-2.96503	-0.277046	-0.368251
  31	1	5	-0.006128	-1.606	-1.2233	0.26752
  32	1	5	0.002513	-2.16989	1.86134	5.56018
  33	1	5	0.147318	-1.37304	0.308162	5.26465
  34	1	5	0.144731	-3.127	0.465585	5.04334
  35	1	1	-0.211274	-2.07086	4.97907	-0.352836
  36	1	2	0.221306	-0.567432	5.17254	-0.438107
  37	1	2	-0.631195	-0.0544603	5.8659	-1.55173
  38	1	3	0.289556	-0.714678	6.16048	-2.35909
  39	1	2	0.263167	1.29744	6.23238	-1.61745
  40	1	2	-0.339066	2.12072	5.93471	-0.526981
  41	1	3	0.163087	3.15363	6.26844	-0.546213
  42	1	2	0.033139	1.64158	5.20004	0.573814
  43	1	1	-0.070169	2.59186	4.94162	1.73636
  44	1	2	-0.051663	0.294227	4.7642	0.609279
  45	1	4	-0.031436	-0.172136	4.12087	1.74922
  46	1	5	0.081364	2.19714	5.37299	2.66425
  47	1	5	-0.00525	3.57768	5.3938	1.56368
  48	1	5	-0.006128	2.74375	3.86739	1.89469
  49	1	5	0.002513	-2.60482	5.6298	-1.05647
  50	1	5	0.147318	-2.43079	5.22612	0.653073
  51	1	5	0.144731	-2.35383	3.94557	-0.571895
  52	1	1	-0.211274	0.810559	8.61117	-4.84736
  53	1	2	0.221306	1.33154	7.19908	-5.04929
  54	1	2	-0.631195	1.26792	6.65833	-6.34297
  55	1	3	0.289556	0.832179	7.22652	-7.15749
  56	1	2	0.263167	1.69589	5.34898	-6.59043
  57	1	2	-0.339066	2.29729	4.62394	-5.55708
  58	1	3	0.163087	2.67713	3.62822	-5.76284
  59	1	2	0.033139	2.40718	5.15802	-4.2629
  60	1	1	-0.070169	3.16701	4.3524	-3.21682
  61	1	2	-0.051663	1.84328	6.4257	-3.98099
  62	1	4	-0.031436	1.81376	6.92448	-2.6932
  63	1	5	0.081364	3.84813	4.99739	-2.64774
  64	1	5	-0.00525	3.78326	3.57142	-3.67918
  65	1	5	-0.006128	2.48334	3.86237	-2.51401
  66	1	5	0.002513	-0.242674	8.60584	-4.54183
  67	1	5	0.147318	0.891244	9.19185	-5.77364
  68	1	5	0.144731	1.38973	9.14461	-4.08524
  69	1	1	-0.211274	-1.37943	4.97733	-7.1099
  70	1	2	0.221306	-0.697049	3.69715	-7.55571
  71	1	2	-0.631195	-1.47363	2.53342	-7.5943
  72	1	3	0.289556	-2.51709	2.55427	-7.30267
  73	1	2	0.263167	-0.90984	1.30991	-7.95938
  74	1	2	-0.339066	0.432191	1.2603	-8.35793
  75	1	3	0.163087	0.85786	0.310168	-8.66671
  76	1	2	0.033139	1.22833	2.42126	-8.3488
  77	1	1	-0.070169	2.68364	2.33233	-8.7916
  78	1	2	-0.051663	0.671781	3.6442	-7.91115
  79	1	4	-0.031436	1.46784	4.76512	-7.8108
  80	1	5	0.081364	2.89697	3.06676	-9.57825
  81	1	5	-0.00525	2.9263	1.34121	-9.19586
  82	1	5	-0.006128	3.36539	2.52559	-7.95442
  83	1	5	0.002513	-1.13894	5.81256	-7.77873
  84	1	5	0.147318	-1.066	5.24075	-6.09307
  85	1	5	0.144731	-2.46845	4.86875	-7.10184
  86	1	1	-0.211274	-0.706698	0.708411	-5.04664
  87	1	2	0.221306	-1.22466	-0.609192	-5.60645
  88	1	2	-0.631195	-1.2514	-1.68692	-4.70885
  89	1	3	0.289556	-0.872275	-1.56307	-3.70103
  90	1	2	0.263167	-1.72349	-2.94688	-5.09908
  91	1	2	-0.339066	-2.21259	-3.11903	-6.39381
  92	1	3	0.163087	-2.57125	-4.09763	-6.6961
  93	1	2	0.033139	-2.19279	-2.06227	-7.31719
  94	1	1	-0.070169	-2.70195	-2.32416	-8.73022
  95	1	2	-0.051663	-1.67761	-0.799418	-6.94269
  96	1	4	-0.031436	-1.68532	0.184559	-7.91439
  97	1	5	0.081364	-3.39269	-1.53749	-9.05715
  98	1	5	-0.00525	-3.24093	-3.27785	-8.79684
  99	1	5	-0.006128	-1.86898	-2.3634	-9.44319
 100	1	5	0.002513	-1.47657	1.48773	-5.08865
 101	1	5	0.147318	0.178635	1.05357	-5.59151
 102	1	5	0.144731	-0.407518	0.614858	-3.99819
 103	1	1	-0.211274	-2.11492	-3.87724	-1.41769
 104	1	2	0.221306	-0.738678	-4.0665	-2.03221
 105	1	2	-0.631195	0.377107	-4.04341	-1.19183
 106	1	3	0.289556	0.226869	-3.92198	-0.124443
 107	1	2	0.263167	1.68202	-4.08972	-1.71577
 108	1	2	-0.339066	1.85269	-4.25748	-3.09327
 109	1	3	0.163087	2.85704	-4.30569	-3.50159
 110	1	2	0.033139	0.745448	-4.31313	-3.95596
 111	1	1	-0.070169	0.987711	-4.46408	-5.45343
 112	1	2	-0.051663	-0.557242	-4.17258	-3.42383
 113	1	4	-0.031436	-1.6387	-4.02659	-4.25741
 114	1	5	0.081364	0.899184	-3.49657	-5.96324
 115	1	5	-0.00525	0.263284	-5.15309	-5.90602
 116	1	5	-0.006128	1.98898	-4.8601	-5.66302
 117	1	5	0.002513	-2.09236	-3.95313	-0.322742
 118	1	5	0.147318	-2.81324	-4.63485	-1.78979
 119	1	5	0.144731	-2.51646	-2.89056	-1.67565
 120	1	1	-0.211274	1.95917	-1.05564	-0.873819
 121	1	2	0.221306	2.09894	-1.94155	0.354277
 122	1	2	-0.631195	1.60938	-1.45692	1.57109
 123	1	3	0.289556	1.12705	-0.484574	1.61485
 124	1	2	0.263167	1.6947	-2.22666	2.73397
 125	1	2	-0.339066	2.34091	-3.47175	2.69336
 126	1	3	0.163087	2.44295	-4.0603	3.59962
 127	1	2	0.033139	2.82144	-3.98874	1.47931
 128	1	1	-0.070169	3.46627	-5.36879	1.45967
 129	1	2	-0.051663	2.63795	-3.2475	0.294724
 130	1	4	-0.031436	2.78324	-3.87698	-0.917341
 131	1	5	0.081364	2.7192	-6.14776	1.26775
 132	1	5	-0.00525	3.95224	-5.59353	2.41769
 133	1	5	-0.006128	4.23913	-5.442	0.68359
 134	1	5	0.002513	0.962967	-1.14812	-1.32315
 135	1	5	0.147318	2.70272	-1.31361	-1.63687
 136	1	5	0.144731	2.11817	-0.00387941	-0.611122
 137	1	1	-0.211274	-0.968192	-3.67354	4.35599
 138	1	2	0.221306	0.0305266	-3.24973	5.40046
 139	1	2	-0.631195	-0.118346	-3.7306	6.70369
 140	1	3	0.289556	-0.939586	-4.3943	6.95167
 141	1	2	0.263167	0.785156	-3.35843	7.7003
 142	1	2	-0.339066	1.86794	-2.5255	7.37012
 143	1	3	0.163087	2.59304	-2.25297	8.1302
 144	1	2	0.033139	2.02087	-2.01915	6.06988
 145	1	1	-0.070169	3.21906	-1.13738	5.74253
 146	1	2	-0.051663	1.0723	-2.35492	5.08789
 147	1	4	-0.031436	1.11173	-1.73074	3.86712
 148	1	5	0.081364	4.04127	-1.74867	5.34941
 149	1	5	-0.00525	3.58553	-0.612089	6.63221
 150	1	5	-0.006128	2.98178	-0.376077	4.98918
 151	1	5	0.002513	-1.75909	-4.31899	4.75985
 152	1	5	0.147318	-0.472219	-4.20648	3.53627
 153	1	5	0.144731	-1.42706	-2.77118	3.95517
 154	1	1	-0.211274	0.561102	-1.87743	11.1529
 155	1	2	0.221306	1.61669	-2.95639	10.969
 156	1	2	-0.631195	2.66403	-3.01199	11.8978
 157	1	3	0.289556	2.70748	-2.29871	12.7126
 158	1	2	0.263167	3.67249	-3.97369	11.7767
 159	1	2	-0.339066	3.63238	-4.89136	10.722
 160	1	3	0.163087	4.4207	-5.6313	10.6333
 161	1	2	0.033139	2.5908	-4.86135	9.78151
 162	1	1	-0.070169	2.59232	-5.87117	8.63807
 163	1	2	-0.051663	1.57946	-3.88453	9.90587
 164	1	4	-0.031436	0.579496	-3.82233	8.97267
 165	1	5	0.081364	3.03246	-5.43074	7.73453
 166	1	5	-0.00525	1.57727	-6.20526	8.38816
 167	1	5	-0.006128	3.17338	-6.76614	8.8922
 168	1	5	0.002513	1.02418	-0.904604	11.3609
 169	1	5	0.147318	-0.0910449	-2.12777	11.9967
 170	1	5	0.144731	-0.0710603	-1.75209	10.2669
 171	1	6	0	-6.92287	-4.53017	4.35489
 172	1	3	0	4.48499	-4.0057	12.4963

Velocities

   1	0.000772212	0.000764955	0.000802386
   2	0.000143544	0.000804128	-0.00267887
   3	0.000547763	0.00017549	-0.00269026
   4	0.000929222	-0.000260331	-0.00104859
   5	0.000869836	0.000110262	-0.00331098
   6	0.00156962	0.000960571	-0.00226946
   7	0.00246156	0.0011688	-0.00108373
   8	0.00127871	0.00177302	-0.00186772
   9	0.00238449	0.00384476	0.00254454
  10	0.000132345	0.00141049	-0.00385293
  11	-0.000824792	0.00165327	-0.00559607
  12	0.00260402	0.00500973	0.00454798
  13	0.000388056	0.00583223	0.00300604
  14	0.00513636	0.00243302	0.00378638
  15	0.0019584	-0.00140826	0.00195059
  16	0.000914633	0.000773952	0.00132158
  17	0.000262272	0.00296754	0.00239688
  18	-0.00149163	-0.000925336	-0.00110679
  19	-0.000474979	-0.000608478	-0.000888055
  20	-0.000913208	-0.000314414	-0.000204076
  21	-0.00158195	-0.000474855	6.11977e-05
  22	-0.000649043	9.37854e-05	3.59126e-05
  23	0.000325657	0.000471067	-0.000492364
  24	0.000560682	0.000960591	-0.00026491
  25	0.000686932	0.000270625	-0.00121015
  26	0.000495688	0.000743558	-0.00155055
  27	0.000678164	-0.000353521	-0.00143516
  28	0.00103201	-0.00036296	-0.00242229
  29	-0.000530414	0.00161519	-0.00199119
  30	0.000194653	0.000111182	-0.000556051
  31	0.00146349	0.000818787	-0.00222392
  32	-0.00169418	-0.00100042	-0.000944714
  33	-0.0018284	-0.00114497	-0.000710452
  34	-0.00170963	-0.000718506	-0.00166927
  35	-0.000790552	-0.00119638	-0.000945207
  36	-0.000816912	-0.000683083	-0.000123819
  37	-0.000337655	-0.00103851	-7.49089e-05
  38	-1.63203e-05	-0.00103672	-0.000380264
  39	-0.000274052	-0.00124624	0.000439568
  40	-0.000578795	-0.00146344	0.000568838
  41	-0.000479157	-0.00177299	0.000721578
  42	-0.00102343	-0.00111739	0.000544568
  43	-0.00112563	-0.00188129	0.000449813
  44	-0.00122679	-0.000244145	0.000346379
  45	-0.00183809	0.000624131	0.000451654
  46	-0.000884405	-0.00199599	0.000585835
  47	-0.000930203	-0.00230025	0.000467892
  48	-0.00158775	-0.00198744	7.95858e-05
  49	-0.000691074	-0.000792056	-0.000621389
  50	-0.00128511	-0.00224084	-0.000882182
  51	-0.000329296	-0.00109079	-0.00199154
  52	-0.000314202	-0.000750191	0.0015477
  53	-0.000316899	-0.000693458	0.00102488
  54	-0.000382407	-0.00022691	0.000869061
  55	-0.000277118	0.000130567	0.00109859
  56	-0.00048911	-0.000165103	0.0003899
  57	-0.000657411	-0.000702356	0.000118659
  58	-0.000739964	-0.000659805	-0.000267565
  59	-0.000667377	-0.00120899	0.000311524
  60	-0.00102466	-0.00173223	0.000152876
  61	-0.000299139	-0.00112505	0.000661352
  62	0.000219746	-0.0013802	0.000689215
  63	-0.00133242	-0.00195249	0.000777752
  64	-0.000751695	-0.00142028	-1.03194e-05
  65	-0.0012804	-0.00213694	-0.000378243
  66	-0.000282723	-0.000871941	0.00166603
  67	-0.000477186	-0.000512825	0.00167288
  68	-0.000272601	-0.00088974	0.00162492
  69	-0.000549053	0.000366216	-0.000294981
  70	-0.0005513	0.000344803	-0.000188222
  71	-0.000521389	0.000331104	-9.01783e-05
  72	-0.000540325	0.000326219	-0.000166896
  73	-0.000436285	0.000287007	0.000231847
  74	-0.000363279	0.000289961	0.000360577
  75	-0.000277844	0.00027253	0.000512168
  76	-0.00033873	0.000288583	0.000387382
  77	-0.000216846	0.000239108	0.000741244
  78	-0.000508638	0.000327435	3.8815e-05
  79	-0.000589179	0.000345923	0.000193392
  80	-1.84026e-05	0.000203722	0.000763209
  81	-0.000162754	0.000218657	0.000819469
  82	-0.00035721	0.000224441	0.000857239
  83	-0.00017519	0.000425364	-7.74775e-05
  84	-0.000844302	0.000146032	-0.000148806
  85	-0.000563567	0.000505768	-0.000702888
  86	8.66843e-06	-0.000104927	-2.26933e-05
  87	0.000143174	-0.000100198	-0.000169862
  88	0.000389555	-0.000288121	-0.000379442
  89	0.000361956	-0.000395161	-0.000356777
  90	0.000509062	-0.000282065	-0.000578008
  91	0.000344847	-6.50931e-05	-0.000542394
  92	0.000293184	-9.68564e-06	-0.000647436
  93	0.000103492	0.000118766	-0.000323258
  94	-6.6564e-05	0.000346866	-0.000292566
  95	-2.32426e-05	0.000103035	-0.000138017
  96	-0.00045766	0.000340224	0.000141135
  97	-0.000396428	0.000197656	5.176e-05
  98	0.000265159	0.000171702	-0.000455967
  99	-0.000173322	0.000840811	-0.000440744
 100	-1.44572e-06	-0.000117305	-0.000111239
 101	6.60605e-05	-5.639e-05	9.58342e-05
 102	-0.000130555	-0.000138824	1.37526e-05
 103	-0.000238557	-0.000616644	-0.00073093
 104	-9.78994e-05	-0.000382436	-0.000491781
 105	-0.000294834	-0.000168734	-0.00024401
 106	-0.000549041	-0.000159684	-0.000287545
 107	-0.000180384	-2.87976e-05	6.56443e-05
 108	0.000192991	-4.32257e-05	0.000109973
 109	0.000297924	4.44846e-05	0.00034972
 110	0.000401398	-0.000191561	-0.000140631
 111	0.000669635	-0.000180797	-8.7147e-05
 112	0.000266416	-0.000359565	-0.00044937
 113	0.000500372	-0.000428313	-0.00075023
 114	0.000796401	-0.000170383	-8.37822e-05
 115	0.000674362	-0.000124652	-0.000197783
 116	0.0006628	-0.000269001	6.33431e-05
 117	-0.000347007	-0.000457027	-0.000711621
 118	-2.72692e-05	-0.000829172	-0.000684717
 119	-0.000428948	-0.000734822	-0.000893031
 120	-0.000501332	-1.33615e-05	0.000399176
 121	-0.000399799	1.38432e-05	0.000418069
 122	0.000226169	0.000307873	0.00055517
 123	0.000471187	0.000435011	0.000593939
 124	0.00060372	0.000523769	0.00067302
 125	-3.69438e-05	0.000177066	0.000517009
 126	9.8482e-05	0.000231381	0.000537884
 127	-0.000725095	-0.000141441	0.000363866
 128	-0.00115029	-0.000358319	0.000169683
 129	-0.000677366	-9.96243e-05	0.000384927
 130	-0.000427013	-1.00464e-05	0.000362343
 131	-0.00122832	-6.57691e-05	-0.000726934
 132	-0.00183015	-0.000979661	0.00036818
 133	-0.000665452	-0.000200951	0.000623562
 134	-0.000591189	9.84311e-05	0.000586961
 135	-0.000673633	-0.000124031	0.000268032
 136	-0.000329101	-1.73141e-05	0.000315154
 137	0.000801628	0.00109984	0.000173961
 138	0.000920185	0.000813656	0.00032084
 139	0.000940014	0.000275909	0.00014658
 140	0.00099612	0.000105426	-0.000185717
 141	0.000804185	-5.98229e-05	0.00042732
 142	0.000616376	0.000382241	0.000963901
 143	0.000437961	0.000294167	0.00119306
 144	0.000635742	0.000919691	0.00117902
 145	0.000366377	0.00140836	0.00157986
 146	0.000982708	0.000958196	0.000815764
 147	0.00156175	0.00111741	0.000921979
 148	0.000129961	0.00191416	0.00029383
 149	0.000899836	0.000395504	0.00194628
 150	-0.000221108	0.00227963	0.00264426
 151	0.000542624	0.00144993	0.000249371
 152	0.000628671	0.000667309	0.000342602
 153	0.00095184	0.0010572	-0.000183886
 154	0.000336704	-0.000288438	3.32915e-05
 155	0.000413842	-0.000282724	0.000299182
 156	0.000340381	-0.00015069	0.000397641
 157	0.000248335	-3.4804e-05	0.000303763
 158	0.000378666	-0.00014474	0.000583297
 159	0.000500536	-0.000296043	0.000702598
 160	0.000560427	-0.000248932	0.000803524
 161	0.000557109	-0.000434084	0.000635872
 162	0.000545774	-0.000463353	0.000656064
 163	0.000531686	-0.000443201	0.000426198
 164	0.00071143	-0.000582576	0.0002327
 165	-0.000380114	-0.000146414	0.000353411
 166	0.000585397	-0.00112012	0.00133911
 167	0.00131833	-7.74594e-05	0.000240242
 168	0.000203313	-0.000409561	0.00091703
 169	-0.000357685	-0.000685575	-0.000619204
 170	0.00105826	0.000217125	-0.000417402
 171	-0.00173751	0.00105852	-0.00658976
 172	0.000355539	1.16313e-05	0.000623958

Bonds

   1	5	1	2
   2	6	1	15
   3	6	1	16
   4	6	1	17
   5	2	2	3
   6	2	2	10
   7	4	3	4
   8	2	3	5
   9	2	5	6
  10	4	6	7
  11	2	6	8
  12	5	8	9
  13	2	8	10
  14	6	9	12
  15	6	9	13
  16	6	9	14
  17	3	10	11
  18	5	18	19
  19	6	18	32
  20	6	18	33
  21	6	18	34
  22	2	19	20
  23	2	19	27
  24	4	20	21
  25	2	20	22
  26	2	22	23
  27	4	23	24
  28	2	23	25
  29	5	25	26
  30	2	25	27
  31	6	26	29
  32	6	26	30
  33	6	26	31
  34	3	27	28
  35	3	5	28
  36	5	35	36
  37	6	35	49
  38	6	35	50
  39	6	35	51
  40	2	36	37
  41	2	36	44
  42	4	37	38
  43	2	37	39
  44	2	39	40
  45	4	40	41
  46	2	40	42
  47	5	42	43
  48	2	42	44
  49	6	43	46
  50	6	43	47
  51	6	43	48
  52	3	44	45
  53	3	22	45
  54	5	52	53
  55	6	52	66
  56	6	52	67
  57	6	52	68
  58	2	53	54
  59	2	53	61
  60	4	54	55
  61	2	54	56
  62	2	56	57
  63	4	57	58
  64	2	57	59
  65	5	59	60
  66	2	59	61
  67	6	60	63
  68	6	60	64
  69	6	60	65
  70	3	61	62
  71	3	39	62
  72	5	69	70
  73	6	69	83
  74	6	69	84
  75	6	69	85
  76	2	70	71
  77	2	70	78
  78	4	71	72
  79	2	71	73
  80	2	73	74
  81	4	74	75
  82	2	74	76
  83	5	76	77
  84	2	76	78
  85	6	77	80
  86	6	77	81
  87	6	77	82
  88	3	78	79
  89	3	56	79
  90	5	86	87
  91	6	86	100
  92	6	86	101
  93	6	86	102
  94	2	87	88
  95	2	87	95
  96	4	88	89
  97	2	88	90
  98	2	90	91
  99	4	91	92
 100	2	91	93
 101	5	93	94
 102	2	93	95
 103	6	94	97
 104	6	94	98
 105	6	94	99
 106	3	95	96
 107	3	73	96
 108	5	103	104
 109	6	103	117
 110	6	103	118
 111	6	103	119
 112	2	104	105
 113	2	104	112
 114	4	105	106
 115	2	105	107
 116	2	107	108
 117	4	108	109
 118	2	108	110
 119	5	110	111
 120	2	110	112
 121	6	111	114
 122	6	111	115
 123	6	111	116
 124	3	112	113
 125	3	90	113
 126	5	120	121
 127	6	120	134
 128	6	120	135
 129	6	120	136
 130	2	121	122
 131	2	121	129
 132	4	122	123
 133	2	122	124
 134	2	124	125
 135	4	125	126
 136	2	125	127
 137	5	127	128
 138	2	127	129
 139	6	128	131
 140	6	128	132
 141	6	128	133
 142	3	129	130
 143	3	107	130
 144	5	137	138
 145	6	137	151
 146	6	137	152
 147	6	137	153
 148	2	138	139
 149	2	138	146
 150	4	139	140
 151	2	139	141
 152	2	141	142
 153	4	142	143
 154	2	142	144
 155	5	144	145
 156	2	144	146
 157	6	145	148
 158	6	145	149
 159	6	145	150
 160	3	146	147
 161	3	124	147
 162	5	154	155
 163	6	154	168
 164	6	154	169
 165	6	154	170
 166	2	155	156
 167	2	155	163
 168	4	156	157
 169	2	156	158
 170	2	158	159
 171	4	159	160
 172	2	159	161
 173	5	161	162
 174	2	161	163
 175	6	162	165
 176	6	162	166
 177	6	162	167
 178	3	163	164
 179	3	141	164
 180	1	11	171
 181	4	158	172

Angles

   1	1	2	1	15
   2	1	2	1	16
   3	1	2	1	17
   4	5	15	1	16
   5	5	15	1	17
   6	5	16	1	17
   7	7	1	2	3
   8	7	1	2	10
   9	4	3	2	10
  10	6	2	3	4
  11	4	2	3	5
  12	6	4	3	5
  13	4	3	5	6
  14	6	5	6	7
  15	4	5	6	8
  16	6	7	6	8
  17	7	6	8	9
  18	4	6	8	10
  19	7	9	8	10
  20	1	8	9	12
  21	1	8	9	13
  22	1	8	9	14
  23	5	12	9	13
  24	5	12	9	14
  25	5	13	9	14
  26	4	2	10	8
  27	3	2	10	11
  28	3	8	10	11
  29	1	19	18	32
  30	1	19	18	33
  31	1	19	18	34
  32	5	32	18	33
  33	5	32	18	34
  34	5	33	18	34
  35	7	18	19	20
  36	7	18	19	27
  37	4	20	19	27
  38	6	19	20	21
  39	4	19	20	22
  40	6	21	20	22
  41	4	20	22	23
  42	6	22	23	24
  43	4	22	23	25
  44	6	24	23	25
  45	7	23	25	26
  46	4	23	25	27
  47	7	26	25	27
  48	1	25	26	29
  49	1	25	26	30
  50	1	25	26	31
  51	5	29	26	30
  52	5	29	26	31
  53	5	30	26	31
  54	4	19	27	25
  55	3	19	27	28
  56	3	25	27	28
  57	3	3	5	28
  58	3	6	5	28
  59	8	5	28	27
  60	1	36	35	49
  61	1	36	35	50
  62	1	36	35	51
  63	5	49	35	50
  64	5	49	35	51
  65	5	50	35	51
  66	7	35	36	37
  67	7	35	36	44
  68	4	37	36	44
  69	6	36	37	38
  70	4	36	37	39
  71	6	38	37	39
  72	4	37	39	40
  73	6	39	40	41
  74	4	39	40	42
  75	6	41	40	42
  76	7	40	42	43
  77	4	40	42	44
  78	7	43	42	44
  79	1	42	43	46
  80	1	42	43	47
  81	1	42	43	48
  82	5	46	43	47
  83	5	46	43	48
  84	5	47	43	48
  85	4	36	44	42
  86	3	36	44	45
  87	3	42	44	45
  88	3	20	22	45
  89	3	23	22	45
  90	8	22	45	44
  91	1	53	52	66
  92	1	53	52	67
  93	1	53	52	68
  94	5	66	52	67
  95	5	66	52	68
  96	5	67	52	68
  97	7	52	53	54
  98	7	52	53	61
  99	4	54	53	61
 100	6	53	54	55
 101	4	53	54	56
 102	6	55	54	56
 103	4	54	56	57
 104	6	56	57	58
 105	4	56	57	59
 106	6	58	57	59
 107	7	57	59	60
 108	4	57	59	61
 109	7	60	59	61
 110	1	59	60	63
 111	1	59	60	64
 112	1	59	60	65
 113	5	63	60	64
 114	5	63	60	65
 115	5	64	60	65
 116	4	53	61	59
 117	3	53	61	62
 118	3	59	61	62
 119	3	37	39	62
 120	3	40	39	62
 121	8	39	62	61
 122	1	70	69	83
 123	1	70	69	84
 124	1	70	69	85
 125	5	83	69	84
 126	5	83	69	85
 127	5	84	69	85
 128	7	69	70	71
 129	7	69	70	78
 130	4	71	70	78
 131	6	70	71	72
 132	4	70	71	73
 133	6	72	71	73
 134	4	71	73	74
 135	6	73	74	75
 136	4	73	74	76
 137	6	75	74	76
 138	7	74	76	77
 139	4	74	76	78
 140	7	77	76	78
 141	1	76	77	80
 142	1	76	77	81
 143	1	76	77	82
 144	5	80	77	81
 145	5	80	77	82
 146	5	81	77	82
 147	4	70	78	76
 148	3	70	78	79
 149	3	76	78	79
 150	3	54	56	79
 151	3	57	56	79
 152	8	56	79	78
 153	1	87	86	100
 154	1	87	86	101
 155	1	87	86	102
 156	5	100	86	101
 157	5	100	86	102
 158	5	101	86	102
 159	7	86	87	88
 160	7	86	87	95
 161	4	88	87	95
 162	6	87	88	89
 163	4	87	88	90
 164	6	89	88	90
 165	4	88	90	91
 166	6	90	91	92
 167	4	90	91	93
 168	6	92	91	93
 169	7	91	93	94
 170	4	91	93	95
 171	7	94	93	95
 172	1	93	94	97
 173	1	93	94	98
 174	1	93	94	99
 175	5	97	94	98
 176	5	97	94	99
 177	5	98	94	99
 178	4	87	95	93
 179	3	87	95	96
 180	3	93	95	96
 181	3	71	73	96
 182	3	74	73	96
 183	8	73	96	95
 184	1	104	103	117
 185	1	104	103	118
 186	1	104	103	119
 187	5	117	103	118
 188	5	117	103	119
 189	5	118	103	119
 190	7	103	104	105
 191	7	103	104	112
 192	4	105	104	112
 193	6	104	105	106
 194	4	104	105	107
 195	6	106	105	107
 196	4	105	107	108
 197	6	107	108	109
 198	4	107	108	110
 199	6	109	108	110
 200	7	108	110	111
 201	4	108	110	112
 202	7	111	110	112
 203	1	110	111	114
 204	1	110	111	115
 205	1	110	111	116
 206	5	114	111	115
 207	5	114	111	116
 208	5	115	111	116
 209	4	104	112	110
 210	3	104	112	113
 211	3	110	112	113
 212	3	88	90	113
 213	3	91	90	113
 214	8	90	113	112
 215	1	121	120	134
 216	1	121	120	135
 217	1	121	120	136
 218	5	134	120	135
 219	5	134	120	136
 220	5	135	120	136
 221	7	120	121	122
 222	7	120	121	129
 223	4	122	121	129
 224	6	121	122	123
 225	4	121	122	124
 226	6	123	122	124
 227	4	122	124	125
 228	6	124	125	126
 229	4	124	125	127
 230	6	126	125	127
 231	7	125	127	128
 232	4	125	127	129
 233	7	128	127	129
 234	1	127	128	131
 235	1	127	128	132
 236	1	127	128	133
 237	5	131	128	132
 238	5	131	128	133
 239	5	132	128	133
 240	4	121	129	127
 241	3	121	129	130
 242	3	127	129	130
 243	3	105	107	130
 244	3	108	107	130
 245	8	107	130	129
 246	1	138	137	151
 247	1	138	137	152
 248	1	138	137	153
 249	5	151	137	152
 250	5	151	137	153
 251	5	152	137	153
 252	7	137	138	139
 253	7	137	138	146
 254	4	139	138	146
 255	6	138	139	140
 256	4	138	139	141
 257	6	140	139	141
 258	4	139	141	142
 259	6	141	142	143
 260	4	141	142	144
 261	6	143	142	144
 262	7	142	144	145
 263	4	142	144	146
 264	7	145	144	146
 265	1	144	145	148
 266	1	144	145	149
 267	1	144	145	150
 268	5	148	145	149
 269	5	148	145	150
 270	5	149	145	150
 271	4	138	146	144
 272	3	138	146	147
 273	3	144	146	147
 274	3	122	124	147
 275	3	125	124	147
 276	8	124	147	146
 277	1	155	154	168
 278	1	155	154	169
 279	1	155	154	170
 280	5	168	154	169
 281	5	168	154	170
 282	5	169	154	170
 283	7	154	155	156
 284	7	154	155	163
 285	4	156	155	163
 286	6	155	156	157
 287	4	155	156	158
 288	6	157	156	158
 289	4	156	158	159
 290	6	158	159	160
 291	4	158	159	161
 292	6	160	159	161
 293	7	159	161	162
 294	4	159	161	163
 295	7	162	161	163
 296	1	161	162	165
 297	1	161	162	166
 298	1	161	162	167
 299	5	165	162	166
 300	5	165	162	167
 301	5	166	162	167
 302	4	155	163	161
 303	3	155	163	164
 304	3	161	163	164
 305	3	139	141	164
 306	3	142	141	164
 307	8	141	164	163
 308	2	10	11	171
 309	6	156	158	172
 310	6	159	158	172

Dihedrals

   1	2	15	1	2	3
   2	2	15	1	2	10
   3	2	16	1	2	3
   4	2	16	1	2	10
   5	2	17	1	2	3
   6	2	17	1	2	10
   7	3	1	2	3	4
   8	3	1	2	3	5
   9	3	10	2	3	4
  10	3	10	2	3	5
  11	3	1	2	10	8
  12	3	1	2	10	11
  13	3	3	2	10	8
  14	3	3	2	10	11
  15	3	2	3	5	6
  16	3	4	3	5	6
  17	3	3	5	6	7
  18	3	3	5	6	8
  19	3	5	6	8	9
  20	3	5	6	8	10
  21	3	7	6	8	9
  22	3	7	6	8	10
  23	2	6	8	9	12
  24	2	6	8	9	13
  25	2	6	8	9	14
  26	2	10	8	9	12
  27	2	10	8	9	13
  28	2	10	8	9	14
  29	3	6	8	10	2
  30	3	6	8	10	11
  31	3	9	8	10	2
  32	3	9	8	10	11
  33	2	32	18	19	20
  34	2	32	18	19	27
  35	2	33	18	19	20
  36	2	33	18	19	27
  37	2	34	18	19	20
  38	2	34	18	19	27
  39	3	18	19	20	21
  40	3	18	19	20	22
  41	3	27	19	20	21
  42	3	27	19	20	22
  43	3	18	19	27	25
  44	3	18	19	27	28
  45	3	20	19	27	25
  46	3	20	19	27	28
  47	3	19	20	22	23
  48	3	21	20	22	23
  49	3	20	22	23	24
  50	3	20	22	23	25
  51	3	22	23	25	26
  52	3	22	23	25	27
  53	3	24	23	25	26
  54	3	24	23	25	27
  55	2	23	25	26	29
  56	2	23	25	26	30
  57	2	23	25	26	31
  58	2	27	25	26	29
  59	2	27	25	26	30
  60	2	27	25	26	31
  61	3	23	25	27	19
  62	3	23	25	27	28
  63	3	26	25	27	19
  64	3	26	25	27	28
  65	3	2	3	5	28
  66	3	4	3	5	28
  67	3	7	6	5	28
  68	3	8	6	5	28
  69	1	5	28	27	19
  70	1	5	28	27	25
  71	1	3	5	28	27
  72	1	6	5	28	27
  73	2	49	35	36	37
  74	2	49	35	36	44
  75	2	50	35	36	37
  76	2	50	35	36	44
  77	2	51	35	36	37
  78	2	51	35	36	44
  79	3	35	36	37	38
  80	3	35	36	37	39
  81	3	44	36	37	38
  82	3	44	36	37	39
  83	3	35	36	44	42
  84	3	35	36	44	45
  85	3	37	36	44	42
  86	3	37	36	44	45
  87	3	36	37	39	40
  88	3	38	37	39	40
  89	3	37	39	40	41
  90	3	37	39	40	42
  91	3	39	40	42	43
  92	3	39	40	42	44
  93	3	41	40	42	43
  94	3	41	40	42	44
  95	2	40	42	43	46
  96	2	40	42	43	47
  97	2	40	42	43	48
  98	2	44	42	43	46
  99	2	44	42	43	47
 100	2	44	42	43	48
 101	3	40	42	44	36
 102	3	40	42	44	45
 103	3	43	42	44	36
 104	3	43	42	44	45
 105	3	19	20	22	45
 106	3	21	20	22	45
 107	3	24	23	22	45
 108	3	25	23	22	45
 109	1	22	45	44	36
 110	1	22	45	44	42
 111	1	20	22	45	44
 112	1	23	22	45	44
 113	2	66	52	53	54
 114	2	66	52	53	61
 115	2	67	52	53	54
 116	2	67	52	53	61
 117	2	68	52	53	54
 118	2	68	52	53	61
 119	3	52	53	54	55
 120	3	52	53	54	56
 121	3	61	53	54	55
 122	3	61	53	54	56
 123	3	52	53	61	59
 124	3	52	53	61	62
 125	3	54	53	61	59
 126	3	54	53	61	62
 127	3	53	54	56	57
 128	3	55	54	56	57
 129	3	54	56	57	58
 130	3	54	56	57	59
 131	3	56	57	59	60
 132	3	56	57	59	61
 133	3	58	57	59	60
 134	3	58	57	59	61
 135	2	57	59	60	63
 136	2	57	59	60	64
 137	2	57	59	60	65
 138	2	61	59	60	63
 139	2	61	59	60	64
 140	2	61	59	60	65
 141	3	57	59	61	53
 142	3	57	59	61	62
 143	3	60	59	61	53
 144	3	60	59	61	62
 145	3	36	37	39	62
 146	3	38	37	39	62
 147	3	41	40	39	62
 148	3	42	40	39	62
 149	1	39	62	61	53
 150	1	39	62	61	59
 151	1	37	39	62	61
 152	1	40	39	62	61
 153	2	83	69	70	71
 154	2	83	69	70	78
 155	2	84	69	70	71
 156	2	84	69	70	78
 157	2	85	69	70	71
 158	2	85	69	70	78
 159	3	69	70	71	72
 160	3	69	70	71	73
 161	3	78	70	71	72
 162	3	78	70	71	73
 163	3	69	70	78	76
 164	3	69	70	78	79
 165	3	71	70	78	76
 166	3	71	70	78	79
 167	3	70	71	73	74
 168	3	72	71	73	74
 169	3	71	73	74	75
 170	3	71	73	74	76
 171	3	73	74	76	77
 172	3	73	74	76	78
 173	3	75	74	76	77
 174	3	75	74	76	78
 175	2	74	76	77	80
 176	2	74	76	77	81
 177	2	74	76	77	82
 178	2	78	76	77	80
 179	2	78	76	77	81
 180	2	78	76	77	82
 181	3	74	76	78	70
 182	3	74	76	78	79
 183	3	77	76	78	70
 184	3	77	76	78	79
 185	3	53	54	56	79
 186	3	55	54	56	79
 187	3	58	57	56	79
 188	3	59	57	56	79
 189	1	56	79	78	70
 190	1	56	79	78	76
 191	1	54	56	79	78
 192	1	57	56	79	78
 193	2	100	86	87	88
 194	2	100	86	87	95
 195	2	101	86	87	88
 196	2	101	86	87	95
 197	2	102	86	87	88
 198	2	102	86	87	95
 199	3	86	87	88	89
 200	3	86	87	88	90
 201	3	95	87	88	89
 202	3	95	87	88	90
 203	3	86	87	95	93
 204	3	86	87	95	96
 205	3	88	87	95	93
 206	3	88	87	95	96
 207	3	87	88	90	91
 208	3	89	88	90	91
 209	3	88	90	91	92
 210	3	88	90	91	93
 211	3	90	91	93	94
 212	3	90	91	93	95
 213	3	92	91	93	94
 214	3	92	91	93	95
 215	2	91	93	94	97
 216	2	91	93	94	98
 217	2	91	93	94	99
 218	2	95	93	94	97
 219	2	95	93	94	98
 220	2	95	93	94	99
 221	3	91	93	95	87
 222	3	91	93	95	96
 223	3	94	93	95	87
 224	3	94	93	95	96
 225	3	70	71	73	96
 226	3	72	71	73	96
 227	3	75	74	73	96
 228	3	76	74	73	96
 229	1	73	96	95	87
 230	1	73	96	95	93
 231	1	71	73	96	95
 232	1	74	73	96	95
 233	2	117	103	104	105
 234	2	117	103	104	112
 235	2	118	103	104	105
 236	2	118	103	104	112
 237	2	119	103	104	105
 238	2	119	103	104	112
 239	3	103	104	105	106
 240	3	103	104	105	107
 241	3	112	104	105	106
 242	3	112	104	105	107
 243	3	103	104	112	110
 244	3	103	104	112	113
 245	3	105	104	112	110
 246	3	105	104	112	113
 247	3	104	105	107	108
 248	3	106	105	107	108
 249	3	105	107	108	109
 250	3	105	107	108	110
 251	3	107	108	110	111
 252	3	107	108	110	112
 253	3	109	108	110	111
 254	3	109	108	110	112
 255	2	108	110	111	114
 256	2	108	110	111	115
 257	2	108	110	111	116
 258	2	112	110	111	114
 259	2	112	110	111	115
 260	2	112	110	111	116
 261	3	108	110	112	104
 262	3	108	110	112	113
 263	3	111	110	112	104
 264	3	111	110	112	113
 265	3	87	88	90	113
 266	3	89	88	90	113
 267	3	92	91	90	113
 268	3	93	91	90	113
 269	1	90	113	112	104
 270	1	90	113	112	110
 271	1	88	90	113	112
 272	1	91	90	113	112
 273	2	134	120	121	122
 274	2	134	120	121	129
 275	2	135	120	121	122
 276	2	135	120	121	129
 277	2	136	120	121	122
 278	2	136	120	121	129
 279	3	120	121	122	123
 280	3	120	121	122	124
 281	3	129	121	122	123
 282	3	129	121	122	124
 283	3	120	121	129	127
 284	3	120	121	129	130
 285	3	122	121	129	127
 286	3	122	121	129	130
 287	3	121	122	124	125
 288	3	123	122	124	125
 289	3	122	124	125	126
 290	3	122	124	125	127
 291	3	124	125	127	128
 292	3	124	125	127	129
 293	3	126	125	127	128
 294	3	126	125	127	129
 295	2	125	127	128	131
 296	2	125	127	128	132
 297	2	125	127	128	133
 298	2	129	127	128	131
 299	2	129	127	128	132
 300	2	129	127	128	133
 301	3	125	127	129	121
 302	3	125	127	129	130
 303	3	128	127	129	121
 304	3	128	127	129	130
 305	3	104	105	107	130
 306	3	106	105	107	130
 307	3	109	108	107	130
 308	3	110	108	107	130
 309	1	107	130	129	121
 310	1	107	130	129	127
 311	1	105	107	130	129
 312	1	108	107	130	129
 313	2	151	137	138	139
 314	2	151	137	138	146
 315	2	152	137	138	139
 316	2	152	137	138	146
 317	2	153	137	138	139
 318	2	153	137	138	146
 319	3	137	138	139	140