pySIMM System Object

512 atoms
541 bonds
930 angles
1198 dihedrals
120 impropers

6 atom types
6 bond types
8 angle types
3 dihedral types
2 improper types

-90.791590 90.791590 xlo xhi
-90.791590 90.791590 ylo yhi
-90.791590 90.791590 zlo zhi

Masses

   1	12.01	# c3
   2	12.01	# ca
   3	1.008	# ha
   4	16.0	# oh
   5	1.008	# hc
   6	1.008	# ho

Pair Coeffs

   1	0.1094	3.3996695084235347	# c3
   2	0.086	3.3996695084235347	# ca
   3	0.015	2.59964245953351	# ha
   4	0.2104	3.0664733878390478	# oh
   5	0.0157	2.649532787749369	# hc
   6	0.0047	0.5379246460131368	# ho

Bond Coeffs

   1	371.4	0.973	# ho,oh
   2	461.1	1.3984	# ca,ca
   3	384.0	1.3637	# ca,oh
   4	345.8	1.086	# ca,ha
   5	321.0	1.5156	# c3,ca
   6	330.6	1.0969	# c3,hc

Angle Coeffs

   1	46.8	110.47	# ca,c3,hc
   2	49.0	108.58	# ca,oh,ho
   3	69.52	119.9	# ca,ca,oh
   4	66.62	120.02	# ca,ca,ca
   5	39.4	107.58	# hc,c3,hc
   6	48.18	119.88	# ca,ca,ha
   7	63.53	120.77	# c3,ca,ca
   8	63.5	119.89	# ca,oh,ca

Dihedral Coeffs

   1	1	3.625	2	180	# X,ca,ca,X
   2	1	0.9	2	180	# X,ca,oh,X
   3	1	0.0	2	0	# X,c3,ca,X

Improper Coeffs

   1	1.1	-1	2	# ca,X,X,ha
   2	1.1	-1	2	# ca,ca,ca,c3

Atoms

   1	1	1	-0.211274	4.38077	0.930731	-7.36764
   2	1	2	0.221306	4.40967	0.420031	-5.93794
   3	1	2	-0.631195	5.61627	0.487831	-5.22424
   4	1	3	0.289556	6.49317	0.926431	-5.68694
   5	1	2	0.263167	5.69767	-0.00176854	-3.90994
   6	1	2	-0.339066	4.56777	-0.589769	-3.33204
   7	1	3	0.163087	4.63687	-0.981469	-2.32274
   8	1	2	0.033139	3.35907	-0.692669	-4.04054
   9	1	1	-0.070169	2.17247	-1.40487	-3.40734
  10	1	2	-0.051663	3.27307	-0.164969	-5.34434
  11	1	4	-0.031436	2.09567	-0.24537	-6.04014
  12	1	5	0.081364	1.28017	-0.770869	-3.44864
  13	1	5	-0.00525	2.35487	-1.65797	-2.35524
  14	1	5	-0.006128	1.95007	-2.33967	-3.93804
  15	1	5	0.002513	3.41217	1.37523	-7.62514
  16	1	5	0.147318	4.57167	0.105231	-8.06284
  17	1	5	0.144731	5.14427	1.69783	-7.53154
  18	1	1	-0.211274	8.53647	-1.89727	-4.50204
  19	1	2	0.221306	8.92177	-0.436969	-4.33094
  20	1	2	-0.631195	10.1478	0.0140315	-4.84154
  21	1	3	0.289556	10.7969	-0.680569	-5.35974
  22	1	2	0.263167	10.5354	1.35773	-4.70224
  23	1	2	-0.339066	9.69297	2.24243	-4.02014
  24	1	3	0.163087	9.98947	3.28123	-3.92414
  25	1	2	0.033139	8.46467	1.80903	-3.49264
  26	1	1	-0.070169	7.56017	2.80023	-2.77734
  27	1	2	-0.051663	8.06987	0.466431	-3.66404
  28	1	4	-0.031436	6.85897	0.0392315	-3.17654
  29	1	5	0.081364	8.09197	3.71823	-2.50674
  30	1	5	-0.00525	7.15417	2.37333	-1.85214
  31	1	5	-0.006128	6.71987	3.07863	-3.42284
  32	1	5	0.002513	9.33987	-2.48367	-4.96514
  33	1	5	0.147318	7.64117	-1.99597	-5.12874
  34	1	5	0.144731	8.31187	-2.34547	-3.52724
  35	1	1	-0.211274	14.1655	0.305331	-5.28654
  36	1	2	0.221306	13.3109	0.555131	-6.51644
  37	1	2	-0.631195	13.6517	-0.0769685	-7.72234
  38	1	3	0.289556	14.5079	-0.742469	-7.75884
  39	1	2	0.263167	12.8909	0.126931	-8.88124
  40	1	2	-0.339066	11.8163	1.02783	-8.83794
  41	1	3	0.163087	11.2467	1.22583	-9.74004
  42	1	2	0.033139	11.4442	1.65223	-7.63744
  43	1	1	-0.070169	10.2679	2.61823	-7.63984
  44	1	2	-0.051663	12.1633	1.37073	-6.45664
  45	1	4	-0.031436	11.7078	1.82953	-5.24414
  46	1	5	0.081364	10.0407	2.96723	-8.65374
  47	1	5	-0.00525	10.487	3.50643	-7.03304
  48	1	5	-0.006128	9.36487	2.14183	-7.23894
  49	1	5	0.002513	15.1814	-0.00826854	-5.55804
  50	1	5	0.147318	13.7207	-0.475769	-4.66114
  51	1	5	0.144731	14.2588	1.21483	-4.67804
  52	1	1	-0.211274	10.9004	-2.25957	-9.26284
  53	1	2	0.221306	11.1037	-1.67037	-10.6496
  54	1	2	-0.631195	10.129	-1.92987	-11.6255
  55	1	3	0.289556	9.24247	-2.49437	-11.3529
  56	1	2	0.263167	10.3032	-1.50557	-12.9521
  57	1	2	-0.339066	11.4673	-0.800769	-13.2851
  58	1	3	0.163087	11.6191	-0.489469	-14.3139
  59	1	2	0.033139	12.4374	-0.490469	-12.3139
  60	1	1	-0.070169	13.6871	0.280731	-12.7213
  61	1	2	-0.051663	12.2483	-0.907769	-10.9801
  62	1	4	-0.031436	13.1896	-0.574969	-10.0264
  63	1	5	0.081364	13.818	1.17683	-12.1022
  64	1	5	-0.00525	13.6439	0.605631	-13.7683
  65	1	5	-0.006128	14.5844	-0.340769	-12.606
  66	1	5	0.002513	10.1753	-3.08367	-9.27124
  67	1	5	0.147318	10.5376	-1.49497	-8.56694
  68	1	5	0.144731	11.8416	-2.66097	-8.86784
  69	1	1	-0.211274	7.36737	0.262431	-13.5971
  70	1	2	0.221306	7.07567	-1.22337	-13.4987
  71	1	2	-0.631195	5.76037	-1.63127	-13.2371
  72	1	3	0.289556	4.99197	-0.884169	-13.0708
  73	1	2	0.263167	5.43207	-2.99367	-13.1855
  74	1	2	-0.339066	6.43277	-3.94287	-13.4196
  75	1	3	0.163087	6.17497	-4.99757	-13.4012
  76	1	2	0.033139	7.76007	-3.55767	-13.6704
  77	1	1	-0.070169	8.79387	-4.64547	-13.9316
  78	1	2	-0.051663	8.08967	-2.18497	-13.6964
  79	1	4	-0.031436	9.38337	-1.78117	-13.9396
  80	1	5	0.081364	9.78517	-4.37017	-13.5544
  81	1	5	-0.00525	8.88137	-4.84397	-15.0068
  82	1	5	-0.006128	8.51007	-5.58557	-13.4422
  83	1	5	0.002513	6.51337	0.870231	-13.2735
  84	1	5	0.147318	7.59947	0.534231	-14.6334
  85	1	5	0.144731	8.22567	0.531031	-12.9719
  86	1	1	-0.211274	2.47857	-2.11377	-14.9449
  87	1	2	0.221306	2.28527	-1.98677	-13.4416
  88	1	2	-0.631195	1.24387	-1.17087	-12.9811
  89	1	3	0.289556	0.593674	-0.669769	-13.69
  90	1	2	0.263167	1.02127	-0.987069	-11.6116
  91	1	2	-0.339066	1.86167	-1.62947	-10.6894
  92	1	3	0.163087	1.69497	-1.49727	-9.62524
  93	1	2	0.033139	2.92277	-2.44027	-11.1267
  94	1	1	-0.070169	3.85107	-3.07997	-10.1019
  95	1	2	-0.051663	3.13187	-2.62467	-12.5096
  96	1	4	-0.031436	4.15647	-3.43187	-12.9371
  97	1	5	0.081364	4.01197	-4.14157	-10.324
  98	1	5	-0.00525	3.44797	-3.01237	-9.08444
  99	1	5	-0.006128	4.83007	-2.58427	-10.1042
 100	1	5	0.002513	2.81997	-1.16387	-15.3741
 101	1	5	0.147318	1.53987	-2.38857	-15.437
 102	1	5	0.144731	3.21707	-2.87747	-15.208
 103	1	1	-0.211274	1.13547	1.91733	-9.57394
 104	1	2	0.221306	0.0263736	0.993931	-9.10424
 105	1	2	-0.631195	-0.542026	1.19773	-7.83794
 106	1	3	0.289556	-0.175826	1.99763	-7.20034
 107	1	2	0.263167	-1.62913	0.422831	-7.41134
 108	1	2	-0.339066	-2.12663	-0.578269	-8.25774
 109	1	3	0.163087	-3.00413	-1.13867	-7.95844
 110	1	2	0.033139	-1.54003	-0.834369	-9.50794
 111	1	1	-0.070169	-2.10313	-1.93947	-10.3954
 112	1	2	-0.051663	-0.472526	-0.0245685	-9.94324
 113	1	4	-0.031436	-0.000626393	-0.156369	-11.2264
 114	1	5	0.081364	-1.30613	-2.60357	-10.7553
 115	1	5	-0.00525	-2.61083	-1.51977	-11.2728
 116	1	5	-0.006128	-2.82653	-2.56477	-9.85714
 117	1	5	0.002513	1.34087	2.72303	-8.85804
 118	1	5	0.147318	0.860874	2.38193	-10.5272
 119	1	5	0.144731	2.06277	1.35543	-9.72744
 120	1	1	-0.211274	-2.02463	-1.92267	-5.09104
 121	1	2	0.221306	-1.72283	-0.637269	-4.34314
 122	1	2	-0.631195	-1.37533	-0.722069	-2.98714
 123	1	3	0.289556	-1.32643	-1.68607	-2.49474
 124	1	2	0.263167	-1.07373	0.424231	-2.24584
 125	1	2	-0.339066	-1.13193	1.67493	-2.88124
 126	1	3	0.163087	-0.897226	2.57723	-2.32364
 127	1	2	0.033139	-1.50053	1.78723	-4.23394
 128	1	1	-0.070169	-1.57393	3.18473	-4.83884
 129	1	2	-0.051663	-1.80183	0.622431	-4.97604
 130	1	4	-0.031436	-2.30593	0.722931	-6.25424
 131	1	5	0.081364	-1.91833	3.18473	-5.87914
 132	1	5	-0.00525	-0.589026	3.67063	-4.82104
 133	1	5	-0.006128	-2.26693	3.81643	-4.26874
 134	1	5	0.002513	-2.13833	-2.77837	-4.41374
 135	1	5	0.147318	-1.21043	-2.15107	-5.79124
 136	1	5	0.144731	-2.95423	-1.83067	-5.66344
 137	1	1	-0.211274	-2.84873	1.80113	0.328941
 138	1	2	0.221306	-1.37263	2.08553	0.548041
 139	1	2	-0.631195	-0.994726	3.17863	1.34704
 140	1	3	0.289556	-1.74433	3.83463	1.76984
 141	1	2	0.263167	0.359374	3.46443	1.56384
 142	1	2	-0.339066	1.33117	2.62423	0.999041
 143	1	3	0.163087	2.38297	2.83003	1.15904
 144	1	2	0.033139	0.977874	1.55743	0.165441
 145	1	1	-0.070169	2.08747	0.747631	-0.494059
 146	1	2	-0.051663	-0.384226	1.29563	-0.0780594
 147	1	4	-0.031436	-0.738526	0.271031	-0.921159
 148	1	5	0.081364	2.02227	-0.309969	-0.214159
 149	1	5	-0.00525	3.08217	1.10583	-0.199259
 150	1	5	-0.006128	2.03017	0.821531	-1.58646
 151	1	5	0.002513	-3.48743	2.40423	0.986441
 152	1	5	0.147318	-3.06863	0.742331	0.518441
 153	1	5	0.144731	-3.12633	2.01593	-0.709859
 154	1	1	-0.211274	3.29037	4.58823	3.60114
 155	1	2	0.221306	3.06957	5.23283	2.24614
 156	1	2	-0.631195	4.18407	5.65333	1.50694
 157	1	3	0.289556	5.19017	5.51073	1.89404
 158	1	2	0.263167	4.02277	6.18083	0.220741
 159	1	2	-0.339066	2.72717	6.41803	-0.265459
 160	1	3	0.163087	2.60077	6.85613	-1.25076
 161	1	2	0.033139	1.59667	6.00533	0.455441
 162	1	1	-0.070169	0.213474	6.19373	-0.162459
 163	1	2	-0.051663	1.77747	5.34063	1.68794
 164	1	4	-0.031436	0.738374	4.61223	2.21824
 165	1	5	0.081364	0.190474	7.06063	-0.833359
 166	1	5	-0.00525	-0.554626	6.35973	0.603741
 167	1	5	-0.006128	-0.0777264	5.31253	-0.746859
 168	1	5	0.002513	4.34937	4.37053	3.78554
 169	1	5	0.147318	2.73607	3.64783	3.69234
 170	1	5	0.144731	2.93677	5.26233	4.38604
 171	1	1	-0.211274	4.21327	3.74013	-1.68154
 172	1	2	0.221306	4.58197	4.95883	-2.51624
 173	1	2	-0.631195	4.42467	4.86393	-3.90804
 174	1	3	0.289556	4.01257	3.95703	-4.34074
 175	1	2	0.263167	4.79077	5.92283	-4.74554
 176	1	2	-0.339066	5.35217	7.07673	-4.18154
 177	1	3	0.163087	5.65057	7.89843	-4.82484
 178	1	2	0.033139	5.51127	7.20003	-2.79304
 179	1	1	-0.070169	6.13237	8.46873	-2.22504
 180	1	2	-0.051663	5.08237	6.15803	-1.94644
 181	1	4	-0.031436	5.12607	6.35553	-0.581059
 182	1	5	0.081364	7.00147	8.22813	-1.59914
 183	1	5	-0.00525	5.41027	9.01833	-1.60886
 184	1	5	-0.006128	6.47617	9.14343	-3.01984
 185	1	5	0.002513	4.36217	2.80573	-2.23874
 186	1	5	0.147318	3.16197	3.78133	-1.37226
 187	1	5	0.144731	4.83027	3.67323	-0.778159
 188	1	1	-0.211274	7.35907	4.82713	-6.32274
 189	1	2	0.221306	6.79637	5.97023	-7.15054
 190	1	2	-0.631195	7.65417	6.61913	-8.04714
 191	1	3	0.289556	8.68027	6.27823	-8.13344
 192	1	2	0.263167	7.21747	7.72673	-8.79114
 193	1	2	-0.339066	5.89247	8.15953	-8.64654
 194	1	3	0.163087	5.55207	9.02033	-9.21354
 195	1	2	0.033139	5.00757	7.51483	-7.76124
 196	1	1	-0.070169	3.59057	8.05423	-7.59574
 197	1	2	-0.051663	5.46467	6.41423	-7.00474
 198	1	4	-0.031436	4.62837	5.80153	-6.10284
 199	1	5	0.081364	3.48197	8.59173	-6.64474
 200	1	5	-0.00525	2.84937	7.24573	-7.60774
 201	1	5	-0.006128	3.32847	8.75113	-8.40204
 202	1	5	0.002513	8.28047	4.42843	-6.76004
 203	1	5	0.147318	6.64297	4.00223	-6.24144
 204	1	5	0.144731	7.58977	5.17183	-5.30744
 205	1	1	-0.211274	9.10697	7.06053	-11.9521
 206	1	2	0.221306	9.97647	7.52523	-10.798
 207	1	2	-0.631195	11.3514	7.25273	-10.8375
 208	1	3	0.289556	11.7797	6.74763	-11.6958
 209	1	2	0.263167	12.184	7.62283	-9.77494
 210	1	2	-0.339066	11.6309	8.29873	-8.67874
 211	1	3	0.163087	12.2722	8.60513	-7.85874
 212	1	2	0.033139	10.2623	8.60743	-8.62954
 213	1	1	-0.070169	9.73437	9.38753	-7.43194
 214	1	2	-0.051663	9.42127	8.19593	-9.68794
 215	1	4	-0.031436	8.06317	8.41303	-9.63204
 216	1	5	0.081364	8.87297	8.89203	-6.97204
 217	1	5	-0.00525	9.42787	10.3975	-7.72994
 218	1	5	-0.006128	10.4986	9.49073	-6.65224
 219	1	5	0.002513	9.68367	6.50893	-12.7048
 220	1	5	0.147318	8.63597	7.91673	-12.4487
 221	1	5	0.144731	8.31097	6.40043	-11.5883
 222	1	1	-0.211274	13.2737	4.50343	-9.22474
 223	1	2	0.221306	14.1085	5.46393	-8.40264
 224	1	2	-0.631195	14.8029	4.96693	-7.29164
 225	1	3	0.289556	14.722	3.91703	-7.02234
 226	1	2	0.263167	15.6272	5.81263	-6.53614
 227	1	2	-0.339066	15.7521	7.15723	-6.90354
 228	1	3	0.163087	16.3962	7.80433	-6.31594
 229	1	2	0.033139	15.0554	7.67733	-8.00474
 230	1	1	-0.070169	15.2243	9.14723	-8.36444
 231	1	2	-0.051663	14.2144	6.82723	-8.74964
 232	1	4	-0.031436	13.5217	7.32043	-9.82954
 233	1	5	0.081364	15.3701	9.27593	-9.44354
 234	1	5	-0.00525	16.0959	9.58943	-7.86444
 235	1	5	-0.006128	14.3425	9.72973	-8.07094
 236	1	5	0.002513	13.3687	3.46953	-8.87424
 237	1	5	0.147318	13.5934	4.52503	-10.2717
 238	1	5	0.144731	12.2152	4.78063	-9.18334
 239	1	1	-0.211274	13.5696	5.82173	-4.31224
 240	1	2	0.221306	14.5542	4.74603	-3.87014
 241	1	2	-0.631195	14.1559	3.94253	-2.79754
 242	1	3	0.289556	13.1701	4.10063	-2.37794
 243	1	2	0.263167	15.015	2.98963	-2.22564
 244	1	2	-0.339066	16.2838	2.81413	-2.79174
 245	1	3	0.163087	16.9603	2.09013	-2.34944
 246	1	2	0.033139	16.6968	3.57683	-3.90104
 247	1	1	-0.070169	18.093	3.35673	-4.47584
 248	1	2	-0.051663	15.8352	4.55683	-4.44114
 249	1	4	-0.031436	16.3261	5.36203	-5.44574
 250	1	5	0.081364	18.5568	2.44773	-4.07284
 251	1	5	-0.00525	18.7534	4.19953	-4.23454
 252	1	5	-0.006128	18.0717	3.24983	-5.56904
 253	1	5	0.002513	12.8476	6.06093	-3.52044
 254	1	5	0.147318	13.0019	5.49103	-5.18974
 255	1	5	0.144731	14.0788	6.75773	-4.56714
 256	1	1	-0.211274	14.2587	4.55473	0.647341
 257	1	2	0.221306	13.161	3.58933	0.238041
 258	1	2	-0.631195	11.8417	3.94973	0.534141
 259	1	3	0.289556	11.6491	4.88173	1.05894
 260	1	2	0.263167	10.7634	3.17253	0.0764406
 261	1	2	-0.339066	11.0284	1.96663	-0.580759
 262	1	3	0.163087	10.195	1.36133	-0.921359
 263	1	2	0.033139	12.3443	1.57533	-0.881759
 264	1	1	-0.070169	12.5678	0.267131	-1.63656
 265	1	2	-0.051663	13.4133	2.42973	-0.528959
 266	1	4	-0.031436	14.6461	2.25893	-1.11386
 267	1	5	0.081364	11.7776	0.0971315	-2.37594
 268	1	5	-0.00525	12.5578	-0.582069	-0.941859
 269	1	5	-0.006128	13.5254	0.242831	-2.16844
 270	1	5	0.002513	14.4017	5.32373	-0.119659
 271	1	5	0.147318	15.2123	4.04103	0.801041
 272	1	5	0.144731	14.0036	5.05883	1.58514
 273	1	1	-0.211274	10.0977	5.79013	-1.75834
 274	1	2	0.221306	9.51707	5.99093	-0.368359
 275	1	2	-0.631195	9.39257	7.30933	0.0877406
 276	1	3	0.289556	9.68887	8.13513	-0.548759
 277	1	2	0.263167	8.89397	7.58233	1.36424
 278	1	2	-0.339066	8.46857	6.51133	2.17054
 279	1	3	0.163087	8.06517	6.69443	3.16064
 280	1	2	0.033139	8.58147	5.18573	1.73524
 281	1	1	-0.070169	8.15097	4.05553	2.66004
 282	1	2	-0.051663	9.15727	4.91693	0.481041
 283	1	4	-0.031436	9.46377	3.61233	0.171041
 284	1	5	0.081364	9.02767	3.58643	3.12354
 285	1	5	-0.00525	7.60317	3.27893	2.11024
 286	1	5	-0.006128	7.49057	4.40973	3.46214
 287	1	5	0.002513	9.38547	6.10663	-2.53054
 288	1	5	0.147318	10.3599	4.74763	-1.96244
 289	1	5	0.144731	11.0123	6.38093	-1.87214
 290	1	1	-0.211274	10.3321	8.78813	4.31714
 291	1	2	0.221306	8.84287	9.06023	4.19664
 292	1	2	-0.631195	8.08357	9.08433	5.37424
 293	1	3	0.289556	8.55607	8.90073	6.33214
 294	1	2	0.263167	6.69897	9.27413	5.32134
 295	1	2	-0.339066	6.09277	9.54703	4.08594
 296	1	3	0.163087	5.02577	9.74033	4.03504
 297	1	2	0.033139	6.82907	9.52313	2.89544
 298	1	1	-0.070169	6.10117	9.78433	1.58184
 299	1	2	-0.051663	8.20227	9.21923	2.95074
 300	1	4	-0.031436	8.85687	8.88793	1.79524
 301	1	5	0.081364	5.59017	10.7553	1.62634
 302	1	5	-0.00525	5.34177	9.01433	1.38934
 303	1	5	-0.006128	6.77267	9.81713	0.712841
 304	1	5	0.002513	10.5234	7.73923	4.57724
 305	1	5	0.147318	10.7632	9.41973	5.10194
 306	1	5	0.144731	10.8723	9.01433	3.39004
 307	1	1	-0.211274	4.90347	6.50083	6.27294
 308	1	2	0.221306	4.02927	7.74373	6.37254
 309	1	2	-0.631195	2.62977	7.60193	6.35634
 310	1	3	0.289556	2.18847	6.61223	6.33484
 311	1	2	0.263167	1.79847	8.73393	6.41634
 312	1	2	-0.339066	2.37467	10.0049	6.49664
 313	1	3	0.163087	1.72667	10.8717	6.54794
 314	1	2	0.033139	3.77077	10.1706	6.53344
 315	1	1	-0.070169	4.35067	11.5792	6.62064
 316	1	2	-0.051663	4.60187	9.03163	6.47204
 317	1	4	-0.031436	5.96677	9.18203	6.47584
 318	1	5	0.081364	5.27647	11.671	6.03874
 319	1	5	-0.00525	4.57587	11.8476	7.66094
 320	1	5	-0.006128	3.64787	12.3253	6.22764
 321	1	5	0.002513	5.62877	6.46863	7.09354
 322	1	5	0.147318	5.46027	6.49693	5.32814
 323	1	5	0.144731	4.31437	5.58033	6.31964
 324	1	1	-0.211274	-0.192826	7.31033	3.92104
 325	1	2	0.221306	-0.521326	6.73643	5.28704
 326	1	2	-0.631195	-1.11063	5.47033	5.35994
 327	1	3	0.289556	-1.27653	4.91133	4.44524
 328	1	2	0.263167	-1.48033	4.92863	6.60014
 329	1	2	-0.339066	-1.23713	5.65653	7.76934
 330	1	3	0.163087	-1.51773	5.23183	8.72904
 331	1	2	0.033139	-0.597426	6.90363	7.72024
 332	1	1	-0.070169	-0.291826	7.63723	9.01914
 333	1	2	-0.051663	-0.238026	7.44883	6.47064
 334	1	4	-0.031436	0.432974	8.64033	6.41354
 335	1	5	0.081364	-1.01003	8.44933	9.18974
 336	1	5	-0.00525	0.716174	8.07163	9.01674
 337	1	5	-0.006128	-0.343126	6.95423	9.87534
 338	1	5	0.002513	-0.811126	6.86643	3.13004
 339	1	5	0.147318	0.861474	7.14413	3.67164
 340	1	5	0.144731	-0.376226	8.39153	3.90194
 341	1	1	-0.211274	-3.77413	3.13713	4.41964
 342	1	2	0.221306	-2.50143	2.36563	4.73984
 343	1	2	-0.631195	-2.16313	1.27813	3.92864
 344	1	3	0.289556	-2.76333	1.05503	3.05574
 345	1	2	0.263167	-1.11093	0.417031	4.28164
 346	1	2	-0.339066	-0.308626	0.746331	5.37974
 347	1	3	0.163087	0.522174	0.102031	5.64634
 348	1	2	0.033139	-0.580926	1.87513	6.16704
 349	1	1	-0.070169	0.340574	2.19833	7.34174
 350	1	2	-0.051663	-1.71673	2.66103	5.87074
 351	1	4	-0.031436	-2.06643	3.69903	6.69354
 352	1	5	0.081364	1.09927	2.93743	7.04684
 353	1	5	-0.00525	0.870674	1.30093	7.68894
 354	1	5	-0.006128	-0.199826	2.60573	8.20894
 355	1	5	0.002513	-4.57103	2.85773	5.11944
 356	1	5	0.147318	-4.13233	2.92093	3.40764
 357	1	5	0.144731	-3.63603	4.22193	4.49114
 358	1	1	-0.211274	-3.79143	-1.15987	4.54254
 359	1	2	0.221306	-3.19753	-1.57497	3.19924
 360	1	2	-0.631195	-4.09423	-2.13997	2.28724
 361	1	3	0.289556	-5.14623	-2.15967	2.53954
 362	1	2	0.263167	-3.65033	-2.70047	1.08754
 363	1	2	-0.339066	-2.28053	-2.70887	0.812941
 364	1	3	0.163087	-1.93063	-3.19637	-0.0918594
 365	1	2	0.033139	-1.36153	-2.08417	1.67114
 366	1	1	-0.070169	0.121174	-2.16737	1.31544
 367	1	2	-0.051663	-1.82233	-1.46277	2.85804
 368	1	4	-0.031436	-0.907626	-0.788869	3.64524
 369	1	5	0.081364	0.548874	-3.10837	1.68454
 370	1	5	-0.00525	0.706374	-1.34627	1.74544
 371	1	5	-0.006128	0.280374	-2.14317	0.229741
 372	1	5	0.002513	-4.49273	-1.91527	4.91814
 373	1	5	0.147318	-4.34603	-0.218769	4.45564
 374	1	5	0.144731	-3.02513	-1.03107	5.31574
 375	1	1	-0.211274	-6.66563	-4.35437	1.91144
 376	1	2	0.221306	-6.86033	-3.35847	0.773341
 377	1	2	-0.631195	-8.15733	-2.89317	0.513141
 378	1	3	0.289556	-8.97413	-3.22767	1.13904
 379	1	2	0.263167	-8.42073	-2.01957	-0.560359
 380	1	2	-0.339066	-7.34633	-1.57637	-1.34616
 381	1	3	0.163087	-7.53043	-0.881269	-2.16164
 382	1	2	0.033139	-6.03073	-2.00837	-1.09026
 383	1	1	-0.070169	-4.88703	-1.50287	-1.96084
 384	1	2	-0.051663	-5.79003	-2.89887	-0.0242594
 385	1	4	-0.031436	-4.50673	-3.31837	0.215541
 386	1	5	0.081364	-4.25203	-2.32947	-2.30264
 387	1	5	-0.00525	-4.25793	-0.813569	-1.38766
 388	1	5	-0.006128	-5.24443	-0.972369	-2.85184
 389	1	5	0.002513	-6.56443	-3.84517	2.87634
 390	1	5	0.147318	-5.77143	-4.96907	1.76024
 391	1	5	0.144731	-7.52013	-5.03447	1.98144
 392	1	1	-0.211274	-10.6544	0.819331	0.354541
 393	1	2	0.221306	-11.2128	-0.556769	0.671041
 394	1	2	-0.631195	-12.2383	-0.668369	1.61694
 395	1	3	0.289556	-12.6146	0.210031	2.13444
 396	1	2	0.263167	-12.8205	-1.91057	1.89744
 397	1	2	-0.339066	-12.4124	-3.04267	1.16864
 398	1	3	0.163087	-12.8952	-4.00037	1.34764
 399	1	2	0.033139	-11.4132	-2.94267	0.182441
 400	1	1	-0.070169	-11.0847	-4.17607	-0.655259
 401	1	2	-0.051663	-10.7564	-1.70397	-0.00915945
 402	1	4	-0.031436	-9.69183	-1.58597	-0.867859
 403	1	5	0.081364	-12.0027	-4.70697	-0.931959
 404	1	5	-0.00525	-10.4455	-4.87857	-0.107859
 405	1	5	-0.006128	-10.5758	-3.92767	-1.59404
 406	1	5	0.002513	-11.0632	1.60023	1.01244
 407	1	5	0.147318	-10.9089	1.08113	-0.680059
 408	1	5	0.144731	-9.56283	0.839131	0.450341
 409	1	1	-0.211274	-12.9709	-3.18757	5.41014
 410	1	2	0.221306	-14.0775	-3.70857	4.50334
 411	1	2	-0.631195	-14.774	-4.85607	4.91724
 412	1	3	0.289556	-14.5257	-5.34887	5.85484
 413	1	2	0.263167	-15.8003	-5.38627	4.12134
 414	1	2	-0.339066	-16.1699	-4.73867	2.94804
 415	1	3	0.163087	-16.9948	-5.14587	2.37624
 416	1	2	0.033139	-15.5144	-3.57967	2.51664
 417	1	1	-0.070169	-16.0295	-2.89537	1.25174
 418	1	2	-0.051663	-14.4377	-3.08307	3.28664
 419	1	4	-0.031436	-13.7804	-1.95367	2.88214
 420	1	5	0.081364	-17.0045	-2.42387	1.43454
 421	1	5	-0.00525	-16.1667	-3.61667	0.433041
 422	1	5	-0.006128	-15.3574	-2.11577	0.887841
 423	1	5	0.002513	-13.3522	-2.98937	6.41784
 424	1	5	0.147318	-12.5267	-2.26037	5.04124
 425	1	5	0.144731	-12.1657	-3.92127	5.49594
 426	1	1	-0.211274	-14.0156	-8.09417	4.04124
 427	1	2	0.221306	-14.9768	-8.26187	5.21284
 428	1	2	-0.631195	-14.7467	-9.30937	6.11324
 429	1	3	0.289556	-13.905	-9.97847	5.96494
 430	1	2	0.263167	-15.6266	-9.53737	7.17994
 431	1	2	-0.339066	-16.6976	-8.66227	7.38104
 432	1	3	0.163087	-17.3755	-8.81967	8.21094
 433	1	2	0.033139	-16.9821	-7.62747	6.48574
 434	1	1	-0.070169	-18.2686	-6.82607	6.70974
 435	1	2	-0.051663	-16.1204	-7.43597	5.38504
 436	1	4	-0.031436	-16.4877	-6.52857	4.44144
 437	1	5	0.081364	-18.3158	-6.42587	7.72664
 438	1	5	-0.00525	-19.1527	-7.46417	6.58754
 439	1	5	-0.006128	-18.3704	-5.98397	6.02774
 440	1	5	0.002513	-13.5676	-7.09817	4.02524
 441	1	5	0.147318	-14.5069	-8.24657	3.07664
 442	1	5	0.144731	-13.189	-8.80627	4.10134
 443	1	1	-0.211274	-13.6994	-9.62807	10.0574
 444	1	2	0.221306	-15.0964	-10.1627	10.3514
 445	1	2	-0.631195	-15.5628	-10.1895	11.6688
 446	1	3	0.289556	-14.9243	-9.84687	12.4696
 447	1	2	0.263167	-16.8478	-10.6567	11.9647
 448	1	2	-0.339066	-17.6804	-11.072	10.9168
 449	1	3	0.163087	-18.692	-11.4044	11.1396
 450	1	2	0.033139	-17.2343	-11.0525	9.58084
 451	1	1	-0.070169	-18.1962	-11.4584	8.46834
 452	1	2	-0.051663	-15.9097	-10.6331	9.30174
 453	1	4	-0.031436	-15.4166	-10.6077	8.02124
 454	1	5	0.081364	-18.8329	-12.2921	8.78854
 455	1	5	-0.00525	-17.6833	-11.7747	7.55434
 456	1	5	-0.006128	-18.8615	-10.6256	8.19814
 457	1	5	0.002513	-13.751	-8.70807	9.45494
 458	1	5	0.147318	-13.1037	-10.3691	9.50174
 459	1	5	0.144731	-13.1589	-9.38257	10.9776
 460	1	1	-0.211274	-20.0168	-10.5111	14.2422
 461	1	2	0.221306	-19.2185	-11.7964	14.2642
 462	1	2	-0.631195	-19.8306	-12.9466	14.7874
 463	1	3	0.289556	-20.8523	-12.8958	15.1741
 464	1	2	0.263167	-19.1348	-14.1603	14.7951
 465	1	2	-0.339066	-17.7878	-14.1826	14.4003
 466	1	3	0.163087	-17.227	-15.1185	14.4534
 467	1	2	0.033139	-17.1328	-13.0219	13.9714
 468	1	1	-0.070169	-15.6211	-13.0941	13.7783
 469	1	2	-0.051663	-17.8751	-11.8278	13.8276
 470	1	4	-0.031436	-17.2853	-10.7105	13.2763
 471	1	5	0.081364	-15.1956	-12.1333	13.4833
 472	1	5	-0.00525	-15.3526	-13.8292	13.0124
 473	1	5	-0.006128	-15.1358	-13.389	14.7183
 474	1	5	0.002513	-19.8459	-9.92217	15.1529
 475	1	5	0.147318	-21.0964	-10.705	14.1694
 476	1	5	0.144731	-19.7346	-9.88477	13.3923
 477	1	1	-0.211274	-18.1764	-15.558	17.7083
 478	1	2	0.221306	-19.6891	-15.6099	17.6074
 479	1	2	-0.631195	-20.421	-15.7884	18.7911
 480	1	3	0.289556	-19.9086	-15.808	19.7443
 481	1	2	0.263167	-21.8106	-15.8947	18.7673
 482	1	2	-0.339066	-22.4866	-15.9117	17.5543
 483	1	3	0.163087	-23.5674	-15.9912	17.5542
 484	1	2	0.033139	-21.7962	-15.6245	16.3657
 485	1	1	-0.070169	-22.6337	-15.3751	15.1206
 486	1	2	-0.051663	-20.386	-15.4985	16.3801
 487	1	4	-0.031436	-19.7295	-15.3338	15.1915
 488	1	5	0.081364	-22.8517	-16.3178	14.6138
 489	1	5	-0.00525	-22.1398	-14.6843	14.4258
 490	1	5	-0.006128	-23.5807	-14.8982	15.4016
 491	1	5	0.002513	-17.8547	-15.0967	18.6502
 492	1	5	0.147318	-17.7244	-15.0054	16.8827
 493	1	5	0.144731	-17.77	-16.5715	17.6761
 494	1	1	-0.211274	-23.2777	-13.1294	18.6924
 495	1	2	0.221306	-22.6894	-13.3031	20.0806
 496	1	2	-0.631195	-22.4468	-12.1351	20.8178
 497	1	3	0.289556	-22.681	-11.166	20.39
 498	1	2	0.263167	-21.9093	-12.1862	22.1007
 499	1	2	-0.339066	-21.5934	-13.427	22.6471
 500	1	3	0.163087	-21.1969	-13.4564	23.6563
 501	1	2	0.033139	-21.7896	-14.6164	21.9275
 502	1	1	-0.070169	-21.3894	-15.9367	22.5697
 503	1	2	-0.051663	-22.3554	-14.567	20.6352
 504	1	4	-0.031436	-22.5164	-15.734	19.9251
 505	1	5	0.081364	-22.2372	-16.4135	23.048
 506	1	5	-0.00525	-20.6236	-15.7827	23.338
 507	1	5	-0.006128	-20.9658	-16.6484	21.858
 508	1	5	0.002513	-23.6213	-12.0986	18.4955
 509	1	5	0.147318	-24.1326	-13.8015	18.5426
 510	1	5	0.144731	-22.5007	-13.3478	17.9517
 511	1	6	0	0.780757	-0.335159	-6.81721
 512	1	3	0	-21.67	-10.9013	22.8962

Velocities

   1	0.00117947	-0.00260155	-0.00108031
   2	-0.000825736	-0.00042638	-0.000407393
   3	-0.000766108	7.27769e-05	7.33385e-05
   4	-0.00168979	0.00399546	0.00190745
   5	0.00110373	-0.000991823	0.000266367
   6	0.00242574	-0.004237	-0.000371305
   7	0.0033786	-0.00601383	-0.0020654
   8	0.00117883	-0.00327101	0.000199191
   9	0.00105783	-0.000370581	0.00183655
  10	-0.000368713	-0.00223693	2.64007e-05
  11	-0.00158971	-0.00417886	0.000381081
  12	0.00126375	0.00053739	-1.13196e-05
  13	0.000271457	0.00237813	0.0019307
  14	0.00100248	-0.00148414	0.00312358
  15	0.003494	0.00146732	-0.000807619
  16	-0.00443279	-0.00561185	0.0020138
  17	0.00556284	-0.00686698	-0.00604489
  18	0.00331643	0.00125143	0.00272164
  19	0.00132997	0.000952641	-8.25922e-05
  20	-0.00178409	0.000737077	-0.00342846
  21	-0.00363956	0.00136326	-0.006864
  22	-0.00108154	-0.000641504	-0.000835053
  23	0.000982054	-0.000965298	0.00194447
  24	0.00430113	-0.00314805	0.00228714
  25	-0.000811125	0.00229092	0.000267264
  26	0.000283256	0.00581473	-0.00286062
  27	0.000894152	0.00111415	0.000264025
  28	0.00140746	-0.000902067	0.00169304
  29	0.00583265	0.00118939	0.00374275
  30	-0.00531341	0.00503107	-0.00389875
  31	0.00504735	0.0103003	-0.00563382
  32	0.00611156	0.00348742	0.00735347
  33	0.00543055	-0.000452729	0.00158745
  34	0.000583873	0.00408499	0.00436524
  35	-4.30925e-05	-0.00401772	-0.00191041
  36	0.000707728	-0.00157616	-0.00187911
  37	0.0010245	-0.00165184	-0.00242237
  38	0.00078396	-0.00317678	-0.00263722
  39	0.00108153	-0.00125615	-0.00182323
  40	0.000300552	-0.00181644	-0.00152666
  41	0.00209278	0.0005261	-0.00283072
  42	0.00201619	0.000140796	-0.00165836
  43	0.00335771	0.001581	-0.00322657
  44	0.00123577	-0.000686673	-0.00195517
  45	-0.000930559	-0.00105823	-0.00142991
  46	0.00158557	-0.00102134	-0.0048918
  47	0.00603767	0.00190031	-0.00709439
  48	0.0028777	0.00382603	-0.000525653
  49	1.00942e-05	-0.00211205	-0.00226996
  50	0.00101541	-0.00450823	-0.00324872
  51	0.00119218	-0.00370399	-0.00165024
  52	-0.000896254	-0.000211749	0.000725624
  53	0.0012566	-6.95914e-05	0.00101288
  54	0.00216619	-0.000574468	-0.000420232
  55	0.00397428	-4.25755e-05	0.000752365
  56	0.00220929	-0.000830497	-0.000585277
  57	0.00126092	0.0015959	0.000835274
  58	0.000948155	0.00323003	0.00483626
  59	0.000722063	0.000156288	0.00151461
  60	-9.51361e-05	0.000399387	0.00204161
  61	0.00135717	-0.000326951	0.000607753
  62	0.00145742	-0.00141605	-0.000853892
  63	0.00190616	-0.00445934	0.00144023
  64	-0.00303004	0.0045249	-0.00422514
  65	-0.00184729	-0.00030182	-0.00266028
  66	0.0059642	-0.0034214	-0.00270794
  67	-0.00890861	-0.00198655	0.000474718
  68	0.00113807	0.00687757	0.00522741
  69	-0.00106253	0.00189698	-0.00456101
  70	0.000772098	0.00119583	-0.000153121
  71	0.00125966	0.00173411	0.00155737
  72	0.000808265	0.00377657	0.000156765
  73	0.000509041	0.00150043	5.97794e-05
  74	-0.000341876	0.00143614	-0.00368291
  75	-0.000323145	-0.000275436	-0.00450918
  76	7.35019e-05	0.00197101	-0.00069332
  77	-0.00201985	-0.000419533	0.000378785
  78	0.00231903	0.00205574	0.00139694
  79	0.00023793	0.0034071	0.000548911
  80	-0.00485635	-0.00310772	0.00682345
  81	0.00293537	0.00185115	0.00260149
  82	-0.00881088	-0.0028232	-0.0017291
  83	-0.00251219	0.00502728	-0.00535098
  84	-0.00019031	0.000818495	-0.00415038
  85	-0.000165199	0.00337737	-0.00687435
  86	0.00225164	0.00253843	-0.00104643
  87	0.000301556	0.00138505	-0.0013385
  88	-0.0020006	-0.00148643	-0.000466971
  89	-0.00317777	-0.000121796	0.00185718
  90	-0.00257607	-0.00351334	-0.00136314
  91	-0.00253055	-0.0027124	-0.000880996
  92	-0.00276836	0.000400252	-0.00196639
  93	0.00065363	0.00117336	-0.00154597
  94	-0.000174446	0.00163984	-0.000964826
  95	0.00149676	0.00184379	-0.00188481
  96	0.00174106	0.00216518	-0.00178755
  97	-0.00164874	0.000781088	-0.000329972
  98	7.93359e-05	0.00373329	-0.000788785
  99	-0.000727804	0.000386299	-0.00139113
 100	-0.00094583	0.00773859	-0.00364556
 101	0.00576843	-0.00318966	-0.000282404
 102	0.00680389	0.00529023	0.000563946
 103	0.000988647	-0.00239502	-0.0045655
 104	0.00036662	0.00133502	-0.00297494
 105	-1.4118e-05	0.000831236	-0.00334505
 106	0.00180675	-0.00266937	-0.00206165
 107	0.00145888	5.84778e-05	-0.00126161
 108	0.000375009	0.00020422	0.000844043
 109	0.000194598	-0.00142016	0.00530872
 110	-0.00262501	-0.000309929	0.000404072
 111	-0.00298083	0.000600184	0.00146869
 112	-0.0019409	-0.000425161	-0.000138116
 113	-0.00237012	-0.00225341	-0.00185873
 114	-0.00343255	-0.00260628	0.00566205
 115	-0.0015407	0.00286532	-0.00259784
 116	-0.00492785	0.00523132	-0.000921032
 117	-0.00134329	0.000124259	-0.00929903
 118	0.00140468	-0.00530649	-0.00719727
 119	0.00160367	-0.00132239	-0.000496608
 120	0.00388407	0.000151957	-0.00189615
 121	0.00346663	-0.000647776	-0.000200109
 122	0.00379816	-0.0031491	-0.000478637
 123	0.00320987	0.00184472	-0.00674916
 124	0.00287565	-0.00230606	0.000136706
 125	0.00377491	-0.00124032	0.00071439
 126	-0.00114218	-0.00235287	0.000575123
 127	0.00324671	0.000615195	0.00133631
 128	-0.00325029	0.00205051	0.00356089
 129	0.0051778	-0.000426287	0.000819362
 130	0.0048172	-0.000554303	0.000733789
 131	0.00287033	-0.00370072	-0.00218998
 132	-0.00641212	0.00965898	0.00672564
 133	-0.0109148	-0.00462434	-0.00496735
 134	0.0114723	-0.00522245	-0.00274546
 135	0.00113321	0.00559292	-0.00522898
 136	0.00141453	-0.00417664	0.00512083
 137	0.00269428	-0.00232449	0.0009212
 138	0.00199345	-0.000939533	0.00111664
 139	0.000953261	-0.000167659	0.00145206
 140	0.000445713	-0.0020333	0.000855752
 141	0.00160475	0.00296962	-0.0020377
 142	-0.00014219	0.00425097	-0.00336468
 143	-0.000581652	0.00641863	-0.00436092
 144	-0.000841924	0.00137796	-0.00133737
 145	-0.00277823	-0.0013936	0.00261712
 146	0.000210165	-0.000133464	-0.000610582
 147	-0.000438939	-0.000277728	0.000612105
 148	-0.0147146	-0.00278084	-0.00257026
 149	-0.00171427	-0.0122413	0.0146285
 150	0.00773137	0.00187046	0.00256791
 151	0.000600218	-0.00385398	0.000640987
 152	0.00927635	-0.00452723	0.00467938
 153	0.00270442	-0.0017162	1.80997e-05
 154	0.0023871	-0.00320765	-0.000472405
 155	0.0010378	1.87683e-05	0.000495441
 156	0.000945679	-0.00222945	-0.000238601