pySIMM System Object

835 atoms
883 bonds
1519 angles
1958 dihedrals
196 impropers

6 atom types
6 bond types
8 angle types
3 dihedral types
2 improper types

-133.791631 133.791631 xlo xhi
-133.791631 133.791631 ylo yhi
-133.791631 133.791631 zlo zhi

Masses

   1	12.01	# c3
   2	12.01	# ca
   3	1.008	# ha
   4	16.0	# oh
   5	1.008	# hc
   6	1.008	# ho

Pair Coeffs

   1	0.1094	3.3996695084235347	# c3
   2	0.086	3.3996695084235347	# ca
   3	0.015	2.59964245953351	# ha
   4	0.2104	3.0664733878390478	# oh
   5	0.0157	2.649532787749369	# hc
   6	0.0047	0.5379246460131368	# ho

Bond Coeffs

   1	371.4	0.973	# ho,oh
   2	461.1	1.3984	# ca,ca
   3	384.0	1.3637	# ca,oh
   4	345.8	1.086	# ca,ha
   5	321.0	1.5156	# c3,ca
   6	330.6	1.0969	# c3,hc

Angle Coeffs

   1	46.8	110.47	# ca,c3,hc
   2	49.0	108.58	# ca,oh,ho
   3	69.52	119.9	# ca,ca,oh
   4	66.62	120.02	# ca,ca,ca
   5	39.4	107.58	# hc,c3,hc
   6	48.18	119.88	# ca,ca,ha
   7	63.53	120.77	# c3,ca,ca
   8	63.5	119.89	# ca,oh,ca

Dihedral Coeffs

   1	1	3.625	2	180	# X,ca,ca,X
   2	1	0.9	2	180	# X,ca,oh,X
   3	1	0.0	2	0	# X,c3,ca,X

Improper Coeffs

   1	1.1	-1	2	# ca,X,X,ha
   2	1.1	-1	2	# ca,ca,ca,c3

Atoms

   1	1	1	-0.211274	17.737	2.98249	14.0265
   2	1	2	0.221306	16.8334	2.39449	12.9561
   3	1	2	-0.631195	15.5021	2.10469	13.285
   4	1	3	0.289556	15.1383	2.34719	14.2783
   5	1	2	0.263167	14.6523	1.47579	12.3595
   6	1	2	-0.339066	15.1378	1.19449	11.0768
   7	1	3	0.163087	14.4805	0.715686	10.357
   8	1	2	0.033139	16.4599	1.50319	10.7147
   9	1	1	-0.070169	16.955	1.16769	9.3135
  10	1	2	-0.051663	17.3129	2.10099	11.6632
  11	1	4	-0.031436	18.6061	2.38978	11.3275
  12	1	5	0.081364	17.1281	2.08229	8.7336
  13	1	5	-0.00525	16.2316	0.553886	8.7633
  14	1	5	-0.006128	17.8967	0.605286	9.3458
  15	1	5	0.002513	17.2506	3.00409	15.0094
  16	1	5	0.147318	18.0298	4.00709	13.7752
  17	1	5	0.144731	18.654	2.38979	14.1232
  18	1	1	-0.211274	14.6095	-0.806814	14.5536
  19	1	2	0.221306	13.475	0.139586	14.911
  20	1	2	-0.631195	13.0211	0.152186	16.2365
  21	1	3	0.289556	13.5128	-0.472214	16.9741
  22	1	2	0.263167	11.9528	0.974386	16.6276
  23	1	2	-0.339066	11.3111	1.75599	15.6624
  24	1	3	0.163087	10.4732	2.37769	15.9613
  25	1	2	0.033139	11.7657	1.77939	14.3338
  26	1	1	-0.070169	11.0826	2.69459	13.331
  27	1	2	-0.051663	12.8798	1.00199	13.9615
  28	1	4	-0.031436	13.3661	1.10679	12.6773
  29	1	5	0.081364	11.7517	3.50249	13.027
  30	1	5	-0.00525	10.1848	3.15309	13.7587
  31	1	5	-0.006128	10.7896	2.14769	12.427
  32	1	5	0.002513	14.6349	-1.67771	15.2201
  33	1	5	0.147318	15.5776	-0.299214	14.6259
  34	1	5	0.144731	14.5029	-1.18241	13.5289
  35	1	1	-0.211274	11.1024	-1.18931	19.6922
  36	1	2	0.221306	12.2645	-0.225714	19.8496
  37	1	2	-0.631195	13.2117	-0.458414	20.8596
  38	1	3	0.289556	13.0966	-1.30851	21.5236
  39	1	2	0.263167	14.3058	0.399886	21.0226
  40	1	2	-0.339066	14.4292	1.51619	20.1826
  41	1	3	0.163087	15.2503	2.21049	20.3246
  42	1	2	0.033139	13.4934	1.76949	19.172
  43	1	1	-0.070169	13.6526	3.03229	18.3395
  44	1	2	-0.051663	12.4177	0.874786	18.9824
  45	1	4	-0.031436	11.5417	1.04629	17.9361
  46	1	5	0.081364	14.4119	3.70519	18.7564
  47	1	5	-0.00525	12.7091	3.58909	18.3128
  48	1	5	-0.006128	13.9508	2.79799	17.311
  49	1	5	0.002513	11.065	-1.92461	20.5056
  50	1	5	0.147318	11.1817	-1.73471	18.7447
  51	1	5	0.144731	10.1474	-0.648614	19.687
  52	1	1	-0.211274	16.9369	-1.14491	20.0116
  53	1	2	0.221306	17.3829	0.0285861	20.8676
  54	1	2	-0.631195	18.6285	0.614186	20.6056
  55	1	3	0.289556	19.2662	0.206786	19.8276
  56	1	2	0.263167	19.0436	1.75399	21.3076
  57	1	2	-0.339066	18.2193	2.28309	22.3076
  58	1	3	0.163087	18.5393	3.17449	22.8386
  59	1	2	0.033139	16.9638	1.71839	22.5826
  60	1	1	-0.070169	16.0439	2.40079	23.5856
  61	1	2	-0.051663	16.5375	0.591886	21.8486
  62	1	4	-0.031436	15.2486	0.135486	21.9856
  63	1	5	0.081364	15.5788	1.67069	24.2596
  64	1	5	-0.00525	15.2441	2.94229	23.0656
  65	1	5	-0.006128	16.5853	3.12579	24.2066
  66	1	5	0.002513	17.7819	-1.63861	19.5172
  67	1	5	0.147318	16.2415	-0.804814	19.2351
  68	1	5	0.144731	16.4216	-1.89941	20.6176
  69	1	1	-0.211274	18.2184	3.35149	18.879
  70	1	2	0.221306	19.7013	3.09519	18.6507
  71	1	2	-0.631195	20.1864	3.33969	17.3589
  72	1	3	0.289556	19.4967	3.64459	16.579
  73	1	2	0.263167	21.553	3.23559	17.0671
  74	1	2	-0.339066	22.436	2.85529	18.0822
  75	1	3	0.163087	23.4972	2.78909	17.862
  76	1	2	0.033139	21.9737	2.57829	19.3797
  77	1	1	-0.070169	22.9827	2.19989	20.4586
  78	1	2	-0.051663	20.5964	2.68119	19.6721
  79	1	4	-0.031436	20.1871	2.42739	20.9656
  80	1	5	0.081364	22.7563	1.21439	20.8826
  81	1	5	-0.00525	22.9738	2.93139	21.2756
  82	1	5	-0.006128	24.0065	2.16289	20.0646
  83	1	5	0.002513	17.7998	4.03389	18.1284
  84	1	5	0.147318	18.0418	3.80669	19.8586
  85	1	5	0.144731	17.6527	2.41459	18.8281
  86	1	1	-0.211274	21.3072	6.31909	16.6169
  87	1	2	0.221306	21.0352	5.69739	15.2561
  88	1	2	-0.631195	20.3753	6.48849	14.3052
  89	1	3	0.289556	20.0609	7.49419	14.5634
  90	1	2	0.263167	20.1435	6.01959	13.0089
  91	1	2	-0.339066	20.5772	4.72749	12.6699
  92	1	3	0.163087	20.4257	4.35559	11.6616
  93	1	2	0.033139	21.2136	3.90379	13.6109
  94	1	1	-0.070169	21.6523	2.50469	13.1968
  95	1	2	-0.051663	21.432	4.38019	14.92
  96	1	4	-0.031436	22.0563	3.55489	15.8296
  97	1	5	0.081364	22.7384	2.38959	13.3
  98	1	5	-0.00525	21.3976	2.28999	12.1516
  99	1	5	-0.006128	21.1679	1.73999	13.8172
 100	1	5	0.002513	21.4135	7.40909	16.5483
 101	1	5	0.147318	22.2312	5.93029	17.0597
 102	1	5	0.144731	20.4855	6.10379	17.3088
 103	1	1	-0.211274	17.111	5.62479	11.0344
 104	1	2	0.221306	18.3528	5.90779	10.2088
 105	1	2	-0.631195	18.3713	5.50769	8.8663
 106	1	3	0.289556	17.5081	5.00629	8.4414
 107	1	2	0.263167	19.4959	5.75749	8.0628
 108	1	2	-0.339066	20.5925	6.43179	8.6096
 109	1	3	0.163087	21.4538	6.63569	7.9816
 110	1	2	0.033139	20.5993	6.83439	9.9539
 111	1	1	-0.070169	21.8214	7.55379	10.5144
 112	1	2	-0.051663	19.4783	6.55319	10.7621
 113	1	4	-0.031436	19.5164	6.84149	12.1031
 114	1	5	0.081364	22.3055	6.95799	11.2979
 115	1	5	-0.00525	21.542	8.52119	10.9504
 116	1	5	-0.006128	22.5722	7.74849	9.7378
 117	1	5	0.002513	17.3659	5.25299	12.031
 118	1	5	0.147318	16.473	4.87269	10.559
 119	1	5	0.144731	16.5183	6.53759	11.1575
 120	1	1	-0.211274	19.7281	2.48929	7.1087
 121	1	2	0.221306	18.6513	3.17119	6.283
 122	1	2	-0.631195	17.6679	2.38639	5.6643
 123	1	3	0.289556	17.6881	1.30679	5.7681
 124	1	2	0.263167	16.6346	2.98149	4.9309
 125	1	2	-0.339066	16.5949	4.38099	4.8173
 126	1	3	0.163087	15.7876	4.85519	4.269
 127	1	2	0.033139	17.5816	5.18429	5.4091
 128	1	1	-0.070169	17.5077	6.69959	5.2652
 129	1	2	-0.051663	18.6134	4.57439	6.148
 130	1	4	-0.031436	19.5653	5.35489	6.7529
 131	1	5	0.081364	17.3728	7.17959	6.243
 132	1	5	-0.00525	16.6712	7.00799	4.6258
 133	1	5	-0.006128	18.4281	7.09689	4.8184
 134	1	5	0.002513	19.6091	1.39879	7.1243
 135	1	5	0.147318	19.6987	2.84269	8.1473
 136	1	5	0.144731	20.7205	2.71429	6.7031
 137	1	1	-0.211274	14.3803	3.22169	1.9915
 138	1	2	0.221306	13.6922	3.14469	3.3413
 139	1	2	-0.631195	12.4251	3.72759	3.4942
 140	1	3	0.289556	11.9596	4.24599	2.6639
 141	1	2	0.263167	11.7863	3.71999	4.7393
 142	1	2	-0.339066	12.3879	3.04259	5.8109
 143	1	3	0.163087	11.8903	3.00799	6.7737
 144	1	2	0.033139	13.6645	2.48369	5.6896
 145	1	1	-0.070169	14.3107	1.87259	6.9236
 146	1	2	-0.051663	14.3391	2.57069	4.4559
 147	1	4	-0.031436	15.6567	2.19479	4.3743
 148	1	5	0.081364	15.0117	2.58289	7.3776
 149	1	5	-0.00525	14.8606	0.956886	6.6754
 150	1	5	-0.006128	13.5635	1.61109	7.6833
 151	1	5	0.002513	13.733	3.66119	1.2224
 152	1	5	0.147318	14.6652	2.21859	1.6554
 153	1	5	0.144731	15.2902	3.82859	2.0564
 154	1	1	-0.211274	8.48631	3.43509	6.5288
 155	1	2	0.221306	9.43631	4.51569	7.0116
 156	1	2	-0.631195	9.38261	4.91349	8.3536
 157	1	3	0.289556	8.64781	4.47539	9.0198
 158	1	2	0.263167	10.3087	5.82869	8.8643
 159	1	2	-0.339066	11.247	6.41249	8.0048
 160	1	3	0.163087	11.9649	7.12109	8.4055
 161	1	2	0.033139	11.3198	6.03149	6.6554
 162	1	1	-0.070169	12.4297	6.62349	5.7932
 163	1	2	-0.051663	10.4299	5.04629	6.1646
 164	1	4	-0.031436	10.6464	4.46199	4.937
 165	1	5	0.081364	12.6934	7.63559	6.1227
 166	1	5	-0.00525	12.1353	6.69199	4.7385
 167	1	5	-0.006128	13.3368	6.00829	5.851
 168	1	5	0.002513	9.03101	2.52299	6.2535
 169	1	5	0.147318	7.92761	3.77789	5.6508
 170	1	5	0.144731	7.75869	3.16549	7.3004
 171	1	1	-0.211274	12.3945	3.87999	9.8385
 172	1	2	0.221306	12.478	5.00709	10.8582
 173	1	2	-0.631195	13.5673	4.98219	11.7435
 174	1	3	0.289556	14.302	4.18469	11.6732
 175	1	2	0.263167	13.6953	5.92569	12.767
 176	1	2	-0.339066	12.7275	6.93409	12.8809
 177	1	3	0.163087	12.8153	7.67139	13.6739
 178	1	2	0.033139	11.6184	6.97469	12.0213
 179	1	1	-0.070169	10.5565	8.04579	12.2404
 180	1	2	-0.051663	11.4855	6.01479	10.9947
 181	1	4	-0.031436	10.3464	6.06029	10.2133
 182	1	5	0.081364	10.4758	8.70279	11.3656
 183	1	5	-0.00525	10.7874	8.67629	13.1086
 184	1	5	-0.006128	9.57191	7.59529	12.4183
 185	1	5	0.002513	13.0529	3.04209	10.0939
 186	1	5	0.147318	12.6886	4.23419	8.8435
 187	1	5	0.144731	11.3774	3.47759	9.7707
 188	1	1	-0.211274	12.6239	4.86149	15.5058
 189	1	2	0.221306	13.6963	5.86369	15.8748
 190	1	2	-0.631195	13.6897	6.36589	17.1791
 191	1	3	0.289556	12.9203	6.02799	17.8638
 192	1	2	0.263167	14.6383	7.30729	17.5973
 193	1	2	-0.339066	15.633	7.70609	16.696
 194	1	3	0.163087	16.378	8.42619	17.0183
 195	1	2	0.033139	15.68	7.18949	15.3888
 196	1	1	-0.070169	16.7971	7.62309	14.4501
 197	1	2	-0.051663	14.6907	6.28089	14.9612
 198	1	4	-0.031436	14.7269	5.80229	13.6682
 199	1	5	0.081364	16.3884	8.10469	13.5535
 200	1	5	-0.00525	17.3896	6.75699	14.1303
 201	1	5	-0.006128	17.4818	8.33419	14.9295
 202	1	5	0.002513	12.0377	4.53799	16.3726
 203	1	5	0.147318	13.0864	3.97449	15.0634
 204	1	5	0.144731	11.9162	5.28439	14.7873
 205	1	1	-0.211274	15.9952	6.31579	20.8656
 206	1	2	0.221306	14.5061	6.60659	20.9176
 207	1	2	-0.631195	13.7588	6.09429	21.9866
 208	1	3	0.289556	14.2503	5.52929	22.7706
 209	1	2	0.263167	12.3743	6.28849	22.0456
 210	1	2	-0.339066	11.7441	7.03119	21.0376
 211	1	3	0.163087	10.6702	7.18269	21.0766
 212	1	2	0.033139	12.4781	7.58919	19.9776
 213	1	1	-0.070169	11.7205	8.39469	18.9257
 214	1	2	-0.051663	13.8711	7.35499	19.9056
 215	1	4	-0.031436	14.6265	7.84389	18.8632
 216	1	5	0.081364	12.3862	8.98189	18.2823
 217	1	5	-0.00525	11.0238	9.09819	19.3975
 218	1	5	-0.006128	11.1318	7.73149	18.2793
 219	1	5	0.002513	16.3177	5.65919	21.6836
 220	1	5	0.147318	16.5699	7.24669	20.9316
 221	1	5	0.144731	16.253	5.82359	19.9206
 222	1	1	-0.211274	12.2404	3.02289	22.2076
 223	1	2	0.221306	10.8382	3.57429	22.3316
 224	1	2	-0.631195	9.76681	2.75539	21.9556
 225	1	3	0.289556	9.95731	1.76259	21.5596
 226	1	2	0.263167	8.45011	3.21399	22.0756
 227	1	2	-0.339066	8.21081	4.48429	22.6136
 228	1	3	0.163087	7.18666	4.82719	22.7226
 229	1	2	0.033139	9.27311	5.32849	22.9786
 230	1	1	-0.070169	8.96821	6.71499	23.5336
 231	1	2	-0.051663	10.5988	4.88219	22.8026
 232	1	4	-0.031436	11.6531	5.72249	23.0656
 233	1	5	0.081364	9.67551	6.99169	24.3246
 234	1	5	-0.00525	7.96167	6.75859	23.9676
 235	1	5	-0.006128	9.02411	7.47759	22.7476
 236	1	5	0.002513	12.2339	1.93409	22.0926
 237	1	5	0.147318	12.8277	3.25109	23.1016
 238	1	5	0.144731	12.7462	3.46079	21.3406
 239	1	1	-0.211274	8.40561	3.75859	19.1094
 240	1	2	0.221306	7.80116	2.36629	19.2127
 241	1	2	-0.631195	7.66398	1.65209	18.0153
 242	1	3	0.289556	8.01596	2.09919	17.0914
 243	1	2	0.263167	7.06151	0.386286	17.9894
 244	1	2	-0.339066	6.62718	-0.179814	19.1915
 245	1	3	0.163087	6.15941	-1.15951	19.1723
 246	1	2	0.033139	6.76686	0.505886	20.4106
 247	1	1	-0.070169	6.26173	-0.148314	21.6926
 248	1	2	-0.051663	7.35305	1.79049	20.4296
 249	1	4	-0.031436	7.39459	2.46579	21.6306
 250	1	5	0.081364	5.90265	-1.16821	21.5116
 251	1	5	-0.00525	5.43037	0.421886	22.1256
 252	1	5	-0.006128	7.05803	-0.211714	22.4446
 253	1	5	0.002513	8.39831	4.13679	18.0793
 254	1	5	0.147318	9.44751	3.74939	19.4491
 255	1	5	0.144731	7.85198	4.47729	19.723
 256	1	1	-0.211274	4.95718	1.57519	15.6566
 257	1	2	0.221306	6.25023	1.15359	14.979
 258	1	2	-0.631195	6.57197	1.71929	13.7377
 259	1	3	0.289556	5.88886	2.42679	13.2823
 260	1	2	0.263167	7.76539	1.37819	13.0814
 261	1	2	-0.339066	8.62641	0.448286	13.6799
 262	1	3	0.163087	9.54941	0.180186	13.1755
 263	1	2	0.033139	8.32461	-0.131014	14.9233
 264	1	1	-0.070169	9.29331	-1.12811	15.5507
 265	1	2	-0.051663	7.13136	0.228886	15.5793
 266	1	4	-0.031436	6.85586	-0.298914	16.8176
 267	1	5	0.081364	10.2873	-1.06911	15.0911
 268	1	5	-0.00525	8.92731	-2.15521	15.4282
 269	1	5	-0.006128	9.42311	-0.942114	16.6244
 270	1	5	0.002513	4.30155	2.13649	14.9794
 271	1	5	0.147318	5.16851	2.21119	16.5248
 272	1	5	0.144731	4.40033	0.699186	16.0081
 273	1	1	-0.211274	8.07214	4.76959	12.5716
 274	1	2	0.221306	7.27529	4.16279	11.4327
 275	1	2	-0.631195	6.48053	5.01179	10.6495
 276	1	3	0.289556	6.44681	6.07499	10.8669
 277	1	2	0.263167	5.73162	4.51029	9.5788
 278	1	2	-0.339066	5.79753	3.13979	9.2874
 279	1	3	0.163087	5.22748	2.74449	8.452
 280	1	2	0.033139	6.59256	2.27039	10.0515
 281	1	1	-0.070169	6.6421	0.792186	9.6828
 282	1	2	-0.051663	7.333	2.78279	11.1373
 283	1	4	-0.031436	8.12511	1.93659	11.8766
 284	1	5	0.081364	6.56264	0.153386	10.5713
 285	1	5	-0.00525	7.58179	0.547786	9.1715
 286	1	5	-0.006128	5.81773	0.517086	9.0133
 287	1	5	0.002513	7.81474	5.82239	12.7401
 288	1	5	0.147318	9.14351	4.72089	12.3527
 289	1	5	0.144731	7.89022	4.23289	13.5093
 290	1	1	-0.211274	2.7436	4.46149	10.558
 291	1	2	0.221306	2.6889	4.50879	9.0418
 292	1	2	-0.631195	1.51604	4.06249	8.4227
 293	1	3	0.289556	0.693864	3.69149	9.0259
 294	1	2	0.263167	1.37395	4.10089	7.0325
 295	1	2	-0.339066	2.42789	4.60159	6.2522
 296	1	3	0.163087	2.31942	4.64679	5.1724
 297	1	2	0.033139	3.62124	5.04799	6.852
 298	1	1	-0.070169	4.74303	5.58529	5.9724
 299	1	2	-0.051663	3.76419	4.97969	8.2552
 300	1	4	-0.031436	4.94892	5.36579	8.8431
 301	1	5	0.081364	5.14349	6.52609	6.3694
 302	1	5	-0.00525	4.39422	5.78779	4.9518
 303	1	5	-0.006128	5.57011	4.86849	5.9055
 304	1	5	0.002513	1.74121	4.53479	10.9988
 305	1	5	0.147318	3.33722	5.28839	10.9618
 306	1	5	0.144731	3.19426	3.52019	10.8903
 307	1	1	-0.211274	0.821014	1.38359	4.7745
 308	1	2	0.221306	0.0511443	2.60639	4.3113
 309	1	2	-0.631195	-0.486746	2.62299	3.0141
 310	1	3	0.289556	-0.343156	1.77339	2.3548
 311	1	2	0.263167	-1.27187	3.70119	2.5883
 312	1	2	-0.339066	-1.44014	4.80399	3.4281
 313	1	3	0.163087	-2.02375	5.64829	3.0762
 314	1	2	0.033139	-0.91541	4.80759	4.7288
 315	1	1	-0.070169	-1.20056	5.99249	5.6379
 316	1	2	-0.051663	-0.179796	3.69369	5.1806
 317	1	4	-0.031436	0.204394	3.62029	6.4977
 318	1	5	0.081364	-1.87585	6.71449	5.1629
 319	1	5	-0.00525	-0.272406	6.51989	5.8858
 320	1	5	-0.006128	-1.67225	5.66579	6.573
 321	1	5	0.002513	0.991514	0.668186	3.9611
 322	1	5	0.147318	0.266014	0.865186	5.5645
 323	1	5	0.144731	1.8002	1.67089	5.1779
 324	1	1	-0.211274	-1.65973	3.94369	-1.4838
 325	1	2	0.221306	-2.43989	2.85379	-0.761597
 326	1	2	-0.631195	-3.13798	1.95019	-1.5625
 327	1	3	0.289556	-3.10548	2.07679	-2.6329
 328	1	2	0.263167	-3.87776	0.902486	-1.0096
 329	1	2	-0.339066	-3.92903	0.780586	0.385703
 330	1	3	0.163087	-4.51145	-0.0212139	0.831803
 331	1	2	0.033139	-3.26607	1.69949	1.2229
 332	1	1	-0.070169	-3.49048	1.54999	2.7232
 333	1	2	-0.051663	-2.48921	2.74139	0.643703
 334	1	4	-0.031436	-1.87566	3.74409	1.362
 335	1	5	0.081364	-3.66376	2.51929	3.2051
 336	1	5	-0.00525	-2.63803	1.06169	3.209
 337	1	5	-0.006128	-4.371	0.929586	2.9311
 338	1	5	0.002513	-2.29401	4.45489	-2.2175
 339	1	5	0.147318	-0.814826	3.50169	-2.0218
 340	1	5	0.144731	-1.25601	4.71119	-0.814697
 341	1	1	-0.211274	-7.24829	0.806386	-1.1263
 342	1	2	0.221306	-6.75254	-0.629514	-1.1682
 343	1	2	-0.631195	-7.65869	-1.66391	-0.893697
 344	1	3	0.289556	-8.69147	-1.43451	-0.648797
 345	1	2	0.263167	-7.25518	-3.00251	-0.961397
 346	1	2	-0.339066	-5.93499	-3.30601	-1.3018
 347	1	3	0.163087	-5.62844	-4.34701	-1.3643
 348	1	2	0.033139	-5.01369	-2.28961	-1.5877
 349	1	1	-0.070169	-3.60641	-2.71031	-1.9805
 350	1	2	-0.051663	-5.41719	-0.938114	-1.5112
 351	1	4	-0.031436	-4.54421	0.0609861	-1.8656
 352	1	5	0.081364	-2.9635	-1.86931	-2.2636
 353	1	5	-0.00525	-3.63303	-3.40931	-2.8248
 354	1	5	-0.006128	-3.12917	-3.22561	-1.1438
 355	1	5	0.002513	-8.30394	0.875586	-0.831197
 356	1	5	0.147318	-7.1436	1.26929	-2.1096
 357	1	5	0.144731	-6.66322	1.39749	-0.415397
 358	1	1	-0.211274	-6.83474	-3.70061	1.958
 359	1	2	0.221306	-7.42641	-4.98591	1.4019
 360	1	2	-0.631195	-7.46169	-6.09071	2.2628
 361	1	3	0.289556	-7.08932	-6.00291	3.2758
 362	1	2	0.263167	-8.05789	-7.28841	1.8675
 363	1	2	-0.339066	-8.49438	-7.42961	0.543003
 364	1	3	0.163087	-8.92325	-8.37161	0.215803
 365	1	2	0.033139	-8.43629	-6.35211	-0.357697
 366	1	1	-0.070169	-8.91265	-6.59031	-1.7909
 367	1	2	-0.051663	-7.96257	-5.09751	0.0928026
 368	1	4	-0.031436	-8.16114	-3.99341	-0.708797
 369	1	5	0.081364	-8.72142	-5.74171	-2.4566
 370	1	5	-0.00525	-9.98797	-6.80551	-1.8256
 371	1	5	-0.006128	-8.39068	-7.45231	-2.2279
 372	1	5	0.002513	-6.658	-3.75751	3.0388
 373	1	5	0.147318	-7.49783	-2.84831	1.7803
 374	1	5	0.144731	-5.87233	-3.48951	1.4805
 375	1	1	-0.211274	-8.04327	-11.1406	2.5756
 376	1	2	0.221306	-9.35989	-10.4018	2.7161
 377	1	2	-0.631195	-10.5406	-11.1562	2.7089
 378	1	3	0.289556	-10.4957	-12.2309	2.5669
 379	1	2	0.263167	-11.7852	-10.5351	2.8487
 380	1	2	-0.339066	-11.837	-9.14941	3.0568
 381	1	3	0.163087	-12.7952	-8.65561	3.1905
 382	1	2	0.033139	-10.6646	-8.37961	3.0893
 383	1	1	-0.070169	-10.8029	-6.89021	3.3624
 384	1	2	-0.051663	-9.41375	-9.00321	2.8751
 385	1	4	-0.031436	-8.24957	-8.27141	2.8038
 386	1	5	0.081364	-10.7709	-6.31971	2.4287
 387	1	5	-0.00525	-10.0042	-6.52551	4.0171
 388	1	5	-0.006128	-11.7545	-6.66531	3.8605
 389	1	5	0.002513	-8.14607	-12.0146	1.9229
 390	1	5	0.147318	-7.71084	-11.4876	3.5593
 391	1	5	0.144731	-7.25192	-10.5022	2.1649
 392	1	1	-0.211274	-14.6457	-10.8339	5.0533
 393	1	2	0.221306	-15.0325	-10.5003	3.6218
 394	1	2	-0.631195	-16.2667	-9.88951	3.381
 395	1	3	0.289556	-16.9336	-9.68731	4.2108
 396	1	2	0.263167	-16.6613	-9.54421	2.0842
 397	1	2	-0.339066	-15.7878	-9.80461	1.0137
 398	1	3	0.163087	-16.0815	-9.54101	0.00270263
 399	1	2	0.033139	-14.538	-10.4111	1.2331
 400	1	1	-0.070169	-13.6041	-10.6539	0.0511026
 401	1	2	-0.051663	-14.1609	-10.762	2.5474
 402	1	4	-0.031436	-12.9235	-11.2997	2.793
 403	1	5	0.081364	-12.8476	-9.86181	-0.00489737
 404	1	5	-0.00525	-14.1437	-10.6619	-0.903897
 405	1	5	-0.006128	-13.08	-11.6163	0.135903
 406	1	5	0.002513	-15.4442	-10.582	5.7617
 407	1	5	0.147318	-13.7463	-10.2805	5.3512
 408	1	5	0.144731	-14.4354	-11.9047	5.1526
 409	1	1	-0.211274	-16.777	-6.48151	0.806103
 410	1	2	0.221306	-17.9385	-7.25151	0.196003
 411	1	2	-0.631195	-18.5241	-6.75581	-0.979597
 412	1	3	0.289556	-18.1428	-5.84431	-1.431
 413	1	2	0.263167	-19.5634	-7.45401	-1.6139
 414	1	2	-0.339066	-20.0472	-8.63181	-1.037
 415	1	3	0.163087	-20.8685	-9.15331	-1.5164
 416	1	2	0.033139	-19.4761	-9.14941	0.136203
 417	1	1	-0.070169	-19.9981	-10.4688	0.697403
 418	1	2	-0.051663	-18.4092	-8.46261	0.752003
 419	1	4	-0.031436	-17.8905	-8.95601	1.9254
 420	1	5	0.081364	-19.2817	-11.28	0.514203
 421	1	5	-0.00525	-20.9511	-10.7601	0.239803
 422	1	5	-0.006128	-20.1628	-10.4043	1.7792
 423	1	5	0.002513	-16.837	-5.40641	0.592503
 424	1	5	0.147318	-15.8267	-6.85631	0.407303
 425	1	5	0.144731	-16.742	-6.59151	1.8939
 426	1	1	-0.211274	-21.5762	-4.90891	-4.0264
 427	1	2	0.221306	-20.1552	-5.27201	-4.4298
 428	1	2	-0.631195	-19.542	-4.56581	-5.4812
 429	1	3	0.289556	-20.0678	-3.76241	-5.9827
 430	1	2	0.263167	-18.2503	-4.90481	-5.9108
 431	1	2	-0.339066	-17.5945	-5.97521	-5.2938
 432	1	3	0.163087	-16.6084	-6.26711	-5.6386
 433	1	2	0.033139	-18.1928	-6.71591	-4.2675
 434	1	1	-0.070169	-17.4449	-7.95631	-3.7903
 435	1	2	-0.051663	-19.4743	-6.33801	-3.797
 436	1	4	-0.031436	-20.12	-7.03361	-2.7976
 437	1	5	0.081364	-18.115	-8.82241	-3.7233
 438	1	5	-0.00525	-16.9685	-7.79961	-2.8182
 439	1	5	-0.006128	-16.6453	-8.22791	-4.4894
 440	1	5	0.002513	-21.6953	-4.90041	-2.9368
 441	1	5	0.147318	-22.2853	-5.63771	-4.4359
 442	1	5	0.144731	-21.8638	-3.91801	-4.3881
 443	1	1	-0.211274	-16.7941	-1.96101	-5.3171
 444	1	2	0.221306	-15.8472	-2.85201	-6.109
 445	1	2	-0.631195	-14.4737	-2.59731	-6.0094
 446	1	3	0.289556	-14.1257	-1.80311	-5.3623
 447	1	2	0.263167	-13.5312	-3.39131	-6.678
 448	1	2	-0.339066	-13.9933	-4.43621	-7.4938
 449	1	3	0.163087	-13.2735	-5.05361	-8.0209
 450	1	2	0.033139	-15.3683	-4.71701	-7.609
 451	1	1	-0.070169	-15.8117	-5.90441	-8.4573
 452	1	2	-0.051663	-16.3059	-3.92301	-6.9058
 453	1	4	-0.031436	-17.6499	-4.22301	-6.9411
 454	1	5	0.081364	-16.395	-5.57871	-9.324
 455	1	5	-0.00525	-16.4377	-6.59431	-7.8818
 456	1	5	-0.006128	-14.9526	-6.47831	-8.8338
 457	1	5	0.002513	-16.7563	-2.20901	-4.2495
 458	1	5	0.147318	-17.8356	-2.04871	-5.6455
 459	1	5	0.144731	-16.5167	-0.908914	-5.4298
 460	1	1	-0.211274	-10.4431	-2.82021	-8.8285
 461	1	2	0.221306	-10.2754	-3.90091	-7.7757
 462	1	2	-0.631195	-9.20732	-4.80341	-7.9162
 463	1	3	0.289556	-8.52595	-4.68971	-8.7495
 464	1	2	0.263167	-8.96604	-5.79721	-6.9567
 465	1	2	-0.339066	-9.81875	-5.86921	-5.8458
 466	1	3	0.163087	-9.62126	-6.60431	-5.0698
 467	1	2	0.033139	-10.9065	-4.98461	-5.6944
 468	1	1	-0.070169	-11.759	-5.06451	-4.4367
 469	1	2	-0.051663	-11.1575	-4.00631	-6.6811
 470	1	4	-0.031436	-12.1925	-3.10211	-6.5338
 471	1	5	0.081364	-11.4186	-5.86771	-3.769
 472	1	5	-0.00525	-12.8084	-5.26801	-4.6806
 473	1	5	-0.006128	-11.719	-4.12131	-3.8778
 474	1	5	0.002513	-9.49518	-2.60941	-9.3407
 475	1	5	0.147318	-10.7874	-1.88341	-8.3735
 476	1	5	0.144731	-11.1783	-3.12031	-9.5812
 477	1	1	-0.211274	-9.29357	-9.09121	-7.8512
 478	1	2	0.221306	-8.3061	-8.99591	-6.7018
 479	1	2	-0.631195	-8.02245	-10.1641	-5.968
 480	1	3	0.289556	-8.53494	-11.0913	-6.2039
 481	1	2	0.263167	-7.09015	-10.1535	-4.9243
 482	1	2	-0.339066	-6.45108	-8.94541	-4.6149
 483	1	3	0.163087	-5.74181	-8.89661	-3.799
 484	1	2	0.033139	-6.69072	-7.77591	-5.3517
 485	1	1	-0.070169	-5.88084	-6.54501	-5.0004
 486	1	2	-0.051663	-7.64699	-7.78501	-6.3882
 487	1	4	-0.031436	-7.8841	-6.63771	-7.1195
 488	1	5	0.081364	-5.31308	-6.18041	-5.8673
 489	1	5	-0.00525	-5.16403	-6.74151	-4.1942
 490	1	5	-0.006128	-6.54194	-5.75541	-4.6481
 491	1	5	0.002513	-9.55293	-10.1325	-8.0805
 492	1	5	0.147318	-8.87126	-8.64931	-8.7595
 493	1	5	0.144731	-10.2172	-8.55761	-7.602
 494	1	1	-0.211274	-3.85087	-10.9539	-4.3273
 495	1	2	0.221306	-4.67051	-11.1875	-3.0699
 496	1	2	-0.631195	-4.00703	-11.0782	-1.8388
 497	1	3	0.289556	-2.94538	-10.8455	-1.8141
 498	1	2	0.263167	-4.70626	-11.2149	-0.635497
 499	1	2	-0.339066	-6.06555	-11.538	-0.672497
 500	1	3	0.163087	-6.59461	-11.6844	0.258803
 501	1	2	0.033139	-6.7705	-11.5851	-1.8865
 502	1	1	-0.070169	-8.28461	-11.781	-1.8495
 503	1	2	-0.051663	-6.07294	-11.3865	-3.0964
 504	1	4	-0.031436	-6.78149	-11.3284	-4.2759
 505	1	5	0.081364	-8.7033	-11.4411	-0.893197
 506	1	5	-0.00525	-8.55221	-12.8369	-1.9752
 507	1	5	-0.006128	-8.79129	-11.2088	-2.6358
 508	1	5	0.002513	-2.86986	-11.4439	-4.2681
 509	1	5	0.147318	-3.67606	-9.88061	-4.4583
 510	1	5	0.144731	-4.35351	-11.3303	-5.2248
 511	1	1	-0.211274	-4.76412	-8.22681	-0.680597
 512	1	2	0.221306	-3.72011	-8.52051	0.395703
 513	1	2	-0.631195	-2.99751	-7.40581	0.844903
 514	1	3	0.289556	-3.14735	-6.45391	0.351903
 515	1	2	0.263167	-2.09265	-7.49721	1.9101
 516	1	2	-0.339066	-1.86927	-8.74951	2.494
 517	1	3	0.163087	-1.17142	-8.82381	3.3225
 518	1	2	0.033139	-2.50625	-9.90651	2.0092
 519	1	1	-0.070169	-2.10571	-11.2456	2.6398
 520	1	2	-0.051663	-3.45778	-9.80581	0.958103
 521	1	4	-0.031436	-4.11415	-10.9633	0.573603
 522	1	5	0.081364	-2.54852	-12.1113	2.1319
 523	1	5	-0.00525	-2.3971	-11.2962	3.6946
 524	1	5	-0.006128	-1.01677	-11.3788	2.5963
 525	1	5	0.002513	-5.07346	-7.17421	-0.670797
 526	1	5	0.147318	-5.6801	-8.80951	-0.546697
 527	1	5	0.144731	-4.35679	-8.43111	-1.6764
 528	1	1	-0.211274	-2.62377	-3.82921	1.6521
 529	1	2	0.221306	-1.27613	-4.31591	1.145
 530	1	2	-0.631195	-0.556426	-3.51011	0.246503
 531	1	3	0.289556	-0.993688	-2.59431	-0.135597
 532	1	2	0.263167	0.714404	-3.90371	-0.200997
 533	1	2	-0.339066	1.29259	-5.06431	0.319403
 534	1	3	0.163087	2.29119	-5.34831	0.00720263
 535	1	2	0.033139	0.588094	-5.88391	1.2114
 536	1	1	-0.070169	1.27713	-7.12191	1.7629
 537	1	2	-0.051663	-0.726196	-5.53871	1.5883
 538	1	4	-0.031436	-1.44864	-6.38361	2.397
 539	1	5	0.081364	0.749094	-8.03271	1.4621
 540	1	5	-0.00525	1.3127	-7.08761	2.8595
 541	1	5	-0.006128	2.30656	-7.19691	1.3959
 542	1	5	0.002513	-2.91258	-2.87151	1.2002
 543	1	5	0.147318	-2.57694	-3.69141	2.7387
 544	1	5	0.144731	-3.41838	-4.54981	1.4375
 545	1	1	-0.211274	2.08224	-0.534414	-1.9414
 546	1	2	0.221306	1.13222	-1.41121	-2.7398
 547	1	2	-0.631195	0.545714	-0.892614	-3.9057
 548	1	3	0.289556	0.770564	0.114686	-4.2323
 549	1	2	0.263167	-0.348936	-1.65841	-4.6601
 550	1	2	-0.339066	-0.605206	-2.97931	-4.2698
 551	1	3	0.163087	-1.27574	-3.59581	-4.8568
 552	1	2	0.033139	0.00231429	-3.53361	-3.1327
 553	1	1	-0.070169	-0.211096	-5.01861	-2.874
 554	1	2	-0.051663	0.830074	-2.72331	-2.3212
 555	1	4	-0.031436	1.39987	-3.19871	-1.1593
 556	1	5	0.081364	0.726904	-5.49211	-2.5602
 557	1	5	-0.00525	-0.552086	-5.54271	-3.7749
 558	1	5	-0.006128	-0.954609	-5.18261	-2.0863
 559	1	5	0.002513	1.63934	-0.234514	-0.983697
 560	1	5	0.147318	2.33926	0.374386	-2.4928
 561	1	5	0.144731	3.02243	-1.06241	-1.7326
 562	1	1	-0.211274	-3.0335	0.597686	-4.8163
 563	1	2	0.221306	-3.27024	-0.601714	-5.7079
 564	1	2	-0.631195	-4.58553	-0.869814	-6.1137
 565	1	3	0.289556	-5.40219	-0.240614	-5.769
 566	1	2	0.263167	-4.86301	-1.92761	-6.993
 567	1	2	-0.339066	-3.78804	-2.68351	-7.4937
 568	1	3	0.163087	-3.99816	-3.47191	-8.2072
 569	1	2	0.033139	-2.45514	-2.41941	-7.1136
 570	1	1	-0.070169	-1.29706	-3.19861	-7.7454
 571	1	2	-0.051663	-2.19938	-1.38791	-6.1862
 572	1	4	-0.031436	-0.916609	-1.10861	-5.7834
 573	1	5	0.081364	-0.660116	-3.66321	-6.9895
 574	1	5	-0.00525	-0.649436	-2.53361	-8.327
 575	1	5	-0.006128	-1.64663	-3.99701	-8.4096
 576	1	5	0.002513	-2.29056	0.393186	-4.0342
 577	1	5	0.147318	-3.96592	0.891186	-4.3265
 578	1	5	0.144731	-2.68303	1.44539	-5.4184
 579	1	1	-0.211274	-7.17649	-3.14651	-4.8323
 580	1	2	0.221306	-7.79557	-2.02271	-5.6436
 581	1	2	-0.631195	-8.94002	-1.39071	-5.1322
 582	1	3	0.289556	-9.33669	-1.70601	-4.174
 583	1	2	0.263167	-9.59489	-0.384914	-5.856
 584	1	2	-0.339066	-9.12108	-0.0468139	-7.1261
 585	1	3	0.163087	-9.65199	0.705286	-7.7019
 586	1	2	0.033139	-7.98807	-0.680014	-7.6714
 587	1	1	-0.070169	-7.56288	-0.353814	-9.0952
 588	1	2	-0.051663	-7.28668	-1.63651	-6.9033
 589	1	4	-0.031436	-6.14264	-2.21221	-7.4162
 590	1	5	0.081364	-8.19008	0.430886	-9.5349
 591	1	5	-0.00525	-7.64901	-1.23891	-9.7404
 592	1	5	-0.006128	-6.52513	-0.00531386	-9.1247
 593	1	5	0.002513	-7.94792	-3.80291	-4.4084
 594	1	5	0.147318	-6.56828	-2.76321	-4.0058
 595	1	5	0.144731	-6.53285	-3.76861	-5.4608
 596	1	1	-0.211274	-8.5087	2.07199	-4.4605
 597	1	2	0.221306	-9.95654	2.46109	-4.6871
 598	1	2	-0.631195	-10.263	3.81369	-4.4851
 599	1	3	0.289556	-9.49578	4.49099	-4.1274
 600	1	2	0.263167	-11.5058	4.33929	-4.8581
 601	1	2	-0.339066	-12.4659	3.47689	-5.397
 602	1	3	0.163087	-13.4132	3.88679	-5.7288
 603	1	2	0.033139	-12.1904	2.10749	-5.5762
 604	1	1	-0.070169	-13.2413	1.23799	-6.2501
 605	1	2	-0.051663	-10.9309	1.58069	-5.2133
 606	1	4	-0.031436	-10.708	0.216986	-5.3286
 607	1	5	0.081364	-13.284	0.241286	-5.8068
 608	1	5	-0.00525	-13.0241	1.12199	-7.3218
 609	1	5	-0.006128	-14.2447	1.65669	-6.153
 610	1	5	0.002513	-8.39852	1.08259	-4.008
 611	1	5	0.147318	-8.00195	2.78659	-3.8029
 612	1	5	0.144731	-7.9869	2.07859	-5.4248
 613	1	1	-0.211274	-11.3273	8.02209	-3.0769
 614	1	2	0.221306	-10.3698	7.60539	-4.1652
 615	1	2	-0.631195	-9.14132	8.28159	-4.2444
 616	1	3	0.289556	-8.87821	9.04079	-3.5166
 617	1	2	0.263167	-8.21813	7.94659	-5.2366
 618	1	2	-0.339066	-8.59053	7.01259	-6.2202
 619	1	3	0.163087	-7.92057	6.76579	-7.0238
 620	1	2	0.033139	-9.82062	6.35869	-6.1929
 621	1	1	-0.070169	-10.1441	5.41859	-7.3515
 622	1	2	-0.051663	-10.6698	6.57159	-5.0891
 623	1	4	-0.031436	-11.7214	5.70569	-4.8546
 624	1	5	0.081364	-9.80741	5.84999	-8.3048
 625	1	5	-0.00525	-11.2229	5.23789	-7.468
 626	1	5	-0.006128	-9.63773	4.45379	-7.224
 627	1	5	0.002513	-12.3242	7.58859	-3.2287
 628	1	5	0.147318	-11.4547	9.11509	-3.079
 629	1	5	0.144731	-10.944	7.71909	-2.093
 630	1	1	-0.211274	-6.95333	9.32089	-8.0839
 631	1	2	0.221306	-5.99108	8.33339	-7.4439
 632	1	2	-0.631195	-5.11218	7.65029	-8.2774
 633	1	3	0.289556	-5.1403	7.86389	-9.3384
 634	1	2	0.263167	-4.15872	6.75229	-7.757
 635	1	2	-0.339066	-4.12361	6.53419	-6.3849
 636	1	3	0.163087	-3.37196	5.87099	-5.9766
 637	1	2	0.033139	-5.02503	7.17819	-5.5381
 638	1	1	-0.070169	-4.92337	6.91759	-4.0538
 639	1	2	-0.051663	-5.98121	8.07139	-6.0622
 640	1	4	-0.031436	-6.97897	8.55769	-5.2545
 641	1	5	0.081364	-5.90557	6.73789	-3.6138
 642	1	5	-0.00525	-4.46775	7.78189	-3.5587
 643	1	5	-0.006128	-4.29924	6.03529	-3.8476
 644	1	5	0.002513	-6.51323	9.78369	-8.9809
 645	1	5	0.147318	-7.22731	10.1323	-7.3994
 646	1	5	0.144731	-7.87252	8.81059	-8.392
 647	1	1	-0.211274	-2.27109	9.01679	-8.8047
 648	1	2	0.221306	-2.62733	8.08079	-9.9508
 649	1	2	-0.631195	-2.79593	8.64229	-11.2119
 650	1	3	0.289556	-2.71554	9.72059	-11.3342
 651	1	2	0.263167	-3.10259	7.85669	-12.3234
 652	1	2	-0.339066	-3.15307	6.45679	-12.1951
 653	1	3	0.163087	-3.33741	5.82759	-13.0628
 654	1	2	0.033139	-3.08278	5.87999	-10.9174
 655	1	1	-0.070169	-3.30958	4.38569	-10.7581
 656	1	2	-0.051663	-2.89828	6.70039	-9.786
 657	1	4	-0.031436	-3.18036	6.19029	-8.5485
 658	1	5	0.081364	-3.42531	3.89969	-11.7422
 659	1	5	-0.00525	-4.21799	4.19499	-10.1775
 660	1	5	-0.006128	-2.46651	3.92589	-10.234
 661	1	5	0.002513	-3.03983	9.78309	-8.6757
 662	1	5	0.147318	-1.32845	9.52149	-9.0104
 663	1	5	0.144731	-2.14977	8.49029	-7.8486
 664	1	1	-0.211274	-6.05073	7.21149	-13.3086
 665	1	2	0.221306	-5.29359	7.56239	-14.583
 666	1	2	-0.631195	-5.94909	7.31829	-15.8038
 667	1	3	0.289556	-6.91582	6.82159	-15.8054