pySIMM System Object

597 atoms
631 bonds
1085 angles
1398 dihedrals
140 impropers

6 atom types
6 bond types
8 angle types
3 dihedral types
2 improper types

-119.263671 119.263671 xlo xhi
-119.263671 119.263671 ylo yhi
-119.263671 119.263671 zlo zhi

Masses

   1	12.01	# c3
   2	12.01	# ca
   3	1.008	# ha
   4	16.0	# oh
   5	1.008	# hc
   6	1.008	# ho

Pair Coeffs

   1	0.1094	3.3996695084235347	# c3
   2	0.086	3.3996695084235347	# ca
   3	0.015	2.59964245953351	# ha
   4	0.2104	3.0664733878390478	# oh
   5	0.0157	2.649532787749369	# hc
   6	0.0047	0.5379246460131368	# ho

Bond Coeffs

   1	371.4	0.973	# ho,oh
   2	461.1	1.3984	# ca,ca
   3	384.0	1.3637	# ca,oh
   4	345.8	1.086	# ca,ha
   5	321.0	1.5156	# c3,ca
   6	330.6	1.0969	# c3,hc

Angle Coeffs

   1	46.8	110.47	# ca,c3,hc
   2	49.0	108.58	# ca,oh,ho
   3	69.52	119.9	# ca,ca,oh
   4	66.62	120.02	# ca,ca,ca
   5	39.4	107.58	# hc,c3,hc
   6	48.18	119.88	# ca,ca,ha
   7	63.53	120.77	# c3,ca,ca
   8	63.5	119.89	# ca,oh,ca

Dihedral Coeffs

   1	1	3.625	2	180	# X,ca,ca,X
   2	1	0.9	2	180	# X,ca,oh,X
   3	1	0.0	2	0	# X,c3,ca,X

Improper Coeffs

   1	1.1	-1	2	# ca,X,X,ha
   2	1.1	-1	2	# ca,ca,ca,c3

Atoms

   1	1	1	-0.211274	2.76009	13.639	3.92503
   2	1	2	0.221306	2.80432	12.1347	3.69093
   3	1	2	-0.631195	1.7141	11.3667	4.10696
   4	1	3	0.289556	0.883894	11.8578	4.5745
   5	1	2	0.263167	1.70098	9.98036	3.91629
   6	1	2	-0.339066	2.80328	9.35867	3.31812
   7	1	3	0.163087	2.78347	8.29183	3.18789
   8	1	2	0.033139	3.91589	10.0968	2.89102
   9	1	1	-0.070169	5.10056	9.36013	2.26112
  10	1	2	-0.051663	3.9012	11.5048	3.0707
  11	1	4	-0.031436	4.95357	12.2826	2.71097
  12	1	5	0.081364	5.07924	9.43572	1.16746
  13	1	5	-0.00525	5.08393	8.28303	2.50071
  14	1	5	-0.006128	6.05877	9.75434	2.61747
  15	1	5	0.002513	1.9173	13.9191	4.57394
  16	1	5	0.147318	2.65016	14.1952	2.98621
  17	1	5	0.144731	3.67152	14.0041	4.41173
  18	1	1	-0.211274	1.10542	9.63235	7.14079
  19	1	2	0.221306	-0.228622	9.87492	6.46051
  20	1	2	-0.631195	-1.29858	10.3574	7.22545
  21	1	3	0.289556	-1.15007	10.5588	8.28292
  22	1	2	0.263167	-2.54858	10.5923	6.64333
  23	1	2	-0.339066	-2.73334	10.3167	5.2877
  24	1	3	0.163087	-3.7025	10.4805	4.83058
  25	1	2	0.033139	-1.67459	9.84721	4.49573
  26	1	1	-0.070169	-1.91618	9.60813	3.01734
  27	1	2	-0.051663	-0.408776	9.6352	5.08206
  28	1	4	-0.031436	0.637579	9.20071	4.30819
  29	1	5	0.081364	-1.03126	9.86893	2.43377
  30	1	5	-0.00525	-2.73735	10.2342	2.649
  31	1	5	-0.006128	-2.16303	8.55708	2.81982
  32	1	5	0.002513	1.02468	9.69204	8.23297
  33	1	5	0.147318	1.84305	10.3736	6.81517
  34	1	5	0.144731	1.49216	8.63856	6.89124
  35	1	1	-0.211274	-4.28409	10.6998	10.1157
  36	1	2	0.221306	-3.59457	11.9649	9.63965
  37	1	2	-0.631195	-3.19504	12.927	10.5839
  38	1	3	0.289556	-3.38209	12.7596	11.6382
  39	1	2	0.263167	-2.54931	14.1023	10.1805
  40	1	2	-0.339066	-2.34756	14.3199	8.80663
  41	1	3	0.163087	-1.87844	15.233	8.46356
  42	1	2	0.033139	-2.73007	13.3731	7.84979
  43	1	1	-0.070169	-2.43891	13.6726	6.38739
  44	1	2	-0.051663	-3.32251	12.165	8.2713
  45	1	4	-0.031436	-3.57187	11.1599	7.36924
  46	1	5	0.081364	-2.36575	14.7496	6.20089
  47	1	5	-0.00525	-3.2209	13.2811	5.72528
  48	1	5	-0.006128	-1.48426	13.2177	6.10059
  49	1	5	0.002513	-4.40281	10.6775	11.2058
  50	1	5	0.147318	-3.71335	9.81253	9.81874
  51	1	5	0.144731	-5.28181	10.6229	9.66558
  52	1	1	-0.211274	0.716301	14.5812	10.5497
  53	1	2	0.221306	0.000277329	15.9051	10.3483
  54	1	2	-0.631195	0.663491	16.9255	9.6544
  55	1	3	0.289556	1.68056	16.7718	9.30657
  56	1	2	0.263167	0.00320214	18.123	9.3491
  57	1	2	-0.339066	-1.28828	18.3396	9.84265
  58	1	3	0.163087	-1.78131	19.2846	9.63705
  59	1	2	0.033139	-1.97115	17.3349	10.5472
  60	1	1	-0.070169	-3.3951	17.5934	11.0257
  61	1	2	-0.051663	-1.34294	16.0883	10.7463
  62	1	4	-0.031436	-2.09959	15.0033	11.1243
  63	1	5	0.081364	-3.41127	17.7546	12.1104
  64	1	5	-0.00525	-4.06156	16.7511	10.8049
  65	1	5	-0.006128	-3.82615	18.4843	10.5522
  66	1	5	0.002513	1.80377	14.6838	10.4457
  67	1	5	0.147318	0.374154	13.8424	9.81567
  68	1	5	0.144731	0.515834	14.1805	11.55
  69	1	1	-0.211274	-0.1035	16.8958	6.53173
  70	1	2	0.221306	1.12224	17.7957	6.482
  71	1	2	-0.631195	1.99627	17.6184	5.39489
  72	1	3	0.289556	1.79831	16.8359	4.66885
  73	1	2	0.263167	3.12332	18.4391	5.23853
  74	1	2	-0.339066	3.35519	19.4535	6.17129
  75	1	3	0.163087	4.21819	20.0992	6.04121
  76	1	2	0.033139	2.50173	19.6506	7.26674
  77	1	1	-0.070169	2.80263	20.7802	8.24563
  78	1	2	-0.051663	1.38535	18.8084	7.44405
  79	1	4	-0.031436	0.560788	19.0634	8.52239
  80	1	5	0.081364	2.9829	20.3874	9.25391
  81	1	5	-0.00525	1.96481	21.4868	8.30218
  82	1	5	-0.006128	3.69254	21.3501	7.94956
  83	1	5	0.002513	-0.381652	16.5322	5.53529
  84	1	5	0.147318	-0.974053	17.4239	6.93602
  85	1	5	0.144731	0.0910462	16.0209	7.16155
  86	1	1	-0.211274	2.20609	18.91	1.98323
  87	1	2	0.221306	3.14185	17.715	2.0249
  88	1	2	-0.631195	3.25094	16.9185	0.87868
  89	1	3	0.289556	2.6438	17.1458	0.00867717
  90	1	2	0.263167	4.17104	15.8674	0.804299
  91	1	2	-0.339066	4.96393	15.5823	1.92597
  92	1	3	0.163087	5.68902	14.7764	1.87805
  93	1	2	0.033139	4.86654	16.3637	3.09319
  94	1	1	-0.070169	5.77746	16.0651	4.27657
  95	1	2	-0.051663	3.95921	17.4432	3.1416
  96	1	4	-0.031436	4.01448	18.3187	4.20054
  97	1	5	0.081364	6.47472	16.8943	4.44853
  98	1	5	-0.00525	6.37025	15.156	4.11729
  99	1	5	-0.006128	5.19333	15.9221	5.19475
 100	1	5	0.002513	1.46721	18.8233	1.17783
 101	1	5	0.147318	2.77655	19.8294	1.81314
 102	1	5	0.144731	1.65537	19.0183	2.92238
 103	1	1	-0.211274	3.13431	12.5537	-0.0899632
 104	1	2	0.221306	4.5357	12.8049	-0.597515
 105	1	2	-0.631195	5.26832	11.7097	-1.07039
 106	1	3	0.289556	4.81965	10.7226	-1.04846
 107	1	2	0.263167	6.53872	11.8891	-1.6348
 108	1	2	-0.339066	7.08855	13.1769	-1.66513
 109	1	3	0.163087	8.07015	13.3181	-2.10621
 110	1	2	0.033139	6.37155	14.2895	-1.18759
 111	1	1	-0.070169	6.9895	15.6771	-1.29818
 112	1	2	-0.051663	5.07388	14.1051	-0.664291
 113	1	4	-0.031436	4.27055	15.1873	-0.385259
 114	1	5	0.081364	7.01879	16.1717	-0.319593
 115	1	5	-0.00525	6.41239	16.3115	-1.98206
 116	1	5	-0.006128	8.0194	15.6344	-1.67544
 117	1	5	0.002513	3.01857	11.5212	0.259297
 118	1	5	0.147318	2.40765	12.7307	-0.890024
 119	1	5	0.144731	2.89171	13.2155	0.747447
 120	1	1	-0.211274	8.19094	9.2773	0.0137284
 121	1	2	0.221306	7.29868	8.71826	-1.07891
 122	1	2	-0.631195	6.90255	7.37552	-1.01375
 123	1	3	0.289556	7.2291	6.75165	-0.18915
 124	1	2	0.263167	6.05821	6.83186	-1.98779
 125	1	2	-0.339066	5.61547	7.64409	-3.04196
 126	1	3	0.163087	4.9526	7.22613	-3.79397
 127	1	2	0.033139	6.00685	8.99067	-3.13152
 128	1	1	-0.070169	5.49479	9.83836	-4.28922
 129	1	2	-0.051663	6.85125	9.53264	-2.13817
 130	1	4	-0.031436	7.24401	10.8495	-2.19312
 131	1	5	0.081364	4.95841	10.7225	-3.92332
 132	1	5	-0.00525	4.80188	9.27629	-4.92877
 133	1	5	-0.006128	6.32321	10.1815	-4.92106
 134	1	5	0.002513	8.46615	8.51575	0.753801
 135	1	5	0.147318	7.681	10.0919	0.542345
 136	1	5	0.144731	9.11483	9.68027	-0.416039
 137	1	1	-0.211274	4.94027	3.72532	-4.07091
 138	1	2	0.221306	3.93337	4.34548	-3.11697
 139	1	2	-0.631195	2.57688	4.08296	-3.35833
 140	1	3	0.289556	2.28895	3.47369	-4.20715
 141	1	2	0.263167	1.58446	4.66585	-2.56363
 142	1	2	-0.339066	1.96607	5.45601	-1.46801
 143	1	3	0.163087	1.20459	5.89776	-0.834694
 144	1	2	0.033139	3.31397	5.7321	-1.20285
 145	1	1	-0.070169	3.65133	6.64344	-0.0263273
 146	1	2	-0.051663	4.30859	5.19564	-2.05159
 147	1	4	-0.031436	5.6276	5.53493	-1.86315
 148	1	5	0.081364	3.92135	7.64699	-0.377992
 149	1	5	-0.00525	4.49308	6.24947	0.556816
 150	1	5	-0.006128	2.80286	6.7544	0.660265
 151	1	5	0.002513	4.71304	3.99845	-5.10916
 152	1	5	0.147318	4.90713	2.63292	-3.9967
 153	1	5	0.144731	5.96823	4.04122	-3.86484
 154	1	1	-0.211274	-1.83192	4.14991	-0.899521
 155	1	2	0.221306	-1.5749	5.45075	-1.64237
 156	1	2	-0.631195	-2.30046	6.58201	-1.24783
 157	1	3	0.289556	-3.02418	6.5007	-0.444527
 158	1	2	0.263167	-2.08473	7.82106	-1.85876
 159	1	2	-0.339066	-1.18979	7.91433	-2.92882
 160	1	3	0.163087	-1.02579	8.87836	-3.4005
 161	1	2	0.033139	-0.453915	6.79665	-3.34839
 162	1	1	-0.070169	0.55084	6.98888	-4.47803
 163	1	2	-0.051663	-0.614363	5.56439	-2.67084
 164	1	4	-0.031436	0.260459	4.53075	-2.90738
 165	1	5	0.081364	0.155516	7.6766	-5.23546
 166	1	5	-0.00525	0.788272	6.04857	-4.99004
 167	1	5	-0.006128	1.48675	7.41681	-4.09665
 168	1	5	0.002513	-2.06291	4.33185	0.157628
 169	1	5	0.147318	-0.973975	3.47021	-0.935562
 170	1	5	0.144731	-2.68887	3.62842	-1.34146
 171	1	1	-0.211274	-0.0245815	8.65933	0.124837
 172	1	2	0.221306	-0.711304	9.9684	-0.238646
 173	1	2	-0.631195	-0.0647537	11.136	0.181126
 174	1	3	0.289556	0.866165	11.0585	0.7332
 175	1	2	0.263167	-0.601169	12.3971	-0.0787976
 176	1	2	-0.339066	-1.80935	12.496	-0.778069
 177	1	3	0.163087	-2.21731	13.4775	-0.999833
 178	1	2	0.033139	-2.48006	11.3403	-1.21982
 179	1	1	-0.070169	-3.76067	11.4993	-2.03309
 180	1	2	-0.051663	-1.94192	10.0618	-0.942449
 181	1	4	-0.031436	-2.65781	8.94772	-1.33769
 182	1	5	0.081364	-3.74126	10.8618	-2.92602
 183	1	5	-0.00525	-3.89378	12.5324	-2.37786
 184	1	5	-0.006128	-4.64675	11.2328	-1.44645
 185	1	5	0.002513	0.747322	8.79537	0.892775
 186	1	5	0.147318	0.467639	8.23025	-0.755339
 187	1	5	0.144731	-0.738347	7.92678	0.515388
 188	1	1	-0.211274	-1.18957	13.4374	2.95375
 189	1	2	0.221306	-1.01284	14.6849	2.10598
 190	1	2	-0.631195	-1.4451	15.9078	2.64169
 191	1	3	0.289556	-1.90033	15.932	3.62532
 192	1	2	0.263167	-1.29984	17.1011	1.91678
 193	1	2	-0.339066	-0.714809	17.0573	0.646674
 194	1	3	0.163087	-0.608814	17.9792	0.0846164
 195	1	2	0.033139	-0.264318	15.8475	0.0955844
 196	1	1	-0.070169	0.379289	15.843	-1.28519
 197	1	2	-0.051663	-0.417353	14.6533	0.826457
 198	1	4	-0.031436	0.112483	13.4948	0.32004
 199	1	5	0.081364	-0.220002	15.2535	-1.99009
 200	1	5	-0.00525	1.38492	15.4057	-1.25189
 201	1	5	-0.006128	0.472411	16.8569	-1.69427
 202	1	5	0.002513	-0.941832	13.6466	3.99744
 203	1	5	0.147318	-0.544332	12.6128	2.6347
 204	1	5	0.144731	-2.22565	13.0828	2.90662
 205	1	1	-0.211274	-1.13072	19.807	4.83406
 206	1	2	0.221306	-2.48873	19.2111	4.51061
 207	1	2	-0.631195	-3.52302	19.4002	5.43736
 208	1	3	0.289556	-3.33847	19.9503	6.35379
 209	1	2	0.263167	-4.80133	18.8903	5.19063
 210	1	2	-0.339066	-5.04586	18.2077	3.99181
 211	1	3	0.163087	-6.04141	17.8245	3.79062
 212	1	2	0.033139	-4.03249	18.0215	3.03971
 213	1	1	-0.070169	-4.39292	17.3289	1.72937
 214	1	2	-0.051663	-2.72912	18.4958	3.31604
 215	1	4	-0.031436	-1.70377	18.3168	2.41538
 216	1	5	0.081364	-4.11883	16.2675	1.75658
 217	1	5	-0.00525	-3.88252	17.7913	0.875291
 218	1	5	-0.006128	-5.46993	17.3879	1.52784
 219	1	5	0.002513	-0.989697	19.924	5.91603
 220	1	5	0.147318	-1.03076	20.7963	4.3746
 221	1	5	0.144731	-0.315982	19.1761	4.46339
 222	1	1	-0.211274	-4.44549	16.9733	7.70773
 223	1	2	0.221306	-5.87466	16.853	7.21725
 224	1	2	-0.631195	-6.55451	15.651	7.44595
 225	1	3	0.289556	-6.06412	14.8455	7.98643
 226	1	2	0.263167	-7.85426	15.4691	6.95658
 227	1	2	-0.339066	-8.49672	16.5272	6.3033
 228	1	3	0.163087	-9.51317	16.3893	5.94752
 229	1	2	0.033139	-7.83731	17.7438	6.06831
 230	1	1	-0.070169	-8.57613	18.8443	5.31431
 231	1	2	-0.051663	-6.50282	17.8945	6.50031
 232	1	4	-0.031436	-5.78019	19.0057	6.14329
 233	1	5	0.081364	-7.89902	19.4715	4.72262
 234	1	5	-0.00525	-9.11491	19.4973	6.01221
 235	1	5	-0.006128	-9.31306	18.4221	4.61931
 236	1	5	0.002513	-4.22831	16.2379	8.48809
 237	1	5	0.147318	-4.25785	17.9663	8.12942
 238	1	5	0.144731	-3.74289	16.8145	6.88349
 239	1	1	-0.211274	-6.34525	13.5472	5.08108
 240	1	2	0.221306	-6.95591	12.6178	6.11953
 241	1	2	-0.631195	-6.52399	11.285	6.09605
 242	1	3	0.289556	-5.77454	10.9808	5.37764
 243	1	2	0.263167	-7.07165	10.3253	6.95518
 244	1	2	-0.339066	-8.05201	10.7169	7.87061
 245	1	3	0.163087	-8.49058	9.97031	8.52455
 246	1	2	0.033139	-8.50707	12.0453	7.91651
 247	1	1	-0.070169	-9.62951	12.4131	8.87982
 248	1	2	-0.051663	-7.95833	13.0104	7.04447
 249	1	4	-0.031436	-8.51262	14.2736	7.0698
 250	1	5	0.081364	-9.91026	11.569	9.52056
 251	1	5	-0.00525	-10.5277	12.723	8.33034
 252	1	5	-0.006128	-9.33264	13.2415	9.53514
 253	1	5	0.002513	-5.90782	12.9921	4.2415
 254	1	5	0.147318	-5.54469	14.1477	5.52576
 255	1	5	0.144731	-7.09251	14.2312	4.6648
 256	1	1	-0.211274	-8.44301	9.09345	4.46503
 257	1	2	0.221306	-7.09944	8.38779	4.54443
 258	1	2	-0.631195	-6.65479	7.72197	3.39474
 259	1	3	0.289556	-7.27487	7.72552	2.50505
 260	1	2	0.263167	-5.42068	7.06087	3.37162
 261	1	2	-0.339066	-4.64695	7.03738	4.53971
 262	1	3	0.163087	-3.69817	6.51008	4.53156
 263	1	2	0.033139	-5.08411	7.66938	5.7183
 264	1	1	-0.070169	-4.23462	7.56383	6.98103
 265	1	2	-0.051663	-6.30651	8.3749	5.71744
 266	1	4	-0.031436	-6.71854	9.00099	6.87443
 267	1	5	0.081364	-3.19757	7.29268	6.74801
 268	1	5	-0.00525	-4.63836	6.80097	7.65822
 269	1	5	-0.006128	-4.2059	8.50894	7.53405
 270	1	5	0.002513	-9.01981	8.78	3.58601
 271	1	5	0.147318	-8.30387	10.178	4.3936
 272	1	5	0.144731	-9.05012	8.88552	5.35235
 273	1	1	-0.211274	-5.11564	9.16733	1.03413
 274	1	2	0.221306	-5.47778	7.87449	0.325045
 275	1	2	-0.631195	-5.88837	7.97637	-1.01151
 276	1	3	0.289556	-5.95015	8.94962	-1.48411
 277	1	2	0.263167	-6.20075	6.8435	-1.7701
 278	1	2	-0.339066	-6.1288	5.5828	-1.15682
 279	1	3	0.163087	-6.37792	4.69515	-1.72969
 280	1	2	0.033139	-5.72888	5.45344	0.188501
 281	1	1	-0.070169	-5.66785	4.0678	0.821399
 282	1	2	-0.051663	-5.40317	6.60281	0.943999
 283	1	4	-0.031436	-4.94563	6.43732	2.23871
 284	1	5	0.081364	-6.43387	3.96821	1.6009
 285	1	5	-0.00525	-4.69085	3.88369	1.28625
 286	1	5	-0.006128	-5.83728	3.27182	0.0855457
 287	1	5	0.002513	-6.01164	9.67639	1.40942
 288	1	5	0.147318	-4.59971	9.85469	0.360739
 289	1	5	0.144731	-4.44523	8.99264	1.87751
 290	1	1	-0.211274	-9.1252	6.58646	-4.37237
 291	1	2	0.221306	-7.86025	5.8341	-4.74435
 292	1	2	-0.631195	-7.9144	4.90657	-5.79811
 293	1	3	0.289556	-8.84814	4.71462	-6.31282
 294	1	2	0.263167	-6.75945	4.24613	-6.23134
 295	1	2	-0.339066	-5.53868	4.54055	-5.60233
 296	1	3	0.163087	-4.6212	4.07133	-5.94417
 297	1	2	0.033139	-5.46416	5.46012	-4.5455
 298	1	1	-0.070169	-4.09409	5.77853	-3.97165
 299	1	2	-0.051663	-6.64029	6.08832	-4.08065
 300	1	4	-0.031436	-6.602	7.03205	-3.07575
 301	1	5	0.081364	-4.01046	6.83497	-3.69092
 302	1	5	-0.00525	-3.29472	5.57465	-4.69594
 303	1	5	-0.006128	-3.90494	5.16638	-3.08415
 304	1	5	0.002513	-9.07129	7.62712	-4.71713
 305	1	5	0.147318	-9.27232	6.59452	-3.28659
 306	1	5	0.144731	-10.0119	6.13104	-4.8253
 307	1	1	-0.211274	-6.0506	0.962421	-5.83578
 308	1	2	0.221306	-5.29745	1.52341	-7.03069
 309	1	2	-0.631195	-4.08021	0.93641	-7.38714
 310	1	3	0.289556	-3.70493	0.111499	-6.79639
 311	1	2	0.263167	-3.30866	1.44595	-8.4421
 312	1	2	-0.339066	-3.80238	2.52646	-9.18279
 313	1	3	0.163087	-3.2044	2.92867	-9.99405
 314	1	2	0.033139	-5.01783	3.14315	-8.83527
 315	1	1	-0.070169	-5.48154	4.37377	-9.60327
 316	1	2	-0.051663	-5.75492	2.65541	-7.73519
 317	1	4	-0.031436	-6.8463	3.3531	-7.27672
 318	1	5	0.081364	-5.60271	5.23221	-8.93082
 319	1	5	-0.00525	-6.44631	4.18872	-10.0919
 320	1	5	-0.006128	-4.76439	4.66325	-10.3816
 321	1	5	0.002513	-5.54875	0.0863148	-5.40518
 322	1	5	0.147318	-7.06094	0.656733	-6.12893
 323	1	5	0.144731	-6.13833	1.71364	-5.04244
 324	1	1	-0.211274	-0.723725	3.49012	-7.97833
 325	1	2	0.221306	-0.611761	2.21981	-7.15713
 326	1	2	-0.631195	-0.0472644	2.32113	-5.87965
 327	1	3	0.289556	0.238393	3.29168	-5.49094
 328	1	2	0.263167	-0.0234082	1.21195	-5.03175
 329	1	2	-0.339066	-0.434589	-0.0392185	-5.52256
 330	1	3	0.163087	-0.423205	-0.902083	-4.86384
 331	1	2	0.033139	-1.00978	-0.164429	-6.79623
 332	1	1	-0.070169	-1.58234	-1.52239	-7.19835
 333	1	2	-0.051663	-1.16427	0.993299	-7.59064
 334	1	4	-0.031436	-2.03078	0.986796	-8.65773
 335	1	5	0.081364	-2.13039	-1.48985	-8.1477
 336	1	5	-0.00525	-2.27782	-1.89321	-6.43458
 337	1	5	-0.006128	-0.78385	-2.26609	-7.30724
 338	1	5	0.002513	-0.716374	3.28149	-9.05532
 339	1	5	0.147318	0.11683	4.16132	-7.77125
 340	1	5	0.144731	-1.65187	4.01954	-7.73443
 341	1	1	-0.211274	1.27362	-0.262716	-1.608
 342	1	2	0.221306	-0.213684	-0.124985	-1.877
 343	1	2	-0.631195	-1.10489	-0.990147	-1.23024
 344	1	3	0.289556	-0.731463	-1.75966	-0.563311
 345	1	2	0.263167	-2.47809	-0.917754	-1.48451
 346	1	2	-0.339066	-2.97335	0.109571	-2.29778
 347	1	3	0.163087	-4.04361	0.198178	-2.45945
 348	1	2	0.033139	-2.10221	0.988522	-2.95585
 349	1	1	-0.070169	-2.71045	2.06498	-3.85049
 350	1	2	-0.051663	-0.703937	0.811557	-2.80828
 351	1	4	-0.031436	0.175429	1.4033	-3.68617
 352	1	5	0.081364	-2.83126	1.70302	-4.87811
 353	1	5	-0.00525	-2.08611	2.96634	-3.87859
 354	1	5	-0.006128	-3.7001	2.37135	-3.48912
 355	1	5	0.002513	1.47358	-0.867941	-0.71435
 356	1	5	0.147318	1.72289	0.724345	-1.4422
 357	1	5	0.144731	1.78089	-0.729897	-2.45871
 358	1	1	-0.211274	-3.11582	-3.18186	-3.59978
 359	1	2	0.221306	-4.41565	-2.96885	-2.8392
 360	1	2	-0.631195	-5.59988	-3.49218	-3.38558
 361	1	3	0.289556	-5.58088	-4.05461	-4.31196
 362	1	2	0.263167	-6.81814	-3.33911	-2.71297
 363	1	2	-0.339066	-6.86584	-2.59473	-1.5315
 364	1	3	0.163087	-7.8164	-2.47338	-1.02228
 365	1	2	0.033139	-5.69161	-2.11011	-0.939929
 366	1	1	-0.070169	-5.78081	-1.45092	0.429261
 367	1	2	-0.051663	-4.45549	-2.30286	-1.58924
 368	1	4	-0.031436	-3.30603	-1.87571	-0.964851
 369	1	5	0.081364	-5.04125	-0.650264	0.548685
 370	1	5	-0.00525	-5.60781	-2.19279	1.21917
 371	1	5	-0.006128	-6.77133	-1.01018	0.596535
 372	1	5	0.002513	-2.35171	-3.64768	-2.96559
 373	1	5	0.147318	-2.72091	-2.22501	-3.96133
 374	1	5	0.144731	-3.25937	-3.82645	-4.47337
 375	1	1	-0.211274	-9.97095	-4.75525	-5.03549
 376	1	2	0.221306	-9.29601	-5.69625	-4.0502
 377	1	2	-0.631195	-9.73364	-7.02576	-4.05093
 378	1	3	0.289556	-10.5131	-7.34845	-4.73163
 379	1	2	0.263167	-9.18524	-7.96083	-3.17306
 380	1	2	-0.339066	-8.20704	-7.54954	-2.26384
 381	1	3	0.163087	-7.80506	-8.27398	-1.56149
 382	1	2	0.033139	-7.76509	-6.21362	-2.2174
 383	1	1	-0.070169	-6.75669	-5.88036	-1.12048
 384	1	2	-0.051663	-8.29919	-5.26759	-3.14184
 385	1	4	-0.031436	-7.96628	-3.92411	-3.17274
 386	1	5	0.081364	-7.01324	-4.95674	-0.595386
 387	1	5	-0.00525	-5.74023	-5.79069	-1.52371
 388	1	5	-0.006128	-6.73364	-6.65776	-0.34643
 389	1	5	0.002513	-9.36103	-3.8781	-5.281
 390	1	5	0.147318	-10.9241	-4.40334	-4.62493
 391	1	5	0.144731	-10.1813	-5.27249	-5.9783
 392	1	1	-0.211274	-7.07247	-9.51262	-4.77565
 393	1	2	0.221306	-7.6815	-10.5802	-3.87941
 394	1	2	-0.631195	-7.01604	-11.8138	-3.83291
 395	1	3	0.289556	-6.11112	-11.9506	-4.41665
 396	1	2	0.263167	-7.53475	-12.8897	-3.09847
 397	1	2	-0.339066	-8.71674	-12.7105	-2.37847
 398	1	3	0.163087	-9.12491	-13.5468	-1.81952
 399	1	2	0.033139	-9.40481	-11.4874	-2.40632
 400	1	1	-0.070169	-10.7214	-11.3834	-1.64486
 401	1	2	-0.051663	-8.88576	-10.4036	-3.15008
 402	1	4	-0.031436	-9.64053	-9.25251	-3.22431
 403	1	5	0.081364	-11.452	-10.7615	-2.17551
 404	1	5	-0.00525	-10.5631	-10.9492	-0.65022
 405	1	5	-0.006128	-11.1817	-12.3708	-1.50911
 406	1	5	0.002513	-6.53771	-9.95808	-5.62398
 407	1	5	0.147318	-6.35869	-8.90345	-4.20939
 408	1	5	0.144731	-7.82946	-8.84705	-5.20106
 409	1	1	-0.211274	-4.20831	-14.5011	-2.25681
 410	1	2	0.221306	-4.70106	-14.7432	-3.67312
 411	1	2	-0.631195	-3.76566	-15.1801	-4.61759
 412	1	3	0.289556	-2.74903	-15.3625	-4.30649
 413	1	2	0.263167	-4.134	-15.3861	-5.95221
 414	1	2	-0.339066	-5.47142	-15.2091	-6.32155
 415	1	3	0.163087	-5.77196	-15.4044	-7.34415
 416	1	2	0.033139	-6.43801	-14.8013	-5.38788
 417	1	1	-0.070169	-7.88516	-14.6934	-5.85984
 418	1	2	-0.051663	-6.04475	-14.546	-4.05286
 419	1	4	-0.031436	-6.95604	-14.1349	-3.11114
 420	1	5	0.081364	-8.46743	-13.9581	-5.29522
 421	1	5	-0.00525	-8.39173	-15.6621	-5.76911
 422	1	5	-0.006128	-7.93368	-14.3924	-6.91388
 423	1	5	0.002513	-4.16592	-15.4402	-1.69179
 424	1	5	0.147318	-4.84985	-13.8009	-1.71049
 425	1	5	0.144731	-3.20198	-14.0679	-2.27014
 426	1	1	-0.211274	-0.690328	-14.6496	-5.86958
 427	1	2	0.221306	-1.36536	-14.2494	-7.16928
 428	1	2	-0.631195	-0.672494	-13.3458	-7.9791
 429	1	3	0.289556	0.259775	-12.9087	-7.63442
 430	1	2	0.263167	-1.0849	-13.0976	-9.29408
 431	1	2	-0.339066	-2.24275	-13.713	-9.77645
 432	1	3	0.163087	-2.51538	-13.5754	-10.8181
 433	1	2	0.033139	-2.96012	-14.6217	-8.98089
 434	1	1	-0.070169	-4.08348	-15.4115	-9.642
 435	1	2	-0.051663	-2.53494	-14.878	-7.65581
 436	1	4	-0.031436	-3.20726	-15.79	-6.87795
 437	1	5	0.081364	-4.1349	-16.4393	-9.26269
 438	1	5	-0.00525	-3.92539	-15.4863	-10.7261
 439	1	5	-0.006128	-5.05597	-14.933	-9.48367
 440	1	5	0.002513	-0.975813	-13.9867	-5.04448
 441	1	5	0.147318	0.399478	-14.6015	-5.97688
 442	1	5	0.144731	-0.924256	-15.6845	-5.59931
 443	1	1	-0.211274	0.38598	-15.5014	-10.2521
 444	1	2	0.221306	1.40719	-14.3848	-10.0986
 445	1	2	-0.631195	2.72165	-14.7961	-9.89612
 446	1	3	0.289556	2.93616	-15.8532	-9.7918
 447	1	2	0.263167	3.77681	-13.8779	-9.88354
 448	1	2	-0.339066	3.49355	-12.5138	-10.0377
 449	1	3	0.163087	4.3136	-11.803	-10.062
 450	1	2	0.033139	2.16666	-12.065	-10.1882
 451	1	1	-0.070169	1.89508	-10.5768	-10.3748
 452	1	2	-0.051663	1.10867	-13.0006	-10.1885
 453	1	4	-0.031436	-0.196362	-12.5501	-10.1822
 454	1	5	0.081364	2.79188	-10.0437	-10.7139
 455	1	5	-0.00525	1.56011	-10.1156	-9.43741
 456	1	5	-0.006128	1.11858	-10.4078	-11.1325
 457	1	5	0.002513	-0.377827	-15.2531	-10.9977
 458	1	5	0.147318	-0.106635	-15.7149	-9.29811
 459	1	5	0.144731	0.862268	-16.4268	-10.5898
 460	1	1	-0.211274	4.66169	-14.9317	-12.7612
 461	1	2	0.221306	5.12262	-15.9288	-11.7099
 462	1	2	-0.631195	5.26634	-17.2544	-12.1392
 463	1	3	0.289556	5.07711	-17.5136	-13.1742
 464	1	2	0.263167	5.6651	-18.2618	-11.2598
 465	1	2	-0.339066	5.91051	-17.9286	-9.91385
 466	1	3	0.163087	6.2081	-18.7026	-9.21504
 467	1	2	0.033139	5.75154	-16.6076	-9.45029
 468	1	1	-0.070169	5.92331	-16.3002	-7.96506
 469	1	2	-0.051663	5.36364	-15.5955	-10.3546
 470	1	4	-0.031436	5.07251	-14.3348	-9.87558
 471	1	5	0.081364	6.31687	-17.1597	-7.40988
 472	1	5	-0.00525	4.96254	-16.0271	-7.50921
 473	1	5	-0.006128	6.61438	-15.4626	-7.80887
 474	1	5	0.002513	4.394	-13.9487	-12.3635
 475	1	5	0.147318	3.77641	-15.3184	-13.2781
 476	1	5	0.144731	5.45125	-14.7755	-13.5023
 477	1	1	-0.211274	4.97426	-21.5677	-9.83223
 478	1	2	0.221306	6.41256	-21.2845	-10.2232
 479	1	2	-0.631195	7.43923	-21.9311	-9.53387
 480	1	3	0.289556	7.19882	-22.577	-8.69555
 481	1	2	0.263167	8.77805	-21.7394	-9.90032
 482	1	2	-0.339066	9.07167	-21.0046	-11.0567
 483	1	3	0.163087	10.1001	-20.9271	-11.396
 484	1	2	0.033139	8.05507	-20.3353	-11.7575
 485	1	1	-0.070169	8.40568	-19.6065	-13.0517
 486	1	2	-0.051663	6.73256	-20.3999	-11.2691
 487	1	4	-0.031436	5.77547	-19.5461	-11.7469
 488	1	5	0.081364	8.57399	-20.3387	-13.8527
 489	1	5	-0.00525	9.32109	-19.013	-12.9475
 490	1	5	-0.006128	7.61159	-18.9348	-13.3973
 491	1	5	0.002513	4.90851	-22.2732	-8.99458
 492	1	5	0.147318	4.44693	-22.0197	-10.6808
 493	1	5	0.144731	4.44509	-20.6523	-9.55006
 494	1	1	-0.211274	9.68859	-19.9541	-7.30256
 495	1	2	0.221306	9.57758	-21.4065	-6.86473
 496	1	2	-0.631195	9.34588	-21.6671	-5.50424
 497	1	3	0.289556	9.29381	-20.8429	-4.80047
 498	1	2	0.263167	9.13889	-22.9776	-5.04434
 499	1	2	-0.339066	9.16067	-24.028	-5.97118
 500	1	3	0.163087	8.96796	-25.0371	-5.62357
 501	1	2	0.033139	9.41166	-23.7949	-7.33497
 502	1	1	-0.070169	9.35584	-24.9628	-8.31288
 503	1	2	-0.051663	9.63083	-22.4777	-7.78598
 504	1	4	-0.031436	9.79468	-22.2448	-9.13326
 505	1	5	0.081364	9.67711	-25.8954	-7.83651
 506	1	5	-0.00525	10.0032	-24.806	-9.18473
 507	1	5	-0.006128	8.33229	-25.1072	-8.68112
 508	1	5	0.002513	10.2188	-19.3461	-6.55955
 509	1	5	0.147318	8.6867	-19.5296	-7.4371
 510	1	5	0.144731	10.2223	-19.8452	-8.25289
 511	1	1	-0.211274	11.7342	-23.4944	-3.28876
 512	1	2	0.221306	10.8344	-22.5868	-2.46676
 513	1	2	-0.631195	11.4089	-21.818	-1.44275
 514	1	3	0.289556	12.4819	-21.8264	-1.29365
 515	1	2	0.263167	10.6154	-21.0616	-0.570359
 516	1	2	-0.339066	9.21936	-21.1137	-0.714468
 517	1	3	0.163087	8.58926	-20.5792	-0.0105073
 518	1	2	0.033139	8.62253	-21.8722	-1.74117
 519	1	1	-0.070169	7.10252	-21.9839	-1.76894
 520	1	2	-0.051663	9.43835	-22.564	-2.66545
 521	1	4	-0.031436	8.87846	-23.2559	-3.71906
 522	1	5	0.081364	6.76078	-22.6028	-0.92881
 523	1	5	-0.00525	6.7203	-22.4456	-2.68701
 524	1	5	-0.006128	6.62893	-20.9998	-1.67358
 525	1	5	0.002513	11.2673	-24.4765	-3.44338
 526	1	5	0.147318	12.687	-23.6748	-2.78074
 527	1	5	0.144731	11.9406	-23.0581	-4.2723
 528	1	1	-0.211274	11.3963	-17.4638	0.417195
 529	1	2	0.221306	10.7471	-18.2655	1.53263
 530	1	2	-0.631195	10.284	-17.5732	2.66147
 531	1	3	0.289556	10.3795	-16.494	2.70448
 532	1	2	0.263167	9.74198	-18.2481	3.76179
 533	1	2	-0.339066	9.68018	-19.6516	3.7177
 534	1	3	0.163087	9.30713	-20.193	4.58069
 535	1	2	0.033139	10.1467	-20.3717	2.59629
 536	1	1	-0.070169	10.1447	-21.8958	2.67256
 537	1	2	-0.051663	10.6694	-19.6728	1.48066
 538	1	4	-0.031436	11.2492	-20.3355	0.416208
 539	1	5	0.081364	9.14055	-22.2717	2.89963
 540	1	5	-0.00525	10.8188	-22.2393	3.46663
 541	1	5	-0.006128	10.4702	-22.3814	1.74647
 542	1	5	0.002513	11.1478	-16.3972	0.481896
 543	1	5	0.147318	11.0708	-17.8173	-0.568333
 544	1	5	0.144731	12.4871	-17.5566	0.473348
 545	1	1	-0.211274	6.5186	-18.1392	4.48789
 546	1	2	0.221306	7.22507	-18.142	5.83421
 547	1	2	-0.631195	6.45788	-18.4077	6.98547
 548	1	3	0.289556	5.39552	-18.5854	6.88112
 549	1	2	0.263167	7.05116	-18.4688	8.25869
 550	1	2	-0.339066	8.40765	-18.1414	8.36493
 551	1	3	0.163087	8.86407	-18.1291	9.3496
 552	1	2	0.033139	9.18051	-17.8091	7.23798
 553	1	1	-0.070169	10.6255	-17.3644	7.43468
 554	1	2	-0.051663	8.60774	-17.8665	5.94879
 555	1	4	-0.031436	9.36927	-17.4933	4.85769
 556	1	5	0.081364	11.3166	-18.019	6.89209
 557	1	5	-0.00525	10.9157	-17.3722	8.49314
 558	1	5	-0.006128	10.7708	-16.341	7.06714
 559	1	5	0.002513	6.50845	-19.1454	4.05048
 560	1	5	0.147318	7.00163	-17.4654	3.77145
 561	1	5	0.144731	5.48118	-17.8062	4.59368
 562	1	1	-0.211274	5.31685	-17.3962	11.7229
 563	1	2	0.221306	4.49804	-18.2809	10.801
 564	1	2	-0.631195	3.13779	-18.3859	11.1086
 565	1	3	0.289556	2.7349	-17.8362	11.9503
 566	1	2	0.263167	2.27161	-19.1282	10.306
 567	1	2	-0.339066	2.81515	-19.8999	9.27723
 568	1	3	0.163087	2.16573	-20.5446	8.69098
 569	1	2	0.033139	4.19426	-19.8719	8.98536
 570	1	1	-0.070169	4.72424	-20.8755	7.96281
 571	1	2	-0.051663	5.04163	-18.9711	9.68455
 572	1	4	-0.031436	6.39299	-18.8402	9.42353
 573	1	5	0.081364	5.82097	-20.9412	7.96855
 574	1	5	-0.00525	4.40091	-20.6171	6.94541
 575	1	5	-0.006128	4.34592	-21.8834	8.17914
 576	1	5	0.002513	5.0874	-17.6114	12.7771
 577	1	5	0.147318	5.07444	-16.3429	11.5401
 578	1	5	0.144731	6.39429	-17.5299	11.5923
 579	1	1	-0.211274	-0.933202	-19.9053	12.6282
 580	1	2	0.221306	-0.718139	-18.4731	12.1646
 581	1	2	-0.631195	-1.464	-17.4853	12.8267
 582	1	3	0.289556	-2.17293	-17.7542	13.6005
 583	1	2	0.263167	-1.30532	-16.1328	12.4991
 584	1	2	-0.339066	-0.390824	-15.7758	11.4994
 585	1	3	0.163087	-0.265189	-14.7281	11.2518
 586	1	2	0.033139	0.353116	-16.7468	10.8102
 587	1	1	-0.070169	1.2985	-16.243	9.72438
 588	1	2	-0.051663	0.208359	-18.1195	11.1536
 589	1	4	-0.031436	0.913801	-19.1233	10.5136
 590	1	5	0.081364	1.44227	-16.9745	8.92047
 591	1	5	-0.00525	2.28196	-15.9962	10.1441
 592	1	5	-0.006128	0.910467	-15.3298	9.26282
 593	1	5	0.002513	-0.55027	-20.656	11.9244
 594	1	5	0.147318	-2.0024	-20.103	12.7641
 595	1	5	0.144731	-0.437235	-20.0634	13.5937
 596	1	6	0	4.80189	13.161	3.11189
 597	1	3	0	-1.89443	-15.3568	13.02

Velocities

   1	0.00251511	0.00260056	0.000486036
   2	0.00127242	0.00139803	-0.000580042
   3	0.00137259	0.00142131	0.000114925
   4	-0.00194903	0.0028413	-0.00348368
   5	0.000405758	0.00157633	-0.000734077
   6	0.00129483	0.00179981	0.00147061
   7	0.00164809	0.00199716	9.22323e-05
   8	-0.000484307	0.00163932	0.000405622
   9	-0.00288307	-0.000621562	-0.00129812
  10	0.000679563	0.00181405	-0.000875646
  11	0.00046014	-0.000554097	-0.00286703
  12	-0.00245713	0.0035221	0.00100523
  13	0.00159078	0.000377533	0.000512748
  14	-0.00340721	0.0084303	-0.00568211
  15	-0.000698357	0.00527509	-0.00370369
  16	0.00813548	-0.000711996	0.00304384
  17	0.00281441	0.00225099	0.00613528
  18	0.000700049	0.00124643	0.000894304
  19	-0.00258354	6.40201e-06	0.000398419
  20	-0.000643425	0.000834992	0.00272486
  21	0.00326636	-0.00598476	0.00302406
  22	0.000981451	0.001904	0.00131591
  23	0.000442016	0.00262507	0.000841563
  24	0.00182719	0.00810982	-0.00503153
  25	-7.00337e-05	0.00191463	0.000968606
  26	0.00099927	0.00374465	-0.0002388
  27	-0.000884201	0.00139136	0.000168609
  28	-0.00151094	0.00291563	-0.00123424
  29	-0.0055318	0.0158042	-0.00108739
  30	-0.00362926	-0.011694	0.00662827
  31	0.0149799	0.00244317	-0.00215039
  32	-0.00079323	-0.00610891	-0.00283263
  33	-0.00373937	0.00402972	0.00852421
  34	0.00537483	-0.000589351	-0.00433332
  35	0.00201105	-0.000799592	0.00241148
  36	0.00239605	-0.000920808	0.00244797
  37	-0.00245677	0.00238155	0.00106969
  38	-0.00144162	0.00246609	0.00214564
  39	-0.000920932	0.000578392	0.000505959
  40	-0.000613489	6.96175e-05	0.000953813
  41	-0.00192273	0.00235581	-0.00214074
  42	-9.91094e-05	0.0014564	0.00144098
  43	0.000340161	-0.00160294	-0.000384819
  44	0.000988749	0.0013583	0.00104415
  45	0.000634589	0.0008201	0.00147644
  46	0.00513946	-0.000189282	-0.00168194
  47	-0.000524169	-0.0100665	0.00017942
  48	0.00021748	-0.00149428	0.00124647
  49	0.0109615	-0.00200874	0.0030355
  50	0.000818102	-0.00530553	0.00487751
  51	-0.00149978	-0.00112593	0.00613256
  52	-0.00104062	0.00383071	-0.00117384
  53	8.19558e-06	0.00381331	-0.000429145
  54	0.00113577	0.00274926	-6.99694e-05
  55	-0.000471312	0.00588683	0.00100981
  56	0.00103437	0.00292476	-0.00146984
  57	0.00025626	0.00179805	-0.00106666
  58	7.43344e-05	0.00249851	-0.0019409
  59	-0.00097327	0.00409837	-0.00103335
  60	-0.000309629	0.00354693	-0.00169724
  61	-0.000630026	0.00314795	-0.00136212
  62	-0.000427535	0.00156488	-0.00105242
  63	0.00100511	0.00130255	0.00331904
  64	-0.000124724	0.0090244	-0.00140104
  65	-0.000206909	0.00580456	-0.00108709