pySIMM System Object

529 atoms
559 bonds
961 angles
1238 dihedrals
124 impropers

6 atom types
6 bond types
8 angle types
3 dihedral types
2 improper types

-114.390235 114.390235 xlo xhi
-114.390235 114.390235 ylo yhi
-114.390235 114.390235 zlo zhi

Masses

   1	12.01	# c3
   2	12.01	# ca
   3	1.008	# ha
   4	16.0	# oh
   5	1.008	# hc
   6	1.008	# ho

Pair Coeffs

   1	0.1094	3.3996695084235347	# c3
   2	0.086	3.3996695084235347	# ca
   3	0.015	2.59964245953351	# ha
   4	0.2104	3.0664733878390478	# oh
   5	0.0157	2.649532787749369	# hc
   6	0.0047	0.5379246460131368	# ho

Bond Coeffs

   1	371.4	0.973	# ho,oh
   2	461.1	1.3984	# ca,ca
   3	384.0	1.3637	# ca,oh
   4	345.8	1.086	# ca,ha
   5	321.0	1.5156	# c3,ca
   6	330.6	1.0969	# c3,hc

Angle Coeffs

   1	46.8	110.47	# ca,c3,hc
   2	49.0	108.58	# ca,oh,ho
   3	69.52	119.9	# ca,ca,oh
   4	66.62	120.02	# ca,ca,ca
   5	39.4	107.58	# hc,c3,hc
   6	48.18	119.88	# ca,ca,ha
   7	63.53	120.77	# c3,ca,ca
   8	63.5	119.89	# ca,oh,ca

Dihedral Coeffs

   1	1	3.625	2	180	# X,ca,ca,X
   2	1	0.9	2	180	# X,ca,oh,X
   3	1	0.0	2	0	# X,c3,ca,X

Improper Coeffs

   1	1.1	-1	2	# ca,X,X,ha
   2	1.1	-1	2	# ca,ca,ca,c3

Atoms

   1	1	1	-0.211274	-2.15457	-9.98465	5.90644
   2	1	2	0.221306	-1.94093	-8.53522	5.567
   3	1	2	-0.631195	-1.33483	-7.70822	6.50404
   4	1	3	0.289556	-1.02046	-8.11668	7.44821
   5	1	2	0.263167	-1.18065	-6.33272	6.24938
   6	1	2	-0.339066	-1.58822	-5.82054	5.00887
   7	1	3	0.163087	-1.47253	-4.76367	4.81603
   8	1	2	0.033139	-2.19002	-6.64749	4.04239
   9	1	1	-0.070169	-2.65908	-5.99995	2.74533
  10	1	2	-0.051663	-2.3981	-8.01695	4.34137
  11	1	4	-0.031436	-3.09208	-8.86539	3.49628
  12	1	5	0.081364	-2.14263	-6.40307	1.86136
  13	1	5	-0.00525	-2.45731	-4.90935	2.75734
  14	1	5	-0.006128	-3.74247	-6.1097	2.59417
  15	1	5	0.002513	-1.83166	-10.2192	6.93525
  16	1	5	0.147318	-1.59037	-10.6312	5.22271
  17	1	5	0.144731	-3.21718	-10.2456	5.82617
  18	1	1	-0.211274	-3.30514	-5.93106	8.5673
  19	1	2	0.221306	-1.95081	-6.11994	9.22576
  20	1	2	-0.631195	-1.94008	-6.62686	10.5309
  21	1	3	0.289556	-2.8807	-6.90064	10.999
  22	1	2	0.263167	-0.741676	-6.78654	11.239
  23	1	2	-0.339066	0.457036	-6.40742	10.6323
  24	1	3	0.163087	1.38737	-6.53036	11.1816
  25	1	2	0.033139	0.472418	-5.93703	9.3047
  26	1	1	-0.070169	1.80607	-5.62682	8.65529
  27	1	2	-0.051663	-0.73076	-5.81972	8.58459
  28	1	4	-0.031436	-0.69701	-5.48268	7.24294
  29	1	5	0.081364	2.64225	-6.0599	9.22057
  30	1	5	-0.00525	1.96094	-4.54373	8.57579
  31	1	5	-0.006128	1.84751	-6.05192	7.6501
  32	1	5	0.002513	-4.04109	-5.53539	9.28137
  33	1	5	0.147318	-3.68038	-6.8869	8.18306
  34	1	5	0.144731	-3.25747	-5.22511	7.73134
  35	1	1	-0.211274	-2.84163	-6.83482	14.4163
  36	1	2	0.221306	-2.73968	-8.10958	13.5929
  37	1	2	-0.631195	-3.81679	-9.00953	13.637
  38	1	3	0.289556	-4.68583	-8.78197	14.2464
  39	1	2	0.263167	-3.8127	-10.1734	12.8586
  40	1	2	-0.339066	-2.68267	-10.4663	12.0784
  41	1	3	0.163087	-2.66018	-11.3684	11.4752
  42	1	2	0.033139	-1.59832	-9.58071	12.0098
  43	1	1	-0.070169	-0.445476	-9.92137	11.0703
  44	1	2	-0.051663	-1.6445	-8.37497	12.7432
  45	1	4	-0.031436	-0.727321	-7.39007	12.4767
  46	1	5	0.081364	-0.285471	-11.0047	11.0161
  47	1	5	-0.00525	0.500335	-9.47261	11.3987
  48	1	5	-0.006128	-0.655302	-9.56468	10.0538
  49	1	5	0.002513	-3.85717	-6.42062	14.3852
  50	1	5	0.147318	-2.16075	-6.05265	14.0618
  51	1	5	0.144731	-2.59157	-7.03573	15.4642
  52	1	1	-0.211274	-5.90966	-9.92565	10.2866
  53	1	2	0.221306	-5.57354	-11.388	10.5245
  54	1	2	-0.631195	-5.67218	-12.2839	9.45059
  55	1	3	0.289556	-6.00633	-11.923	8.48285
  56	1	2	0.263167	-5.35151	-13.6409	9.61445
  57	1	2	-0.339066	-4.9643	-14.0981	10.8808
  58	1	3	0.163087	-4.73002	-15.1495	11.0144
  59	1	2	0.033139	-4.86873	-13.2199	11.9745
  60	1	1	-0.070169	-4.43784	-13.7492	13.337
  61	1	2	-0.051663	-5.15406	-11.8528	11.7898
  62	1	4	-0.031436	-4.93409	-10.9685	12.8206
  63	1	5	0.081364	-3.62215	-13.1481	13.758
  64	1	5	-0.00525	-4.08684	-14.7867	13.2804
  65	1	5	-0.006128	-5.27549	-13.7187	14.0454
  66	1	5	0.002513	-6.22781	-9.73666	9.25349
  67	1	5	0.147318	-5.04078	-9.28889	10.4888
  68	1	5	0.144731	-6.72299	-9.60926	10.9496
  69	1	1	-0.211274	-3.07581	-13.2296	7.35445
  70	1	2	0.221306	-4.37531	-13.5041	6.61726
  71	1	2	-0.631195	-4.47818	-13.1094	5.27451
  72	1	3	0.289556	-3.65184	-12.5924	4.80059
  73	1	2	0.263167	-5.63286	-13.3934	4.52735
  74	1	2	-0.339066	-6.68491	-14.081	5.14455
  75	1	3	0.163087	-7.5739	-14.314	4.56641
  76	1	2	0.033139	-6.60647	-14.4815	6.48955
  77	1	1	-0.070169	-7.76449	-15.2546	7.10974
  78	1	2	-0.051663	-5.45535	-14.1687	7.24081
  79	1	4	-0.031436	-5.39539	-14.5325	8.56784
  80	1	5	0.081364	-8.34326	-14.616	7.78805
  81	1	5	-0.00525	-7.40376	-16.1175	7.68425
  82	1	5	-0.006128	-8.44959	-15.641	6.34445
  83	1	5	0.002513	-2.25437	-12.999	6.66477
  84	1	5	0.147318	-2.77396	-14.1052	7.94083
  85	1	5	0.144731	-3.19088	-12.386	8.04457
  86	1	1	-0.211274	-3.70156	-15.0278	2.51288
  87	1	2	0.221306	-3.69358	-13.5866	2.0295
  88	1	2	-0.631195	-2.66032	-13.1808	1.17102
  89	1	3	0.289556	-1.87723	-13.8806	0.898984
  90	1	2	0.263167	-2.64604	-11.8973	0.614123
  91	1	2	-0.339066	-3.68295	-11.0082	0.937124
  92	1	3	0.163087	-3.70318	-10.0159	0.497321
  93	1	2	0.033139	-4.71463	-11.3816	1.81231
  94	1	1	-0.070169	-5.82454	-10.377	2.0954
  95	1	2	-0.051663	-4.71795	-12.6751	2.37606
  96	1	4	-0.031436	-5.75585	-13.0498	3.20072
  97	1	5	0.081364	-6.69147	-10.57	1.45187
  98	1	5	-0.00525	-5.4922	-9.34909	1.90077
  99	1	5	-0.006128	-6.15722	-10.4177	3.1396
 100	1	5	0.002513	-2.86668	-15.6062	2.098
 101	1	5	0.147318	-4.63073	-15.5248	2.21109
 102	1	5	0.144731	-3.62908	-15.0831	3.60435
 103	1	1	-0.211274	-0.361178	-9.22302	0.900653
 104	1	2	0.221306	-1.06879	-9.21447	-0.443814
 105	1	2	-0.631195	-1.15094	-8.012	-1.15946
 106	1	3	0.289556	-0.718036	-7.11119	-0.737864
 107	1	2	0.263167	-1.77214	-7.96617	-2.41903
 108	1	2	-0.339066	-2.31353	-9.14153	-2.95135
 109	1	3	0.163087	-2.78792	-9.10778	-3.92659
 110	1	2	0.033139	-2.26208	-10.3531	-2.24314
 111	1	1	-0.070169	-2.89242	-11.6007	-2.84944
 112	1	2	-0.051663	-1.63883	-10.3886	-0.978628
 113	1	4	-0.031436	-1.6324	-11.5536	-0.249745
 114	1	5	0.081364	-3.631	-12.039	-2.1669
 115	1	5	-0.00525	-2.13124	-12.3625	-3.05963
 116	1	5	-0.006128	-3.40876	-11.3786	-3.79199
 117	1	5	0.002513	-0.128217	-8.21011	1.25179
 118	1	5	0.147318	0.581091	-9.77775	0.826067
 119	1	5	0.144731	-0.978249	-9.7049	1.66714
 120	1	1	-0.211274	-4.15025	-5.3534	-2.14606
 121	1	2	0.221306	-2.72959	-4.81866	-2.09681
 122	1	2	-0.631195	-2.49199	-3.57392	-1.49712
 123	1	3	0.289556	-3.31779	-3.00849	-1.08048
 124	1	2	0.263167	-1.19381	-3.05682	-1.41569
 125	1	2	-0.339066	-0.132313	-3.7821	-1.9777
 126	1	3	0.163087	0.876466	-3.38544	-1.93019
 127	1	2	0.033139	-0.348979	-5.02216	-2.59606
 128	1	1	-0.070169	0.846457	-5.76042	-3.18512
 129	1	2	-0.051663	-1.6528	-5.55879	-2.6266
 130	1	4	-0.031436	-1.877	-6.80757	-3.15023
 131	1	5	0.081364	1.39151	-6.29966	-2.40129
 132	1	5	-0.00525	1.54498	-5.05873	-3.65834
 133	1	5	-0.006128	0.55249	-6.48678	-3.95236
 134	1	5	0.002513	-4.89226	-4.57303	-1.93503
 135	1	5	0.147318	-4.27993	-6.15716	-1.41242
 136	1	5	0.144731	-4.3764	-5.76099	-3.13831
 137	1	1	-0.211274	0.849273	-0.102568	-2.15308
 138	1	2	0.221306	1.12317	-0.684783	-0.778368
 139	1	2	-0.631195	2.34023	-0.389013	-0.144841
 140	1	3	0.289556	3.04706	0.282927	-0.618098
 141	1	2	0.263167	2.6662	-0.964081	1.08914
 142	1	2	-0.339066	1.74541	-1.84162	1.68744
 143	1	3	0.163087	1.97548	-2.30915	2.63749
 144	1	2	0.033139	0.51067	-2.12711	1.09039
 145	1	1	-0.070169	-0.433517	-3.06977	1.82646
 146	1	2	-0.051663	0.19749	-1.55012	-0.15856
 147	1	4	-0.031436	-0.984428	-1.85448	-0.789975
 148	1	5	0.081364	-0.13216	-4.11335	1.67356
 149	1	5	-0.00525	-1.47418	-2.96529	1.49854
 150	1	5	-0.006128	-0.416527	-2.87389	2.90675
 151	1	5	0.002513	1.60469	0.63439	-2.45074
 152	1	5	0.147318	-0.126727	0.389829	-2.17709
 153	1	5	0.144731	0.836168	-0.899257	-2.90576
 154	1	1	-0.211274	2.65709	0.500647	4.10533
 155	1	2	0.221306	3.59872	-0.692858	4.09921
 156	1	2	-0.631195	3.79375	-1.39006	5.29835
 157	1	3	0.289556	3.27781	-1.07869	6.20149
 158	1	2	0.263167	4.6041	-2.52773	5.33545
 159	1	2	-0.339066	5.30734	-2.91318	4.18628
 160	1	3	0.163087	5.95252	-3.78591	4.22915
 161	1	2	0.033139	5.1304	-2.23035	2.97311
 162	1	1	-0.070169	5.86368	-2.71521	1.72886
 163	1	2	-0.051663	4.22558	-1.1503	2.91723
 164	1	4	-0.031436	3.86242	-0.64166	1.69318
 165	1	5	0.081364	6.55882	-3.53109	1.96285
 166	1	5	-0.00525	6.45078	-1.90412	1.27963
 167	1	5	-0.006128	5.16085	-3.08501	0.972223
 168	1	5	0.002513	2.07026	0.551971	5.03102
 169	1	5	0.147318	1.94379	0.462239	3.27493
 170	1	5	0.144731	3.22614	1.43196	4.01569
 171	1	1	-0.211274	2.39629	-4.55153	4.86483
 172	1	2	0.221306	3.47662	-5.31745	5.61148
 173	1	2	-0.631195	3.4374	-6.71494	5.52562
 174	1	3	0.289556	2.67176	-7.19609	4.9263
 175	1	2	0.263167	4.35616	-7.50465	6.22107
 176	1	2	-0.339066	5.34016	-6.88348	7.00308
 177	1	3	0.163087	6.06946	-7.49139	7.52906
 178	1	2	0.033139	5.42482	-5.48217	7.07536
 179	1	1	-0.070169	6.56516	-4.84154	7.85598
 180	1	2	-0.051663	4.48877	-4.68833	6.38058
 181	1	4	-0.031436	4.60155	-3.31628	6.45379
 182	1	5	0.081364	6.20397	-4.02816	8.49339
 183	1	5	-0.00525	7.30994	-4.41932	7.16987
 184	1	5	-0.006128	7.07854	-5.56458	8.50148
 185	1	5	0.002513	1.53861	-5.18795	4.61317
 186	1	5	0.147318	2.79657	-4.15137	3.92702
 187	1	5	0.144731	2.01916	-3.7148	5.46327
 188	1	1	-0.211274	2.0156	-9.22912	7.96881
 189	1	2	0.221306	3.35256	-9.94901	8.05801
 190	1	2	-0.631195	3.50724	-10.8751	9.09833
 191	1	3	0.289556	2.69767	-11.0344	9.80217
 192	1	2	0.263167	4.70442	-11.5874	9.2528
 193	1	2	-0.339066	5.7417	-11.3912	8.33506
 194	1	3	0.163087	6.66688	-11.9456	8.45706
 195	1	2	0.033139	5.60865	-10.4765	7.27789
 196	1	1	-0.070169	6.75955	-10.305	6.29273
 197	1	2	-0.051663	4.41308	-9.73834	7.14557
 198	1	4	-0.031436	4.27364	-8.86702	6.09442
 199	1	5	0.081364	6.44534	-10.5737	5.277
 200	1	5	-0.00525	7.61612	-10.94	6.5522
 201	1	5	-0.006128	7.11615	-9.26805	6.27147
 202	1	5	0.002513	1.20259	-9.93798	7.76995
 203	1	5	0.147318	1.98859	-8.47018	7.18101
 204	1	5	0.144731	1.79566	-8.72087	8.91422
 205	1	1	-0.211274	3.26439	-14.5853	11.4496
 206	1	2	0.221306	3.59904	-13.2837	12.1594
 207	1	2	-0.631195	3.11643	-13.1184	13.465
 208	1	3	0.289556	2.54098	-13.9094	13.9327
 209	1	2	0.263167	3.38295	-11.9507	14.1856
 210	1	2	-0.339066	4.14053	-10.9371	13.5819
 211	1	3	0.163087	4.36661	-10.0346	14.1399
 212	1	2	0.033139	4.65532	-11.0853	12.2845
 213	1	1	-0.070169	5.53641	-9.97146	11.726
 214	1	2	-0.051663	4.37427	-12.2669	11.5582
 215	1	4	-0.031436	4.88745	-12.4598	10.2952
 216	1	5	0.081364	5.02504	-9.42454	10.9249
 217	1	5	-0.00525	6.47294	-10.3736	11.3196
 218	1	5	-0.006128	5.80457	-9.23908	12.4974
 219	1	5	0.002513	2.21751	-14.8683	11.6188
 220	1	5	0.147318	3.89803	-15.3954	11.8277
 221	1	5	0.144731	3.41158	-14.52	10.366
 222	1	1	-0.211274	0.218538	-10.9767	14.8293
 223	1	2	0.221306	1.19966	-10.1316	15.6212
 224	1	2	-0.631195	0.811862	-8.84508	16.0137
 225	1	3	0.289556	-0.165001	-8.46516	15.7351
 226	1	2	0.263167	1.68273	-8.03889	16.7561
 227	1	2	-0.339066	2.93173	-8.53789	17.1364
 228	1	3	0.163087	3.59747	-7.90991	17.7209
 229	1	2	0.033139	3.35182	-9.81516	16.7375
 230	1	1	-0.070169	4.75023	-10.2661	17.1451
 231	1	2	-0.051663	2.48533	-10.6098	15.9535
 232	1	4	-0.031436	2.89829	-11.823	15.4637
 233	1	5	0.081364	4.78642	-10.4787	18.2204
 234	1	5	-0.00525	5.48573	-9.47754	16.9396
 235	1	5	-0.006128	5.08415	-11.1661	16.6162
 236	1	5	0.002513	-0.780764	-10.5252	14.7983
 237	1	5	0.147318	0.115499	-11.9687	15.283
 238	1	5	0.144731	0.564261	-11.1076	13.7979
 239	1	1	-0.211274	2.33978	-6.46228	14.2588
 240	1	2	0.221306	1.20871	-5.66321	14.8918
 241	1	2	-0.631195	0.611943	-4.67313	14.102
 242	1	3	0.289556	0.944248	-4.5453	13.0757
 243	1	2	0.263167	-0.382408	-3.82721	14.6168
 244	1	2	-0.339066	-0.81478	-4.01718	15.9325
 245	1	3	0.163087	-1.58639	-3.36716	16.3323
 246	1	2	0.033139	-0.246701	-5.01331	16.7443
 247	1	1	-0.070169	-0.752382	-5.17136	18.1741
 248	1	2	-0.051663	0.773893	-5.8419	16.2292
 249	1	4	-0.031436	1.36137	-6.75107	17.0802
 250	1	5	0.081364	-1.18305	-4.23596	18.551
 251	1	5	-0.00525	0.0492109	-5.45436	18.8678
 252	1	5	-0.006128	-1.52997	-5.94357	18.225
 253	1	5	0.002513	2.71687	-5.98998	13.3429
 254	1	5	0.147318	2.00248	-7.47083	13.9941
 255	1	5	0.144731	3.18829	-6.55835	14.9452
 256	1	1	-0.211274	1.47457	-1.16744	14.3442
 257	1	2	0.221306	0.976682	-1.56889	12.9675
 258	1	2	-0.631195	1.76144	-1.24966	11.855
 259	1	3	0.289556	2.69858	-0.720544	11.9981
 260	1	2	0.263167	1.37522	-1.64964	10.5672
 261	1	2	-0.339066	0.152122	-2.30602	10.3922
 262	1	3	0.163087	-0.146465	-2.61143	9.39436
 263	1	2	0.033139	-0.66001	-2.61944	11.4945
 264	1	1	-0.070169	-1.9731	-3.35489	11.2832
 265	1	2	-0.051663	-0.222987	-2.28931	12.7915
 266	1	4	-0.031436	-0.89736	-2.78682	13.8796
 267	1	5	0.081364	-2.11538	-3.62321	10.2314
 268	1	5	-0.00525	-2.82452	-2.7325	11.5826
 269	1	5	-0.006128	-2.00878	-4.27459	11.8782
 270	1	5	0.002513	2.33994	-0.494991	14.2891
 271	1	5	0.147318	1.77392	-2.05162	14.9187
 272	1	5	0.144731	0.685761	-0.648853	14.9002
 273	1	1	-0.211274	4.02841	-3.55223	10.5754
 274	1	2	0.221306	4.44737	-2.16792	10.1135
 275	1	2	-0.631195	5.81314	-1.87032	10.1706
 276	1	3	0.289556	6.51402	-2.60651	10.5482
 277	1	2	0.263167	6.30414	-0.653176	9.69572
 278	1	2	-0.339066	5.40235	0.309128	9.21522
 279	1	3	0.163087	5.77648	1.26678	8.8675
 280	1	2	0.033139	4.0245	0.0416959	9.16148
 281	1	1	-0.070169	3.06646	1.11745	8.66294
 282	1	2	-0.051663	3.54395	-1.21271	9.58866
 283	1	4	-0.031436	2.19815	-1.47485	9.48534
 284	1	5	0.081364	2.37981	1.42058	9.46387
 285	1	5	-0.00525	2.46189	0.755299	7.82231
 286	1	5	-0.006128	3.59801	2.01678	8.32758
 287	1	5	0.002513	4.76189	-3.98933	11.2642
 288	1	5	0.147318	3.95641	-4.21453	9.71046
 289	1	5	0.144731	3.06554	-3.55018	11.0946
 290	1	1	-0.211274	9.11842	1.75866	10.7658
 291	1	2	0.221306	9.01356	1.48582	9.2755
 292	1	2	-0.631195	9.62768	2.36233	8.36745
 293	1	3	0.289556	10.1673	3.23371	8.72035
 294	1	2	0.263167	9.54217	2.13281	6.9877
 295	1	2	-0.339066	8.86965	0.991926	6.52505
 296	1	3	0.163087	8.82245	0.787303	5.46048
 297	1	2	0.033139	8.2583	0.0980794	7.41506
 298	1	1	-0.070169	7.5654	-1.13242	6.84386
 299	1	2	-0.051663	8.30177	0.366798	8.8009
 300	1	4	-0.031436	7.66007	-0.447461	9.70165
 301	1	5	0.081364	6.49782	-0.936339	6.69266
 302	1	5	-0.00525	7.66426	-1.99744	7.50979
 303	1	5	-0.006128	7.9935	-1.42153	5.87554
 304	1	5	0.002513	8.12772	1.92298	11.2084
 305	1	5	0.147318	9.73294	2.63983	10.9758
 306	1	5	0.144731	9.57735	0.903244	11.2757
 307	1	1	-0.211274	7.76575	4.62716	5.57656
 308	1	2	0.221306	8.56723	3.92588	4.49386
 309	1	2	-0.631195	8.13137	4.0214	3.16276
 310	1	3	0.289556	7.26714	4.62856	2.91518
 311	1	2	0.263167	8.81017	3.33698	2.14251
 312	1	2	-0.339066	9.93679	2.57487	2.46291
 313	1	3	0.163087	10.4555	2.04165	1.6727
 314	1	2	0.033139	10.4017	2.48007	3.78293
 315	1	1	-0.070169	11.6109	1.59509	4.05745
 316	1	2	-0.051663	9.70656	3.15394	4.80977
 317	1	4	-0.031436	10.1109	3.03025	6.11851
 318	1	5	0.081364	11.3129	0.539629	4.08153
 319	1	5	-0.00525	12.0987	1.8285	5.01108
 320	1	5	-0.006128	12.3658	1.70939	3.26931
 321	1	5	0.002513	8.41227	5.22274	6.23296
 322	1	5	0.147318	7.24203	3.88811	6.19496
 323	1	5	0.144731	7.01479	5.3007	5.15055
 324	1	1	-0.211274	5.8201	2.04511	1.22993
 325	1	2	0.221306	5.99826	3.37414	0.518779
 326	1	2	-0.631195	4.86496	3.99834	-0.0195171
 327	1	3	0.289556	3.89123	3.53275	0.0935271
 328	1	2	0.263167	4.98039	5.21387	-0.709334
 329	1	2	-0.339066	6.2371	5.81643	-0.829682
 330	1	3	0.163087	6.32234	6.76259	-1.35497
 331	1	2	0.033139	7.38285	5.21712	-0.286477
 332	1	1	-0.070169	8.73101	5.91253	-0.426789
 333	1	2	-0.051663	7.26546	3.97985	0.376473
 334	1	4	-0.031436	8.3975	3.35561	0.834883
 335	1	5	0.081364	9.38408	5.36319	-1.11523
 336	1	5	-0.00525	9.24196	5.98104	0.542019
 337	1	5	-0.006128	8.62273	6.9349	-0.81035
 338	1	5	0.002513	4.7603	1.82116	1.3977
 339	1	5	0.147318	6.31066	2.04972	2.20989
 340	1	5	0.144731	6.252	1.22892	0.639809
 341	1	1	-0.211274	3.20329	3.48917	-2.92824
 342	1	2	0.221306	2.2169	4.30164	-2.10486
 343	1	2	-0.631195	0.869361	3.91458	-2.14049
 344	1	3	0.289556	0.57474	3.06691	-2.74861
 345	1	2	0.263167	-0.0939239	4.59687	-1.38026
 346	1	2	-0.339066	0.312556	5.65323	-0.558164
 347	1	3	0.163087	-0.425376	6.16509	0.0512384
 348	1	2	0.033139	1.6583	6.04617	-0.488927
 349	1	1	-0.070169	2.05338	7.13441	0.504647
 350	1	2	-0.051663	2.6138	5.38471	-1.28738
 351	1	4	-0.031436	3.90903	5.84059	-1.28873
 352	1	5	0.081364	2.97272	7.65819	0.217273
 353	1	5	-0.00525	2.22114	6.6944	1.49618
 354	1	5	-0.006128	1.26557	7.89057	0.606741
 355	1	5	0.002513	3.45569	2.55536	-2.40964
 356	1	5	0.147318	4.13783	4.0297	-3.114
 357	1	5	0.144731	2.77871	3.22778	-3.90313
 358	1	1	-0.211274	-2.07162	4.47151	-4.21177
 359	1	2	0.221306	-2.24775	3.19083	-3.40952
 360	1	2	-0.631195	-2.7803	2.0505	-4.03596
 361	1	3	0.289556	-2.99311	2.08152	-5.10012
 362	1	2	0.263167	-3.09391	0.89732	-3.28766
 363	1	2	-0.339066	-2.79061	0.882666	-1.92285
 364	1	3	0.163087	-3.01943	-0.00775269	-1.34646
 365	1	2	0.033139	-2.20178	1.98704	-1.28955
 366	1	1	-0.070169	-1.86636	1.90303	0.192706
 367	1	2	-0.051663	-1.94047	3.15397	-2.0332
 368	1	4	-0.031436	-1.42571	4.25987	-1.40069
 369	1	5	0.081364	-2.30389	2.7439	0.744213
 370	1	5	-0.00525	-0.780338	1.92217	0.348018
 371	1	5	-0.006128	-2.24944	0.978035	0.641732
 372	1	5	0.002513	-2.22046	4.31632	-5.28735
 373	1	5	0.147318	-1.07129	4.89773	-4.07036
 374	1	5	0.144731	-2.79829	5.22303	-3.87948
 375	1	1	-0.211274	-5.88067	1.40589	-5.04486
 376	1	2	0.221306	-5.02116	0.385319	-5.77558
 377	1	2	-0.631195	-5.29356	0.166734	-7.13113
 378	1	3	0.289556	-5.97654	0.830041	-7.64984
 379	1	2	0.263167	-4.7449	-0.930312	-7.81007
 380	1	2	-0.339066	-3.93339	-1.82527	-7.10842
 381	1	3	0.163087	-3.57224	-2.71737	-7.61029
 382	1	2	0.033139	-3.58982	-1.58774	-5.76719
 383	1	1	-0.070169	-2.76988	-2.64648	-5.03939
 384	1	2	-0.051663	-4.08383	-0.437249	-5.11058
 385	1	4	-0.031436	-3.73311	-0.212731	-3.79971
 386	1	5	0.081364	-2.02967	-3.10634	-5.7045
 387	1	5	-0.00525	-3.42899	-3.44699	-4.67906
 388	1	5	-0.006128	-2.22733	-2.24416	-4.17677
 389	1	5	0.002513	-6.38757	2.08974	-5.73652
 390	1	5	0.147318	-5.3206	2.01465	-4.33216
 391	1	5	0.144731	-6.65506	0.87576	-4.47878
 392	1	1	-0.211274	-2.51746	-0.142112	-10.1691
 393	1	2	0.221306	-3.87556	0.460883	-10.4893
 394	1	2	-0.631195	-3.92818	1.61095	-11.2815
 395	1	3	0.289556	-3.01058	2.06054	-11.6452
 396	1	2	0.263167	-5.15309	2.19116	-11.6217
 397	1	2	-0.339066	-6.34623	1.60022	-11.182
 398	1	3	0.163087	-7.29956	2.03868	-11.4603
 399	1	2	0.033139	-6.31847	0.444375	-10.3831
 400	1	1	-0.070169	-7.63178	-0.178127	-9.92208
 401	1	2	-0.051663	-5.07385	-0.111275	-10.0153
 402	1	4	-0.031436	-5.01945	-1.15953	-9.1342
 403	1	5	0.081364	-7.5946	-0.478009	-8.86808
 404	1	5	-0.00525	-7.86338	-1.07257	-10.5133
 405	1	5	-0.006128	-8.47019	0.521148	-10.0315
 406	1	5	0.002513	-1.70058	0.389637	-10.6737
 407	1	5	0.147318	-2.4799	-1.18839	-10.4939
 408	1	5	0.144731	-2.32034	-0.112183	-9.09141
 409	1	1	-0.211274	-6.326	5.60515	-11.1291
 410	1	2	0.221306	-6.67697	5.14187	-12.5328
 411	1	2	-0.631195	-7.50257	5.94026	-13.3412
 412	1	3	0.289556	-7.86034	6.89432	-12.9753
 413	1	2	0.263167	-7.84279	5.51968	-14.6357
 414	1	2	-0.339066	-7.48005	4.2304	-15.0437
 415	1	3	0.163087	-7.81161	3.87152	-16.0125
 416	1	2	0.033139	-6.62379	3.4322	-14.2712
 417	1	1	-0.070169	-6.19989	2.08147	-14.8377
 418	1	2	-0.051663	-6.1689	3.92479	-13.0302
 419	1	4	-0.031436	-5.12003	3.32974	-12.3762
 420	1	5	0.081364	-5.65671	1.46296	-14.1161
 421	1	5	-0.00525	-5.55752	2.20937	-15.717
 422	1	5	-0.006128	-7.08069	1.50505	-15.1487
 423	1	5	0.002513	-6.97347	6.42187	-10.7874
 424	1	5	0.147318	-5.28573	5.94331	-11.0825
 425	1	5	0.144731	-6.44271	4.7776	-10.4173
 426	1	1	-0.211274	-10.3256	8.53368	-15.1695
 427	1	2	0.221306	-9.09876	8.56398	-16.0654
 428	1	2	-0.631195	-8.84008	9.72342	-16.8185
 429	1	3	0.289556	-9.54867	10.5423	-16.8227
 430	1	2	0.263167	-7.66084	9.8419	-17.5663
 431	1	2	-0.339066	-6.77744	8.75832	-17.5978
 432	1	3	0.163087	-5.86988	8.84082	-18.1844
 433	1	2	0.033139	-7.05568	7.55521	-16.9238
 434	1	1	-0.070169	-6.07983	6.40885	-17.1572
 435	1	2	-0.051663	-8.21995	7.45859	-16.1165
 436	1	4	-0.031436	-8.60896	6.29614	-15.4707
 437	1	5	0.081364	-5.61188	6.49768	-18.1453
 438	1	5	-0.00525	-6.57141	5.43385	-17.1512
 439	1	5	-0.006128	-5.27629	6.41003	-16.4108
 440	1	5	0.002513	-11.0536	7.78667	-15.5079
 441	1	5	0.147318	-10.826	9.50663	-15.1351
 442	1	5	0.144731	-10.0346	8.2803	-14.143
 443	1	1	-0.211274	-7.36455	12.6814	-15.8926
 444	1	2	0.221306	-6.14491	12.4889	-16.7738
 445	1	2	-0.631195	-4.95217	13.1498	-16.4287
 446	1	3	0.289556	-4.87375	13.6706	-15.4822
 447	1	2	0.263167	-3.8592	13.1507	-17.3053
 448	1	2	-0.339066	-3.98557	12.4771	-18.5319
 449	1	3	0.163087	-3.15291	12.4988	-19.2278
 450	1	2	0.033139	-5.15366	11.7681	-18.8769
 451	1	1	-0.070169	-5.23602	11.0661	-20.2312
 452	1	2	-0.051663	-6.23331	11.7389	-17.968
 453	1	4	-0.031436	-7.37057	11.0059	-18.2448
 454	1	5	0.081364	-5.28386	9.97727	-20.1189
 455	1	5	-0.00525	-4.36516	11.2904	-20.8611
 456	1	5	-0.006128	-6.12696	11.3824	-20.7888
 457	1	5	0.002513	-7.16662	13.3525	-15.05
 458	1	5	0.147318	-7.72186	11.7292	-15.4895
 459	1	5	0.144731	-8.16984	13.1288	-16.4888
 460	1	1	-0.211274	-1.58364	13.1846	-14.3162
 461	1	2	0.221306	-1.64552	14.5581	-14.9578
 462	1	2	-0.631195	-0.956735	15.5962	-14.3075
 463	1	3	0.289556	-0.384474	15.3892	-13.4104
 464	1	2	0.263167	-0.936053	16.8956	-14.8262
 465	1	2	-0.339066	-1.69668	17.1601	-15.9764
 466	1	3	0.163087	-1.71774	18.1661	-16.3819
 467	1	2	0.033139	-2.37554	16.1294	-16.6608
 468	1	1	-0.070169	-3.11009	16.492	-17.9444
 469	1	2	-0.051663	-2.32217	14.7991	-16.1767
 470	1	4	-0.031436	-2.64366	13.7329	-17.0034
 471	1	5	0.081364	-3.09494	15.6771	-18.6767
 472	1	5	-0.00525	-2.65695	17.3691	-18.4241
 473	1	5	-0.006128	-4.15804	16.7373	-17.7307
 474	1	5	0.002513	-2.34485	12.4994	-14.7078
 475	1	5	0.147318	-1.75495	13.2714	-13.237
 476	1	5	0.144731	-0.598213	12.7321	-14.4669
 477	1	1	-0.211274	-2.26198	19.8486	-13.7911
 478	1	2	0.221306	-0.924351	20.1258	-14.4499
 479	1	2	-0.631195	-0.726559	21.4164	-14.9485
 480	1	3	0.289556	-1.52162	22.1514	-14.9065
 481	1	2	0.263167	0.462531	21.7609	-15.5881
 482	1	2	-0.339066	1.50353	20.8274	-15.652
 483	1	3	0.163087	2.44959	21.1135	-16.1016
 484	1	2	0.033139	1.30858	19.5057	-15.2144
 485	1	1	-0.070169	2.421	18.4978	-15.4847
 486	1	2	-0.051663	0.0708958	19.1364	-14.6276
 487	1	4	-0.031436	-0.143297	17.8412	-14.202
 488	1	5	0.081364	2.01551	17.5564	-15.8736
 489	1	5	-0.00525	3.00841	18.2797	-14.5848
 490	1	5	-0.006128	3.11612	18.8793	-16.2453
 491	1	5	0.002513	-2.22625	18.9987	-13.1003
 492	1	5	0.147318	-3.02235	19.6451	-14.5537
 493	1	5	0.144731	-2.58628	20.7232	-13.2156
 494	1	1	-0.211274	2.5321	24.9628	-16.5408
 495	1	2	0.221306	2.0637	24.0809	-17.6786
 496	1	2	-0.631195	2.61409	24.2763	-18.9466
 497	1	3	0.289556	3.41279	24.9926	-19.091
 498	1	2	0.263167	2.08968	23.6096	-20.0575
 499	1	2	-0.339066	1.01649	22.7239	-19.8792
 500	1	3	0.163087	0.574597	22.2405	-20.7464
 501	1	2	0.033139	0.470188	22.4845	-18.6092
 502	1	1	-0.070169	-0.761043	21.5793	-18.5284
 503	1	2	-0.051663	1.02223	23.1473	-17.4812
 504	1	4	-0.031436	0.539485	22.9823	-16.2035
 505	1	5	0.081364	-0.499103	20.5354	-18.7445
 506	1	5	-0.00525	-1.51513	21.8925	-19.2627
 507	1	5	-0.006128	-1.26276	21.6041	-17.5548
 508	1	5	0.002513	1.73655	25.6721	-16.2719
 509	1	5	0.147318	3.41683	25.5479	-16.8169
 510	1	5	0.144731	2.77536	24.3719	-15.649
 511	1	1	-0.211274	5.47781	23.6232	-21.4625
 512	1	2	0.221306	4.68785	24.8576	-21.8528
 513	1	2	-0.631195	5.40782	25.9553	-22.3372
 514	1	3	0.289556	6.48296	25.893	-22.4775
 515	1	2	0.263167	4.75597	27.1483	-22.6804
 516	1	2	-0.339066	3.37893	27.2616	-22.4489
 517	1	3	0.163087	2.88858	28.2064	-22.6727
 518	1	2	0.033139	2.63552	26.1848	-21.9438
 519	1	1	-0.070169	1.16072	26.4171	-21.6421
 520	1	2	-0.051663	3.28424	24.9489	-21.6899
 521	1	4	-0.031436	2.56134	23.8441	-21.3245
 522	1	5	0.081364	0.611256	25.4933	-21.4591
 523	1	5	-0.00525	0.666348	26.9377	-22.4704
 524	1	5	-0.006128	1.05688	27.0458	-20.7498
 525	1	5	0.002513	6.10072	23.2739	-22.292
 526	1	5	0.147318	4.83999	22.7972	-21.1496
 527	1	5	0.144731	6.14037	23.8603	-20.6238
 528	1	6	0	-3.05529	-8.58981	2.56586
 529	1	3	0	5.32014	27.9921	-23.0915

Velocities

   1	-0.00237694	0.000143468	-0.00171355
   2	-0.000310005	0.000435634	-0.000132377
   3	0.00115862	0.0001403	-0.000394061
   4	-0.00192058	0.00214548	0.000625209
   5	0.000737642	0.000408212	-0.00126739
   6	0.000541039	0.000300499	-0.00346667
   7	0.000805935	-0.000951855	-0.00780792
   8	0.00131858	-0.000667034	-0.00164617
   9	0.00172563	-0.00321342	-0.0023523
  10	-0.00164861	0.00119211	-0.00072496
  11	-0.00193916	-0.000999597	0.00102906
  12	-0.000321777	-0.00467202	-0.000208625
  13	-0.00217184	-0.00383654	-0.00545363
  14	0.00254979	-0.0100694	-0.0115465
  15	-0.00229177	-0.00346908	0.00163402
  16	-0.00552555	0.00188618	-0.00339033
  17	-0.00419368	-0.00217221	-0.00217288
  18	-0.00144625	0.00234748	0.00120396
  19	0.000205254	0.00216238	-0.00142939
  20	-0.000670206	0.00235353	0.000209378
  21	-0.0011771	0.00178508	-0.00141334
  22	0.001138	0.00107699	0.000273139
  23	0.000178215	0.000498609	-0.00369667
  24	-3.85458e-05	0.00623632	-0.001476
  25	0.00109076	0.00166197	-0.00228983
  26	0.00334063	0.000551787	-0.000608179
  27	0.000363694	0.003687	-0.00206077
  28	-0.000424155	0.00314553	-0.00173403
  29	0.000147716	-0.00401372	-0.00463569
  30	0.00187908	3.68669e-05	0.00105707
  31	-0.000112928	0.00983762	-0.00192565
  32	-0.00435557	-0.00412226	0.00618006
  33	-0.00265965	0.00115313	0.00146974
  34	-0.00775697	0.0018214	1.02513e-06
  35	-0.000180531	0.00109602	0.000817165
  36	0.000287331	0.00114006	-0.00146043
  37	-0.000742118	0.000463055	-0.00261101
  38	-0.00329152	0.00334115	-0.00731224
  39	-0.000401988	0.00172291	-0.0025043
  40	2.0168e-05	0.00143734	-0.000260831
  41	0.00185558	-0.00092211	0.00479301
  42	-0.000971142	0.00151726	-0.00147084
  43	-0.000642654	0.0027703	-0.00016455
  44	0.00104183	0.000516576	-0.000932854
  45	0.00121302	-0.000903904	-0.000960625
  46	0.000296272	0.00338712	-0.00256461
  47	-0.00139835	0.00213885	0.00530471
  48	0.00309442	0.00492763	-0.0038934
  49	-8.87179e-05	0.000224467	0.000108233
  50	0.00111394	0.000829514	0.00409036
  51	-0.000558604	0.000414093	0.00167218
  52	-0.00104696	-0.00218024	-0.000759742
  53	0.00178685	-0.00280684	-0.00139359
  54	0.00190881	-0.00235589	-0.00275947
  55	0.00338123	-0.00118789	-0.00228132
  56	0.0021956	-0.00272343	-0.00101271
  57	0.00217294	-0.00399735	0.000311888
  58	-0.000901659	-0.00305876	0.00163524
  59	0.000468634	-0.00283171	7.54406e-05
  60	0.00577974	-0.00276241	-0.00122435
  61	0.00118425	-0.00150052	0.000726541
  62	0.00071353	-0.000369354	-0.000563382
  63	0.00468787	-0.00534762	-0.00518763
  64	0.00175315	-0.00387386	-0.00213001
  65	0.010968	-0.00321935	0.00194612
  66	-0.00235909	-0.00393364	-0.00118106
  67	0.00337865	-0.00292861	0.00363889
  68	0.00214533	-0.00399983	-0.00993042
  69	0.00398608	-0.000861324	0.000247864
  70	0.00081683	-0.00146881	-0.000605451
  71	0.00170327	-0.0010481	-0.00143906
  72	0.00537416	-0.00216724	0.00204968
  73	0.000982179	0.00126081	0.000500119
  74	-5.87905e-05	0.00128675	0.00268525
  75	0.00230709	-0.00222206	0.00060364
  76	0.000531714	-8.13967e-05	0.00131613
  77	0.0028606	0.000427517	0.000835291
  78	-0.000731068	-0.000198711	0.000987412
  79	0.00302302	-0.000685219	-0.0014945
  80	0.00574863	0.000279599	0.0020448
  81	0.00829393	-0.0058618	0.000635443
  82	0.00321275	0.000411548	0.00129823
  83	0.00525699	-0.00115952	0.00112726
  84	0.00559714	0.00182303	0.0015218
  85	0.00407189	-0.00146116	0.00239437
  86	0.00141318	0.0016882	0.00237051
  87	0.00133869	0.000142107	0.00114125
  88	0.000430318	0.00251639	0.00387397
  89	-0.000313808	0.00136288	0.00554559
  90	-0.00144253	0.00249041	0.000286384
  91	-2.61743e-05	0.00191251	0.00100079
  92	0.00113405	0.00407431	0.00240271
  93	0.00111576	0.00109395	0.000840533
  94	-0.00145892	-0.00160753	-0.000642508
  95	0.000577177	-0.00040163	0.000254805
  96	-1.08813e-05	-0.00279085	-0.00040472
  97	-0.000677872	-0.00374822	-0.000948598
  98	-0.00382998	-0.00121958	-0.00336373
  99	-0.00154287	-0.000348016	0.00128321
 100	-0.00199925	-0.000777951	-0.00102259
 101	0.00559599	0.00514655	0.00823312
 102	0.00470725	-0.0004217	0.00153611
 103	0.000741143	0.00279589	-0.00303822
 104	0.00174178	0.000554973	-0.00172608
 105	0.00290198	-0.00122025	-0.0032467
 106	0.000356917	-0.00260655	-0.0033521
 107	-0.000505884	0.000175164	0.000387977
 108	-0.000385998	-0.000587297	0.00117893
 109	-0.00163513	-0.00190684	0.00522736
 110	-0.000517502	-0.00126505	0.000484613
 111	0.00386181	-0.00236074	0.00097398
 112	-0.000675359	0.00174399	0.00100642
 113	-0.000530017	0.00312877	0.00238221
 114	0.00371685	-0.00480078	0.002348
 115	0.0114507	-0.00356039	0.00403606
 116	0.00598482	-0.00649817	-0.00152283
 117	0.00634139	0.00449278	-0.00383772
 118	-0.00173535	0.00089769	-0.000616047
 119	0.00566766	0.0061936	0.00294293
 120	-1.97612e-05	0.00287038	0.00333975
 121	0.000610779	0.00248787	0.000769603
 122	0.00312223	0.00218498	-0.000798552
 123	0.00584288	0.00402965	0.00469343
 124	0.00194358	-0.000492633	-0.00312644
 125	0.00268481	0.000339527	-0.000267194
 126	0.00142644	3.17778e-05	0.00791598
 127	-0.000950118	0.00160341	-0.00163398
 128	-0.00272448	0.00495466	-0.00237691
 129	-0.00178164	0.000884167	-0.00120063
 130	0.000344609	-0.000162044	-0.000172895
 131	0.00714891	0.017802	-0.00476795
 132	-0.00762542	0.00579139	-0.00910607
 133	-0.00624552	0.000879124	-0.00455877
 134	0.00430783	0.00256727	0.0135406
 135	0.00489015	0.00180136	-0.00582587
 136	-0.00593094	0.00937903	0.0102147
 137	0.00361652	-0.00056143	8.32848e-05
 138	0.000378168	0.00110336	0.00115286
 139	-0.00143417	-0.00213227	0.000272738