pySIMM System Object

665 atoms
703 bonds
1209 angles
1558 dihedrals
156 impropers

6 atom types
6 bond types
8 angle types
3 dihedral types
2 improper types

-123.768388 123.768388 xlo xhi
-123.768388 123.768388 ylo yhi
-123.768388 123.768388 zlo zhi

Masses

   1	12.01	# c3
   2	12.01	# ca
   3	1.008	# ha
   4	16.0	# oh
   5	1.008	# hc
   6	1.008	# ho

Pair Coeffs

   1	0.1094	3.3996695084235347	# c3
   2	0.086	3.3996695084235347	# ca
   3	0.015	2.59964245953351	# ha
   4	0.2104	3.0664733878390478	# oh
   5	0.0157	2.649532787749369	# hc
   6	0.0047	0.5379246460131368	# ho

Bond Coeffs

   1	371.4	0.973	# ho,oh
   2	461.1	1.3984	# ca,ca
   3	384.0	1.3637	# ca,oh
   4	345.8	1.086	# ca,ha
   5	321.0	1.5156	# c3,ca
   6	330.6	1.0969	# c3,hc

Angle Coeffs

   1	46.8	110.47	# ca,c3,hc
   2	49.0	108.58	# ca,oh,ho
   3	69.52	119.9	# ca,ca,oh
   4	66.62	120.02	# ca,ca,ca
   5	39.4	107.58	# hc,c3,hc
   6	48.18	119.88	# ca,ca,ha
   7	63.53	120.77	# c3,ca,ca
   8	63.5	119.89	# ca,oh,ca

Dihedral Coeffs

   1	1	3.625	2	180	# X,ca,ca,X
   2	1	0.9	2	180	# X,ca,oh,X
   3	1	0.0	2	0	# X,c3,ca,X

Improper Coeffs

   1	1.1	-1	2	# ca,X,X,ha
   2	1.1	-1	2	# ca,ca,ca,c3

Atoms

   1	1	1	-0.211274	-4.49718	-15.6984	4.04747
   2	1	2	0.221306	-4.52266	-14.1857	4.02828
   3	1	2	-0.631195	-4.12487	-13.5034	5.18936
   4	1	3	0.289556	-3.87955	-14.0716	6.0855
   5	1	2	0.263167	-4.13127	-12.0997	5.23648
   6	1	2	-0.339066	-4.48052	-11.3893	4.08445
   7	1	3	0.163087	-4.51264	-10.3001	4.10757
   8	1	2	0.033139	-4.88987	-12.0525	2.92059
   9	1	1	-0.070169	-5.30664	-11.2105	1.73636
  10	1	2	-0.051663	-4.98658	-13.4579	2.91287
  11	1	4	-0.031436	-5.67002	-14.0857	1.91335
  12	1	5	0.081364	-5.0587	-11.6968	0.785494
  13	1	5	-0.00525	-4.79841	-10.2403	1.74713
  14	1	5	-0.006128	-6.38551	-11.0276	1.76603
  15	1	5	0.002513	-4.29364	-16.0741	5.05534
  16	1	5	0.147318	-3.7161	-16.0874	3.37873
  17	1	5	0.144731	-5.45901	-16.1067	3.72036
  18	1	1	-0.211274	-6.17942	-11.9717	8.01596
  19	1	2	0.221306	-4.75495	-12.2314	8.46405
  20	1	2	-0.631195	-4.53898	-12.8178	9.71962
  21	1	3	0.289556	-5.38081	-13.0997	10.3362
  22	1	2	0.263167	-3.24011	-13.0902	10.1675
  23	1	2	-0.339066	-2.1519	-12.7593	9.35856
  24	1	3	0.163087	-1.15429	-12.994	9.70439
  25	1	2	0.033139	-2.3458	-12.2059	8.08282
  26	1	1	-0.070169	-1.13585	-11.9831	7.19637
  27	1	2	-0.051663	-3.65546	-11.9466	7.62561
  28	1	4	-0.031436	-3.85268	-11.3884	6.38393
  29	1	5	0.081364	-1.36703	-12.231	6.15657
  30	1	5	-0.00525	-0.306876	-12.6355	7.49386
  31	1	5	-0.006128	-0.792042	-10.9424	7.23936
  32	1	5	0.002513	-6.91521	-12.3438	8.74015
  33	1	5	0.147318	-6.37254	-12.4694	7.05928
  34	1	5	0.144731	-6.35035	-10.898	7.8819
  35	1	1	-0.211274	-4.64652	-13.887	13.7255
  36	1	2	0.221306	-4.55263	-15.0224	12.7226
  37	1	2	-0.631195	-5.35962	-16.157	12.9029
  38	1	3	0.289556	-6.02427	-16.2207	13.7579
  39	1	2	0.263167	-5.3339	-17.2025	11.974
  40	1	2	-0.339066	-4.45144	-17.1195	10.8851
  41	1	3	0.163087	-4.42228	-17.9104	10.1481
  42	1	2	0.033139	-3.61549	-16.0163	10.6997
  43	1	1	-0.070169	-2.66538	-16.0359	9.50706
  44	1	2	-0.051663	-3.70198	-14.9347	11.6012
  45	1	4	-0.031436	-3.02665	-13.7679	11.3445
  46	1	5	0.081364	-2.43802	-17.062	9.19693
  47	1	5	-0.00525	-1.70754	-15.5585	9.74496
  48	1	5	-0.006128	-3.1045	-15.5208	8.64377
  49	1	5	0.002513	-5.42822	-14.0588	14.4761
  50	1	5	0.147318	-4.86528	-12.9388	13.2216
  51	1	5	0.144731	-3.69408	-13.7731	14.2529
  52	1	1	-0.211274	-7.89285	-17.4895	9.90575
  53	1	2	0.221306	-7.10623	-18.7884	9.94283
  54	1	2	-0.631195	-7.05519	-19.5786	8.78603
  55	1	3	0.289556	-7.609	-19.2813	7.90054
  56	1	2	0.263167	-6.2796	-20.745	8.7575
  57	1	2	-0.339066	-5.58051	-21.1371	9.90452
  58	1	3	0.163087	-4.98654	-22.045	9.87716
  59	1	2	0.033139	-5.59831	-20.35	11.0664
  60	1	1	-0.070169	-4.72549	-20.7408	12.2529
  61	1	2	-0.051663	-6.35479	-19.161	11.0795
  62	1	4	-0.031436	-6.18952	-18.2703	12.1124
  63	1	5	0.081364	-3.93512	-19.9978	12.4199
  64	1	5	-0.00525	-4.23756	-21.7113	12.0975
  65	1	5	-0.006128	-5.31874	-20.8097	13.1728
  66	1	5	0.002513	-8.63766	-17.4828	9.10031
  67	1	5	0.147318	-7.21838	-16.6388	9.75194
  68	1	5	0.144731	-8.42503	-17.3292	10.8506
  69	1	1	-0.211274	-4.26122	-19.2385	6.97108
  70	1	2	0.221306	-5.14474	-19.9669	5.97154
  71	1	2	-0.631195	-5.02748	-19.5855	4.62604
  72	1	3	0.289556	-4.36318	-18.7719	4.35829
  73	1	2	0.263167	-5.75149	-20.2497	3.62459
  74	1	2	-0.339066	-6.62706	-21.2761	3.98859
  75	1	3	0.163087	-7.19328	-21.7851	3.21429
  76	1	2	0.033139	-6.78159	-21.6602	5.32895
  77	1	1	-0.070169	-7.75441	-22.7819	5.67287
  78	1	2	-0.051663	-6.03333	-21.0125	6.33306
  79	1	4	-0.031436	-6.14219	-21.4946	7.62028
  80	1	5	0.081364	-8.51764	-22.4315	6.37913
  81	1	5	-0.00525	-7.23203	-23.6302	6.13249
  82	1	5	-0.006128	-8.27678	-23.1566	4.78356
  83	1	5	0.002513	-3.36996	-18.8113	6.49343
  84	1	5	0.147318	-3.91475	-19.9137	7.75863
  85	1	5	0.144731	-4.81667	-18.4196	7.44316
  86	1	1	-0.211274	-2.68613	-20.2259	2.29249
  87	1	2	0.221306	-3.44768	-19.0593	1.6866
  88	1	2	-0.631195	-2.70873	-18.064	1.03395
  89	1	3	0.289556	-1.62916	-18.1505	0.969347
  90	1	2	0.263167	-3.34011	-16.9813	0.411328
  91	1	2	-0.339066	-4.7367	-16.8742	0.501113
  92	1	3	0.163087	-5.24514	-16.0421	0.0260229
  93	1	2	0.033139	-5.50099	-17.8577	1.14612
  94	1	1	-0.070169	-7.02017	-17.7393	1.13797
  95	1	2	-0.051663	-4.85622	-18.9579	1.74541
  96	1	4	-0.031436	-5.62724	-19.956	2.28975
  97	1	5	0.081364	-7.45732	-18.4487	0.423919
  98	1	5	-0.00525	-7.34673	-16.7329	0.8478
  99	1	5	-0.006128	-7.44594	-17.9493	2.12707
 100	1	5	0.002513	-1.738	-20.4049	1.76985
 101	1	5	0.147318	-3.2674	-21.1534	2.24543
 102	1	5	0.144731	-2.45206	-20.0191	3.34184
 103	1	1	-0.211274	-1.83508	-13.5822	0.910815
 104	1	2	0.221306	-2.72221	-13.6845	-0.31457
 105	1	2	-0.631195	-3.20425	-12.5039	-0.892905
 106	1	3	0.289556	-2.94581	-11.5502	-0.445332
 107	1	2	0.263167	-4.0163	-12.5394	-2.03876
 108	1	2	-0.339066	-4.31175	-13.7817	-2.6138
 109	1	3	0.163087	-4.91841	-13.8135	-3.51286
 110	1	2	0.033139	-3.82382	-14.9803	-2.06137
 111	1	1	-0.070169	-4.13615	-16.2972	-2.76606
 112	1	2	-0.051663	-3.04737	-14.9325	-0.880544
 113	1	4	-0.031436	-2.57072	-16.0786	-0.285567
 114	1	5	0.081364	-4.86666	-16.8908	-2.20522
 115	1	5	-0.00525	-3.23178	-16.9058	-2.8897
 116	1	5	-0.006128	-4.55615	-16.1301	-3.76581
 117	1	5	0.002513	-2.25801	-14.1438	1.7518
 118	1	5	0.147318	-1.70706	-12.5436	1.23336
 119	1	5	0.144731	-0.837792	-13.9825	0.694742
 120	1	1	-0.211274	-6.69959	-10.1664	-1.17647
 121	1	2	0.221306	-5.32175	-9.53797	-1.301
 122	1	2	-0.631195	-5.05148	-8.33663	-0.627509
 123	1	3	0.289556	-5.81079	-7.88472	0.00160664
 124	1	2	0.263167	-3.79528	-7.72516	-0.72851
 125	1	2	-0.339066	-2.82845	-8.29411	-1.57244
 126	1	3	0.163087	-1.8619	-7.81538	-1.68422
 127	1	2	0.033139	-3.08278	-9.48671	-2.26686
 128	1	1	-0.070169	-2.01852	-10.0521	-3.19866
 129	1	2	-0.051663	-4.31802	-10.1416	-2.08543
 130	1	4	-0.031436	-4.52031	-11.3936	-2.61743
 131	1	5	0.081364	-1.63185	-11.0093	-2.82934
 132	1	5	-0.00525	-1.16807	-9.36751	-3.30769
 133	1	5	-0.006128	-2.43291	-10.2195	-4.20114
 134	1	5	0.002513	-7.36191	-9.58575	-0.522191
 135	1	5	0.147318	-6.63656	-11.1831	-0.775025
 136	1	5	0.144731	-7.17416	-10.2339	-2.1613
 137	1	1	-0.211274	-1.74454	-4.76674	-1.40713
 138	1	2	0.221306	-1.36933	-5.50681	-0.134893
 139	1	2	-0.631195	-0.0523216	-5.40007	0.337319
 140	1	3	0.289556	0.67346	-4.80877	-0.208271
 141	1	2	0.263167	0.358558	-6.10096	1.47759
 142	1	2	-0.339066	-0.585235	-6.86715	2.17957
 143	1	3	0.163087	-0.28445	-7.39891	3.07508
 144	1	2	0.033139	-1.90066	-7.00694	1.71465
 145	1	1	-0.070169	-2.85057	-7.92395	2.47448
 146	1	2	-0.051663	-2.289	-6.34737	0.529718
 147	1	4	-0.031436	-3.53207	-6.58332	-0.0100682
 148	1	5	0.081364	-2.91138	-8.89987	1.97965
 149	1	5	-0.00525	-3.86257	-7.50367	2.52974
 150	1	5	-0.006128	-2.51107	-8.09427	3.50428
 151	1	5	0.002513	-1.10417	-3.89072	-1.5699
 152	1	5	0.147318	-2.78113	-4.41315	-1.36709
 153	1	5	0.144731	-1.64463	-5.42514	-2.27703
 154	1	1	-0.211274	2.34164	-5.98912	4.66161
 155	1	2	0.221306	2.51054	-7.23334	3.80924
 156	1	2	-0.631195	2.86339	-8.43805	4.43423
 157	1	3	0.289556	3.0316	-8.47642	5.50747
 158	1	2	0.263167	2.93512	-9.62387	3.69603
 159	1	2	-0.339066	2.74873	-9.58754	2.30777
 160	1	3	0.163087	2.81209	-10.5107	1.74002
 161	1	2	0.033139	2.41312	-8.38929	1.6578
 162	1	1	-0.070169	2.17394	-8.40691	0.151682
 163	1	2	-0.051663	2.24361	-7.21375	2.42352
 164	1	4	-0.031436	1.68318	-6.09474	1.85074
 165	1	5	0.081364	2.5925	-9.30882	-0.31098
 166	1	5	-0.00525	2.64579	-7.54388	-0.3352
 167	1	5	-0.006128	1.10214	-8.38398	-0.0809479
 168	1	5	0.002513	1.34526	-5.54801	4.53108
 169	1	5	0.147318	3.08734	-5.2351	4.38569
 170	1	5	0.144731	2.46906	-6.21067	5.72705
 171	1	1	-0.211274	0.0821614	-10.4187	4.24814
 172	1	2	0.221306	0.802038	-11.7435	4.04508
 173	1	2	-0.631195	0.00225383	-12.8625	3.77641
 174	1	3	0.289556	-1.07607	-12.7505	3.7018
 175	1	2	0.263167	0.564937	-14.1297	3.6109
 176	1	2	-0.339066	1.95218	-14.2824	3.73507
 177	1	3	0.163087	2.39607	-15.2654	3.614
 178	1	2	0.033139	2.7806	-13.175	3.98422
 179	1	1	-0.070169	4.28691	-13.3872	4.07553
 180	1	2	-0.051663	2.21194	-11.8902	4.12452
 181	1	4	-0.031436	3.05185	-10.8188	4.35457
 182	1	5	0.081364	4.82496	-12.6882	3.42294
 183	1	5	-0.00525	4.57265	-14.4026	3.77323
 184	1	5	-0.006128	4.64313	-13.2396	5.10129
 185	1	5	0.002513	-0.987382	-10.5557	4.45072
 186	1	5	0.147318	0.166138	-9.79324	3.35251
 187	1	5	0.144731	0.50472	-9.86476	5.09382
 188	1	1	-0.211274	-0.991804	-15.9456	5.98559
 189	1	2	0.221306	-0.402072	-16.9056	4.96719
 190	1	2	-0.631195	-0.197765	-18.2389	5.34091
 191	1	3	0.289556	-0.463304	-18.5535	6.34386
 192	1	2	0.263167	0.394029	-19.1514	4.45307
 193	1	2	-0.339066	0.750387	-18.7192	3.16996
 194	1	3	0.163087	1.21207	-19.4228	2.48394
 195	1	2	0.033139	0.541646	-17.3894	2.76784
 196	1	1	-0.070169	0.982433	-16.9637	1.37184
 197	1	2	-0.051663	-0.0320749	-16.4761	3.67755
 198	1	4	-0.031436	-0.263788	-15.1776	3.30674
 199	1	5	0.081364	2.02576	-16.6248	1.38335
 200	1	5	-0.00525	0.368515	-16.1469	0.9747
 201	1	5	-0.006128	0.911325	-17.7963	0.66079
 202	1	5	0.002513	-1.47244	-16.4756	6.81637
 203	1	5	0.147318	-1.74235	-15.2934	5.52599
 204	1	5	0.144731	-0.204835	-15.305	6.4009
 205	1	1	-0.211274	-1.5182	-22.1883	5.60477
 206	1	2	0.221306	-0.4296	-21.7166	6.55239
 207	1	2	-0.631195	-0.522055	-22.0743	7.90327
 208	1	3	0.289556	-1.3331	-22.7095	8.24179
 209	1	2	0.263167	0.41377	-21.6043	8.83131
 210	1	2	-0.339066	1.47273	-20.8001	8.3934
 211	1	3	0.163087	2.19902	-20.4351	9.11311
 212	1	2	0.033139	1.60212	-20.4487	7.04077
 213	1	1	-0.070169	2.78104	-19.5718	6.6322
 214	1	2	-0.051663	0.622402	-20.8834	6.11829
 215	1	4	-0.031436	0.647663	-20.4526	4.81371
 216	1	5	0.081364	3.01755	-19.6629	5.56542
 217	1	5	-0.00525	3.68717	-19.8493	7.18566
 218	1	5	-0.006128	2.57271	-18.5155	6.84284
 219	1	5	0.002513	-2.0338	-23.0774	5.98907
 220	1	5	0.147318	-1.1036	-22.4481	4.6241
 221	1	5	0.144731	-2.26706	-21.4011	5.4618
 222	1	1	-0.211274	-2.00903	-20.017	9.99751
 223	1	2	0.221306	-0.917136	-19.9268	11.0433
 224	1	2	-0.631195	-0.981141	-18.8849	11.9774
 225	1	3	0.289556	-1.80054	-18.1701	11.9528
 226	1	2	0.263167	0.0126783	-18.7474	12.9527
 227	1	2	-0.339066	1.05502	-19.6799	13.0112
 228	1	3	0.163087	1.81477	-19.5754	13.7799
 229	1	2	0.033139	1.1363	-20.7337	12.0866
 230	1	1	-0.070169	2.29787	-21.7159	12.1686
 231	1	2	-0.051663	0.150509	-20.8525	11.0862
 232	1	4	-0.031436	0.239261	-21.8687	10.1633
 233	1	5	0.081364	2.7993	-21.8182	11.1985
 234	1	5	-0.00525	1.94688	-22.7096	12.4728
 235	1	5	-0.006128	3.05416	-21.3926	12.8949
 236	1	5	0.002513	-2.85273	-19.3681	10.236
 237	1	5	0.147318	-2.39328	-21.0398	9.92843
 238	1	5	0.144731	-1.62301	-19.7205	9.01627
 239	1	1	-0.211274	0.950708	-16.4299	11.2493
 240	1	2	0.221306	0.219444	-15.7277	12.3842
 241	1	2	-0.631195	0.0475702	-14.3432	12.2465
 242	1	3	0.289556	0.376993	-13.8592	11.3348
 243	1	2	0.263167	-0.494173	-13.57	13.2836
 244	1	2	-0.339066	-0.954338	-14.2141	14.4337
 245	1	3	0.163087	-1.3845	-13.6186	15.2319
 246	1	2	0.033139	-0.843949	-15.6065	14.5783
 247	1	1	-0.070169	-1.36976	-16.2608	15.8507
 248	1	2	-0.051663	-0.226932	-16.3743	13.5668
 249	1	4	-0.031436	0.00148514	-17.708	13.8417
 250	1	5	0.081364	-1.81437	-15.5262	16.5325
 251	1	5	-0.00525	-0.566745	-16.7731	16.3952
 252	1	5	-0.006128	-2.14565	-17.0007	15.6155
 253	1	5	0.002513	1.49501	-15.7226	10.6108
 254	1	5	0.147318	0.243791	-16.969	10.6102
 255	1	5	0.144731	1.68492	-17.1478	11.63
 256	1	1	-0.211274	2.40546	-12.3445	12.9536
 257	1	2	0.221306	1.48804	-11.4828	12.0991
 258	1	2	-0.631195	2.08249	-10.732	11.076
 259	1	3	0.289556	3.15418	-10.7953	10.917
 260	1	2	0.263167	1.31015	-9.88948	10.2661
 261	1	2	-0.339066	-0.0576547	-9.76187	10.5221
 262	1	3	0.163087	-0.644506	-9.07609	9.91884
 263	1	2	0.033139	-0.678013	-10.5014	11.5399
 264	1	1	-0.070169	-2.15953	-10.2677	11.8156
 265	1	2	-0.051663	0.0860752	-11.4134	12.2983
 266	1	4	-0.031436	-0.556075	-12.1969	13.2301
 267	1	5	0.081364	-2.66925	-9.85562	10.9358
 268	1	5	-0.00525	-2.28832	-9.55575	12.6403
 269	1	5	-0.006128	-2.6826	-11.188	12.094
 270	1	5	0.002513	3.39152	-11.8806	13.0787
 271	1	5	0.147318	2.55617	-13.3261	12.4911
 272	1	5	0.144731	1.9921	-12.5048	13.9554
 273	1	1	-0.211274	2.49698	-11.8248	7.9618
 274	1	2	0.221306	3.37365	-10.5855	7.94834
 275	1	2	-0.631195	4.55101	-10.6678	7.19669
 276	1	3	0.289556	4.78149	-11.5782	6.65648
 277	1	2	0.263167	5.42916	-9.58727	7.0999
 278	1	2	-0.339066	5.15036	-8.41991	7.82389
 279	1	3	0.163087	5.83897	-7.58262	7.78567
 280	1	2	0.033139	3.96276	-8.29842	8.56321
 281	1	1	-0.070169	3.6607	-6.9843	9.27303
 282	1	2	-0.051663	3.05556	-9.37715	8.61459
 283	1	4	-0.031436	1.8421	-9.16973	9.22884
 284	1	5	0.081364	3.34941	-7.15945	10.3108
 285	1	5	-0.00525	2.85364	-6.4422	8.76439
 286	1	5	-0.006128	4.53832	-6.32637	9.30184
 287	1	5	0.002513	2.95282	-12.6143	8.57291
 288	1	5	0.147318	2.36816	-12.2204	6.94882
 289	1	5	0.144731	1.50116	-11.6282	8.36217
 290	1	1	-0.211274	8.78585	-10.8814	7.54234
 291	1	2	0.221306	8.80542	-9.50108	6.90936
 292	1	2	-0.631195	10.0135	-8.79177	6.8769
 293	1	3	0.289556	10.9114	-9.22825	7.30004
 294	1	2	0.263167	10.0898	-7.54295	6.25185
 295	1	2	-0.339066	8.92531	-6.99531	5.68265
 296	1	3	0.163087	8.96604	-6.0329	5.18397
 297	1	2	0.033139	7.70829	-7.69147	5.68971
 298	1	1	-0.070169	6.50867	-7.07407	4.9736
 299	1	2	-0.051663	7.64859	-8.95553	6.31458
 300	1	4	-0.031436	6.50778	-9.714	6.26336
 301	1	5	0.081364	6.07601	-7.77344	4.248
 302	1	5	-0.00525	6.79124	-6.16625	4.42501
 303	1	5	-0.006128	5.71931	-6.78372	5.67545
 304	1	5	0.002513	9.70627	-11.092	8.10107
 305	1	5	0.147318	8.67778	-11.6507	6.76938
 306	1	5	0.144731	7.94435	-10.9781	8.23838
 307	1	1	-0.211274	11.1357	-4.22084	7.18702
 308	1	2	0.221306	11.3066	-4.54167	5.71278
 309	1	2	-0.631195	11.2349	-3.50547	4.77036
 310	1	3	0.289556	11.0788	-2.48451	5.10313
 311	1	2	0.263167	11.3604	-3.78256	3.40027
 312	1	2	-0.339066	11.6024	-5.09683	2.98576
 313	1	3	0.163087	11.7131	-5.30117	1.92596
 314	1	2	0.033139	11.6714	-6.14999	3.91003
 315	1	1	-0.070169	11.9121	-7.57059	3.41018
 316	1	2	-0.051663	11.4862	-5.87127	5.2798
 317	1	4	-0.031436	11.3057	-6.90316	6.16668
 318	1	5	0.081364	12.0125	-7.60319	2.31873
 319	1	5	-0.00525	11.087	-8.23998	3.68187
 320	1	5	-0.006128	12.8359	-7.98237	3.83623
 321	1	5	0.002513	11.0429	-3.14343	7.37026
 322	1	5	0.147318	12.0008	-4.58266	7.75487
 323	1	5	0.144731	10.2412	-4.71099	7.58828
 324	1	1	-0.211274	8.45183	-2.03623	2.4682
 325	1	2	0.221306	9.60522	-1.05636	2.59779
 326	1	2	-0.631195	9.32527	0.315715	2.66057
 327	1	3	0.289556	8.29868	0.661312	2.61242
 328	1	2	0.263167	10.3563	1.25816	2.7587
 329	1	2	-0.339066	11.6851	0.809171	2.83451
 330	1	3	0.163087	12.4936	1.52868	2.91399
 331	1	2	0.033139	11.9876	-0.562268	2.77349
 332	1	1	-0.070169	13.4383	-1.02272	2.82539
 333	1	2	-0.051663	10.9435	-1.49778	2.6364
 334	1	4	-0.031436	11.2434	-2.82149	2.43018
 335	1	5	0.081364	13.7072	-1.56482	1.91072
 336	1	5	-0.00525	13.6029	-1.69728	3.67532
 337	1	5	-0.006128	14.1329	-0.180794	2.93169
 338	1	5	0.002513	7.49664	-1.52768	2.2848
 339	1	5	0.147318	8.34947	-2.62495	3.38759
 340	1	5	0.144731	8.62238	-2.73235	1.63914
 341	1	1	-0.211274	11.3672	4.01996	0.610113
 342	1	2	0.221306	11.5583	4.33823	2.08189
 343	1	2	-0.631195	12.4133	5.39135	2.44087
 344	1	3	0.289556	12.937	5.95966	1.68159
 345	1	2	0.263167	12.5813	5.74541	3.7842
 346	1	2	-0.339066	11.8993	5.02184	4.77465
 347	1	3	0.163087	12.0189	5.29268	5.81856
 348	1	2	0.033139	11.0461	3.96036	4.43767
 349	1	1	-0.070169	10.3086	3.22093	5.54632
 350	1	2	-0.051663	10.8804	3.61029	3.08275
 351	1	4	-0.031436	10.0256	2.59127	2.73986
 352	1	5	0.081364	10.7902	2.25807	5.75465
 353	1	5	-0.00525	9.26439	3.02624	5.27217
 354	1	5	-0.006128	10.296	3.79978	6.4785
 355	1	5	0.002513	11.7922	3.04057	0.358513
 356	1	5	0.147318	11.8478	4.76873	-0.0282148
 357	1	5	0.144731	10.3014	4.00546	0.355036
 358	1	1	-0.211274	14.9433	6.30434	6.508
 359	1	2	0.221306	13.8669	7.37009	6.39601
 360	1	2	-0.631195	13.5534	8.11892	7.53734
 361	1	3	0.289556	14.0763	7.94297	8.47032
 362	1	2	0.263167	12.5602	9.10271	7.49607
 363	1	2	-0.339066	11.8747	9.34207	6.29747
 364	1	3	0.163087	11.1022	10.1037	6.26444
 365	1	2	0.033139	12.163	8.59495	5.14412
 366	1	1	-0.070169	11.3774	8.86818	3.86721
 367	1	2	-0.051663	13.1582	7.59524	5.1971
 368	1	4	-0.031436	13.3931	6.80572	4.09915
 369	1	5	0.081364	12.0337	8.869	2.98844
 370	1	5	-0.00525	10.8767	9.84407	3.9015
 371	1	5	-0.006128	10.6068	8.10273	3.71253
 372	1	5	0.002513	14.5177	5.35234	6.84822
 373	1	5	0.147318	15.7156	6.60531	7.2239
 374	1	5	0.144731	15.4425	6.12981	5.54838
 375	1	1	-0.211274	9.69329	10.6137	9.60085
 376	1	2	0.221306	10.7628	11.5948	9.15554
 377	1	2	-0.631195	10.4994	12.9663	9.24527
 378	1	3	0.289556	9.54997	13.3143	9.63743
 379	1	2	0.263167	11.4551	13.905	8.845
 380	1	2	-0.339066	12.6889	13.467	8.34615
 381	1	3	0.163087	13.4383	14.1972	8.05711
 382	1	2	0.033139	12.9772	12.0936	8.25618
 383	1	1	-0.070169	14.3499	11.6472	7.76981
 384	1	2	-0.051663	12.0039	11.1518	8.65829
 385	1	4	-0.031436	12.2764	9.80519	8.63622
 386	1	5	0.081364	14.2774	11.1838	6.77805
 387	1	5	-0.00525	14.786	10.9097	8.45614
 388	1	5	-0.006128	15.0543	12.4844	7.69751
 389	1	5	0.002513	8.95005	11.0853	10.2559
 390	1	5	0.147318	10.1342	9.77759	10.1549
 391	1	5	0.144731	9.17	10.2042	8.72939
 392	1	1	-0.211274	13.0204	17.0902	10.1775
 393	1	2	0.221306	12.3887	17.2809	8.81041
 394	1	2	-0.631195	12.589	18.4872	8.12557
 395	1	3	0.289556	13.1478	19.2945	8.5844
 396	1	2	0.263167	12.0191	18.6888	6.86393
 397	1	2	-0.339066	11.3441	17.629	6.23858
 398	1	3	0.163087	10.9386	17.7625	5.24081
 399	1	2	0.033139	11.1046	16.4257	6.92053
 400	1	1	-0.070169	10.2649	15.3474	6.24907
 401	1	2	-0.051663	11.5927	16.2709	8.23521
 402	1	4	-0.031436	11.172	15.2298	9.02488
 403	1	5	0.081364	10.8205	14.4036	6.1861
 404	1	5	-0.00525	9.98112	15.6269	5.2268
 405	1	5	-0.006128	9.3422	15.1628	6.81253
 406	1	5	0.002513	13.7869	16.3051	10.1373
 407	1	5	0.147318	12.2707	16.7922	10.9186
 408	1	5	0.144731	13.5013	18.0065	10.5343
 409	1	1	-0.211274	13.5869	20.5176	3.92453
 410	1	2	0.221306	12.0774	20.6547	4.01285
 411	1	2	-0.631195	11.371	21.1038	2.89172
 412	1	3	0.289556	11.9053	21.372	1.98788
 413	1	2	0.263167	9.97937	21.2354	2.92754
 414	1	2	-0.339066	9.28851	20.9141	4.10409
 415	1	3	0.163087	8.20983	21.0353	4.1384
 416	1	2	0.033139	9.97937	20.4808	5.25188
 417	1	1	-0.070169	9.18124	20.182	6.5182
 418	1	2	-0.051663	11.3882	20.3431	5.19968
 419	1	4	-0.031436	12.1204	19.929	6.28807
 420	1	5	0.081364	8.98645	19.1065	6.61228
 421	1	5	-0.00525	8.2095	20.6918	6.51133
 422	1	5	-0.006128	9.7112	20.509	7.42161
 423	1	5	0.002513	13.9547	20.6545	2.90028
 424	1	5	0.147318	13.9021	19.5225	4.26119
 425	1	5	0.144731	14.0758	21.2617	4.56358
 426	1	1	-0.211274	9.25648	19.1014	0.563004
 427	1	2	0.221306	8.08716	20.0692	0.600984
 428	1	2	-0.631195	6.94378	19.7569	-0.147461
 429	1	3	0.289556	6.91487	18.84	-0.726868
 430	1	2	0.263167	5.86333	20.6484	-0.21789
 431	1	2	-0.339066	5.91448	21.8381	0.518271
 432	1	3	0.163087	5.08365	22.5336	0.456206
 433	1	2	0.033139	7.05787	22.1803	1.26057
 434	1	1	-0.070169	7.11856	23.5339	1.95673
 435	1	2	-0.051663	8.16068	21.3016	1.28729
 436	1	4	-0.031436	9.34916	21.7404	1.82123
 437	1	5	0.081364	7.76097	24.2252	1.39794
 438	1	5	-0.00525	7.52423	23.4432	2.9723
 439	1	5	-0.006128	6.12546	23.9926	2.0404
 440	1	5	0.002513	8.99429	18.1587	0.0661396
 441	1	5	0.147318	9.59093	18.8555	1.57729
 442	1	5	0.144731	10.1001	19.5431	0.0221418
 443	1	1	-0.211274	3.18252	18.0338	-1.53979
 444	1	2	0.221306	4.19003	18.6007	-2.52672
 445	1	2	-0.631195	4.36456	17.9173	-3.73837
 446	1	3	0.289556	3.80395	17.0067	-3.92741
 447	1	2	0.263167	5.27445	18.378	-4.70048
 448	1	2	-0.339066	5.97374	19.5636	-4.45884
 449	1	3	0.163087	6.65621	19.9373	-5.21516
 450	1	2	0.033139	5.79551	20.2844	-3.26663
 451	1	1	-0.070169	6.548	21.6022	-3.11554
 452	1	2	-0.051663	4.92579	19.7788	-2.26954
 453	1	4	-0.031436	4.79608	20.4144	-1.053
 454	1	5	0.081364	7.56714	21.4285	-2.74989
 455	1	5	-0.00525	6.04933	22.2897	-2.4225
 456	1	5	-0.006128	6.61966	22.1258	-4.07745
 457	1	5	0.002513	3.24771	16.9395	-1.49163
 458	1	5	0.147318	2.16519	18.2959	-1.85163
 459	1	5	0.144731	3.33057	18.4146	-0.523317
 460	1	1	-0.211274	3.26051	19.3356	-6.94102
 461	1	2	0.221306	3.32083	17.8196	-7.00085
 462	1	2	-0.631195	2.20611	17.1479	-7.50583
 463	1	3	0.289556	1.33172	17.7084	-7.81875
 464	1	2	0.263167	2.19215	15.7558	-7.60012
 465	1	2	-0.339066	3.32023	15.0213	-7.21304
 466	1	3	0.163087	3.30559	13.938	-7.28367
 467	1	2	0.033139	4.44562	15.6734	-6.67789
 468	1	1	-0.070169	5.62436	14.8329	-6.20176
 469	1	2	-0.051663	4.42945	17.0793	-6.536
 470	1	4	-0.031436	5.45936	17.72	-5.89217
 471	1	5	0.081364	6.55541	15.4106	-6.15995
 472	1	5	-0.00525	5.80252	13.9849	-6.87481
 473	1	5	-0.006128	5.43341	14.4303	-5.19956
 474	1	5	0.002513	2.65524	19.7445	-7.76034
 475	1	5	0.147318	4.25788	19.7809	-7.02332
 476	1	5	0.144731	2.81923	19.6607	-5.99222
 477	1	1	-0.211274	0.193118	12.6712	-6.70719
 478	1	2	0.221306	0.31378	12.8849	-8.20667
 479	1	2	-0.631195	-0.152998	11.8715	-9.05175
 480	1	3	0.289556	-0.604444	10.9808	-8.62922
 481	1	2	0.263167	-0.0972248	12.0302	-10.4423
 482	1	2	-0.339066	0.545399	13.1483	-10.9835
 483	1	3	0.163087	0.625276	13.2445	-12.0618
 484	1	2	0.033139	1.03457	14.1703	-10.1558
 485	1	1	-0.070169	1.70513	15.3829	-10.7914
 486	1	2	-0.051663	0.859663	14.0622	-8.76003
 487	1	4	-0.031436	1.01924	15.1626	-7.96209
 488	1	5	0.081364	2.77228	15.4052	-10.5351
 489	1	5	-0.00525	1.25537	16.3229	-10.4496
 490	1	5	-0.006128	1.63231	15.3613	-11.8862
 491	1	5	0.002513	1.05518	12.1042	-6.33306
 492	1	5	0.147318	-0.712292	12.1044	-6.46593
 493	1	5	0.144731	0.146418	13.6143	-6.15185
 494	1	1	-0.211274	1.3731	9.16477	-11.4317
 495	1	2	0.221306	-0.0710265	8.84405	-11.0846
 496	1	2	-0.631195	-0.453633	7.50961	-10.9293
 497	1	3	0.289556	0.270064	6.71878	-11.0953
 498	1	2	0.263167	-1.77879	7.16817	-10.6409
 499	1	2	-0.339066	-2.72413	8.1826	-10.4324
 500	1	3	0.163087	-3.75502	7.91972	-10.2192
 501	1	2	0.033139	-2.36417	9.53413	-10.5944
 502	1	1	-0.070169	-3.42709	10.6128	-10.4191
 503	1	2	-0.051663	-1.03782	9.85798	-10.9613
 504	1	4	-0.031436	-0.692207	11.1417	-11.2942
 505	1	5	0.081364	-3.0077	11.5264	-9.97949
 506	1	5	-0.00525	-4.23284	10.2762	-9.75416
 507	1	5	-0.006128	-3.87785	10.8794	-11.3826
 508	1	5	0.002513	1.9882	8.26107	-11.5235
 509	1	5	0.147318	1.82136	9.79539	-10.654
 510	1	5	0.144731	1.43207	9.70971	-12.3808
 511	1	1	-0.211274	-1.59531	5.068	-7.96979
 512	1	2	0.221306	-2.74697	4.53966	-8.80414
 513	1	2	-0.631195	-3.50289	3.45736	-8.32569
 514	1	3	0.289556	-3.22977	2.96104	-7.40164
 515	1	2	0.263167	-4.58845	2.96648	-9.06149
 516	1	2	-0.339066	-4.97694	3.64543	-10.2298
 517	1	3	0.163087	-5.85525	3.31234	-10.7752
 518	1	2	0.033139	-4.23295	4.72894	-10.7258
 519	1	1	-0.070169	-4.7277	5.44297	-11.9795
 520	1	2	-0.051663	-3.06748	5.13125	-10.0418
 521	1	4	-0.031436	-2.09758	5.84035	-10.7053
 522	1	5	0.081364	-5.6942	5.92386	-11.7796
 523	1	5	-0.00525	-4.87078	4.74203	-12.8101
 524	1	5	-0.006128	-4.04725	6.23232	-12.3202
 525	1	5	0.002513	-0.625577	4.82635	-8.41925
 526	1	5	0.147318	-1.6174	4.66348	-6.95291
 527	1	5	0.144731	-1.66691	6.15976	-7.88514
 528	1	1	-0.211274	-6.92102	4.16461	-7.58319
 529	1	2	0.221306	-7.47206	2.95241	-8.3192
 530	1	2	-0.631195	-8.81437	2.99148	-8.67046
 531	1	3	0.289556	-9.3653	3.884	-8.40135
 532	1	2	0.263167	-9.4245	1.96301	-9.41216
 533	1	2	-0.339066	-8.67371	0.812761	-9.68361
 534	1	3	0.163087	-9.13978	-0.0105155	-10.2156
 535	1	2	0.033139	-7.31289	0.736975	-9.32442
 536	1	1	-0.070169	-6.55239	-0.540318	-9.65693
 537	1	2	-0.051663	-6.68696	1.84945	-8.71129
 538	1	4	-0.031436	-5.31966	1.90681	-8.56889
 539	1	5	0.081364	-7.11658	-1.41932	-9.31891
 540	1	5	-0.00525	-5.57145	-0.58386	-9.169
 541	1	5	-0.006128	-6.40044	-0.638084	-10.7386
 542	1	5	0.002513	-7.69729	4.67579	-7.00021
 543	1	5	0.147318	-6.5121	4.88941	-8.29645
 544	1	5	0.144731	-6.12374	3.87914	-6.88931
 545	1	1	-0.211274	-9.86226	3.93753	-12.0937
 546	1	2	0.221306	-10.5873	4.34008	-10.8195
 547	1	2	-0.631195	-10.5176	5.68138	-10.4254
 548	1	3	0.289556	-9.98848	6.3973	-11.0457
 549	1	2	0.263167	-11.0774	6.09964	-9.20998
 550	1	2	-0.339066	-11.8201	5.1898	-8.44819
 551	1	3	0.163087	-12.2901	5.52543	-7.53021
 552	1	2	0.033139	-11.9195	3.84277	-8.83265
 553	1	1	-0.070169	-12.6553	2.85566	-7.93818
 554	1	2	-0.051663	-11.2013	3.39878	-9.96131
 555	1	4	-0.031436	-10.6998	2.11943	-9.92643
 556	1	5	0.081364	-11.959	2.32479	-7.27827
 557	1	5	-0.00525	-13.188	2.10717	-8.53972
 558	1	5	-0.006128	-13.4018	3.362	-7.31334
 559	1	5	0.002513	-10.3612	4.36592	-12.9725
 560	1	5	0.147318	-9.83295	2.85149	-12.2313
 561	1	5	0.144731	-8.82873	4.29968	-12.0807
 562	1	1	-0.211274	-8.7202	9.18703	-9.40156
 563	1	2	0.221306	-10.0988	9.28429	-10.0359
 564	1	2	-0.631195	-10.3082	10.2196	-11.0643
 565	1	3	0.289556	-9.48997	10.8387	-11.4089
 566	1	2	0.263167	-11.5545	10.3137	-11.7053
 567	1	2	-0.339066	-12.5885	9.46909	-11.2887
 568	1	3	0.163087	-13.5332	9.4661	-11.804
 569	1	2	0.033139	-12.4189	8.56023	-10.2435
 570	1	1	-0.070169	-13.6134	7.71599	-9.81674
 571	1	2	-0.051663	-11.1518	8.42895	-9.64668
 572	1	4	-0.031436	-10.9333	7.39334	-8.77762
 573	1	5	0.081364	-13.5806	7.49731	-8.74263
 574	1	5	-0.00525	-13.6362	6.76295	-10.3596
 575	1	5	-0.006128	-14.5589	8.23793	-10.0071
 576	1	5	0.002513	-8.05746	8.53309	-9.98189
 577	1	5	0.147318	-8.77703	8.78958	-8.38161
 578	1	5	0.144731	-8.25153	10.175	-9.33454
 579	1	1	-0.211274	-14.6842	11.488	-12.8628
 580	1	2	0.221306	-13.6705	12.6088	-12.7566
 581	1	2	-0.631195	-14.1853	13.9101	-12.7216
 582	1	3	0.289556	-15.2556	14.0792	-12.7396
 583	1	2	0.263167	-13.3369	15.017	-12.7344
 584	1	2	-0.339066	-11.9486	14.813	-12.7502
 585	1	3	0.163087	-11.284	15.6692	-12.7837
 586	1	2	0.033139	-11.4072	13.515	-12.7457
 587	1	1	-0.070169	-9.89196	13.3522	-12.777
 588	1	2	-0.051663	-12.2704	12.3963	-12.7338
 589	1	4	-0.031436	-11.7337	11.1284	-12.7967
 590	1	5	0.081364	-9.50799	13.159	-11.7687
 591	1	5	-0.00525	-9.39459	14.2548	-13.1538
 592	1	5	-0.006128	-9.58492	12.5212	-13.4247
 593	1	5	0.002513	-14.2972	10.6396	-13.439
 594	1	5	0.147318	-15.5901	11.8249	-13.3761
 595	1	5	0.144731	-14.9767	11.1496	-11.8623
 596	1	1	-0.211274	-12.5343	18.6013	-11.8267
 597	1	2	0.221306	-12.6632	18.274	-13.3021
 598	1	2	-0.631195	-12.0235	19.0776	-14.2565
 599	1	3	0.289556	-11.371	19.8873	-13.9501
 600	1	2	0.263167	-12.2203	18.837	-15.6239
 601	1	2	-0.339066	-13.1094	17.8382	-16.0311
 602	1	3	0.163087	-13.2819	17.6847	-17.0918
 603	1	2	0.033139	-13.7164	16.9933	-15.0919
 604	1	1	-0.070169	-14.6732	15.9154	-15.5817
 605	1	2	-0.051663	-13.4415	17.1792	-13.7212
 606	1	4	-0.031436	-13.8868	16.2726	-12.794
 607	1	5	0.081364	-15.1915	16.2406	-16.4915
 608	1	5	-0.00525	-15.4482	15.6991	-14.8361
 609	1	5	-0.006128	-14.1434	14.982	-15.8072
 610	1	5	0.002513	-13.5318	18.6995	-11.3776
 611	1	5	0.147318	-12.0088	19.5476	-11.6647
 612	1	5	0.144731	-12.0023	17.8087	-11.2905
 613	1	1	-0.211274	-9.89131	17.1169	-17.1018
 614	1	2	0.221306	-9.35192	18.5181	-16.8593
 615	1	2	-0.631195	-7.96291	18.6794	-16.9411
 616	1	3	0.289556	-7.32681	17.8351	-17.1811
 617	1	2	0.263167	-7.37067	19.9322	-16.767
 618	1	2	-0.339066	-8.18588	21.0324	-16.4568
 619	1	3	0.163087	-7.74477	22.0109	-16.3064
 620	1	2	0.033139	-9.57845	20.897	-16.3479
 621	1	1	-0.070169	-10.408	22.1208	-15.9692
 622	1	2	-0.051663	-10.1725	19.6392	-16.5809
 623	1	4	-0.031436	-11.5422	19.5406	-16.5773
 624	1	5	0.081364	-11.3045	21.8492	-15.3993
 625	1	5	-0.00525	-10.7323	22.6714	-16.86
 626	1	5	-0.006128	-9.83062	22.8105	-15.3401
 627	1	5	0.002513	-10.2412	16.9948	-18.1343
 628	1	5	0.147318	-10.7084	16.8661	-16.4219
 629	1	5	0.144731	-9.11483	16.3668	-16.9193
 630	1	1	-0.211274	-5.51287	21.7976	-14.5841
 631	1	2	0.221306	-5.05296	22.0662	-16.0027
 632	1	2	-0.631195	-4.36606	23.2593	-16.2204
 633	1	3	0.289556	-4.16777	23.9382	-15.3953
 634	1	2	0.263167	-3.95987	23.6169	-17.507
 635	1	2	-0.339066	-4.23675	22.7668	-18.5863
 636	1	3	0.163087	-3.93417	23.0719	-19.5823
 637	1	2	0.033139	-4.89851	21.549	-18.3927
 638	1	1	-0.070169	-5.14794	20.6461	-19.5999
 639	1	2	-0.051663	-5.32837	21.2003	-17.0912
 640	1	4	-0.031436	-6.00567	20.0287	-16.9003
 641	1	5	0.081364	-6.20253	20.6619	-19.8959
 642	1	5	-0.00525	-4.87219	19.6054	-19.3953
 643	1	5	-0.006128	-4.56112	20.964	-20.4728
 644	1	5	0.002513	-6.38917	22.4138	-14.349
 645	1	5	0.147318	-4.72233	22.0644	-13.8754
 646	1	5	0.144731	-5.77407	20.7495	-14.413
 647	1	1	-0.211274	-4.25728	27.2785	-16.4055
 648	1	2	0.221306	-2.81804	26.8014	-16.4737
 649	1	2	-0.631195	-1.82322	27.6528	-15.9852
 650	1	3	0.289556	-2.05391	28.6713	-15.6997
 651	1	2	0.263167	-0.515745	27.1956	-15.8582
 652	1	2	-0.339066	-0.225723	25.8537	-16.0847
 653	1	3	0.163087	0.77456	25.4915	-15.8743
 654	1	2	0.033139	-1.21055	24.9811	-16.5676
 655	1	1	-0.070169	-0.908068	23.4884	-16.6176
 656	1	2	-0.051663	-2.49027	25.4922	-16.8823
 657	1	4	-0.031436	-3.34404	24.8187	-17.7294
 658	1	5	0.081364	-1.26598	23.0177	-17.5431