pySIMM System Object

274 atoms
289 bonds
496 angles
638 dihedrals
64 impropers

6 atom types
6 bond types
8 angle types
3 dihedral types
2 improper types

-90.791590 90.791590 xlo xhi
-90.791590 90.791590 ylo yhi
-90.791590 90.791590 zlo zhi

Masses

   1	12.01	# c3
   2	12.01	# ca
   3	1.008	# ha
   4	16.0	# oh
   5	1.008	# hc
   6	1.008	# ho

Pair Coeffs

   1	0.1094	3.3996695084235347	# c3
   2	0.086	3.3996695084235347	# ca
   3	0.015	2.59964245953351	# ha
   4	0.2104	3.0664733878390478	# oh
   5	0.0157	2.649532787749369	# hc
   6	0.0047	0.5379246460131368	# ho

Bond Coeffs

   1	371.4	0.973	# ho,oh
   2	461.1	1.3984	# ca,ca
   3	384.0	1.3637	# ca,oh
   4	345.8	1.086	# ca,ha
   5	321.0	1.5156	# c3,ca
   6	330.6	1.0969	# c3,hc

Angle Coeffs

   1	46.8	110.47	# ca,c3,hc
   2	49.0	108.58	# ca,oh,ho
   3	69.52	119.9	# ca,ca,oh
   4	66.62	120.02	# ca,ca,ca
   5	39.4	107.58	# hc,c3,hc
   6	48.18	119.88	# ca,ca,ha
   7	63.53	120.77	# c3,ca,ca
   8	63.5	119.89	# ca,oh,ca

Dihedral Coeffs

   1	1	0.9	2	180	# X,ca,oh,X
   2	1	0.0	2	0	# X,c3,ca,X
   3	1	3.625	2	180	# X,ca,ca,X

Improper Coeffs

   1	1.1	-1	2	# ca,ca,ca,c3
   2	1.1	-1	2	# ca,X,X,ha

Atoms

   1	1	1	-0.211274	-7.29722	13.648	1.19878
   2	1	2	0.221306	-7.71889	12.2817	1.70554
   3	1	2	-0.631195	-9.0466	12.0733	2.11377
   4	1	3	0.289556	-9.77955	12.8627	1.97913
   5	1	2	0.263167	-9.43497	10.8798	2.7168
   6	1	2	-0.339066	-8.45456	9.90576	3.00666
   7	1	3	0.163087	-8.73195	9.02353	3.55467
   8	1	2	0.033139	-7.10589	10.1158	2.63607
   9	1	1	-0.070169	-6.01822	9.14824	3.10908
  10	1	2	-0.051663	-6.76331	11.271	1.90694
  11	1	4	-0.031436	-5.48039	11.4519	1.45424
  12	1	5	0.081364	-6.04771	8.2116	2.54535
  13	1	5	-0.00525	-6.14132	8.90848	4.17113
  14	1	5	-0.006128	-5.00654	9.56491	3.00824
  15	1	5	0.002513	-8.12856	14.3637	1.18055
  16	1	5	0.147318	-6.88031	13.5789	0.189075
  17	1	5	0.144731	-6.52005	14.0638	1.8583
  18	1	1	-0.211274	-11.0772	9.62041	5.77554
  19	1	2	0.221306	-11.8035	9.12615	4.53601
  20	1	2	-0.631195	-12.7668	8.11916	4.66965
  21	1	3	0.289556	-13.0151	7.70597	5.64988
  22	1	2	0.263167	-13.4678	7.65206	3.54814
  23	1	2	-0.339066	-13.1449	8.15643	2.28187
  24	1	3	0.163087	-13.6819	7.76809	1.41104
  25	1	2	0.033139	-12.1662	9.14345	2.12164
  26	1	1	-0.070169	-11.8402	9.65356	0.723063
  27	1	2	-0.051663	-11.5086	9.66128	3.26097
  28	1	4	-0.031436	-10.7331	10.7863	3.1556
  29	1	5	0.081364	-12.5101	9.21556	-0.0319936
  30	1	5	-0.00525	-10.8143	9.38772	0.44403
  31	1	5	-0.006128	-11.9386	10.7412	0.659462
  32	1	5	0.002513	-10.9699	10.7095	5.77874
  33	1	5	0.147318	-10.0744	9.18227	5.82562
  34	1	5	0.144731	-11.6143	9.34157	6.6914
  35	1	1	-0.211274	-11.8545	5.18471	3.24698
  36	1	2	0.221306	-13.0985	4.66398	3.95049
  37	1	2	-0.631195	-13.0548	3.32845	4.37135
  38	1	3	0.289556	-12.1552	2.74659	4.2095
  39	1	2	0.263167	-14.182	2.70299	4.91238
  40	1	2	-0.339066	-15.3543	3.44148	5.09267
  41	1	3	0.163087	-16.2308	2.95028	5.49403
  42	1	2	0.033139	-15.4231	4.78868	4.69791
  43	1	1	-0.070169	-16.7485	5.52818	4.85081
  44	1	2	-0.051663	-14.2932	5.41233	4.12203
  45	1	4	-0.031436	-14.446	6.70392	3.65967
  46	1	5	0.081364	-16.617	6.46023	5.41317
  47	1	5	-0.00525	-17.494	4.92488	5.38396
  48	1	5	-0.006128	-17.1707	5.78137	3.87
  49	1	5	0.002513	-11.1155	4.39375	3.06982
  50	1	5	0.147318	-11.3604	5.96074	3.84179
  51	1	5	0.144731	-12.1094	5.60572	2.26793
  52	1	1	-0.211274	-12.1947	-0.141334	6.68434
  53	1	2	0.221306	-12.4572	-0.319635	5.19867
  54	1	2	-0.631195	-11.6845	-1.26045	4.50601
  55	1	3	0.289556	-10.9596	-1.85483	5.04942
  56	1	2	0.263167	-11.8433	-1.44478	3.12352
  57	1	2	-0.339066	-12.7977	-0.681754	2.44287
  58	1	3	0.163087	-12.9256	-0.832041	1.37572
  59	1	2	0.033139	-13.6052	0.249073	3.1203
  60	1	1	-0.070169	-14.6671	1.00771	2.3297
  61	1	2	-0.051663	-13.4235	0.443503	4.51044
  62	1	4	-0.031436	-14.1784	1.36241	5.204
  63	1	5	0.081364	-14.8222	0.568011	1.33763
  64	1	5	-0.00525	-14.3795	2.05538	2.17869
  65	1	5	-0.006128	-15.6347	0.990954	2.84684
  66	1	5	0.002513	-11.3915	0.58728	6.85352
  67	1	5	0.147318	-11.894	-1.08943	7.14296
  68	1	5	0.144731	-13.0862	0.205689	7.21773
  69	1	1	-0.211274	-8.37498	-2.26011	3.43795
  70	1	2	0.221306	-9.27632	-3.47851	3.55464
  71	1	2	-0.631195	-8.80011	-4.61411	4.22371
  72	1	3	0.289556	-7.80107	-4.6052	4.64515
  73	1	2	0.263167	-9.59968	-5.76206	4.35613
  74	1	2	-0.339066	-10.876	-5.77021	3.78059
  75	1	3	0.163087	-11.4888	-6.66174	3.86329
  76	1	2	0.033139	-11.368	-4.64735	3.09325
  77	1	1	-0.070169	-12.7483	-4.70341	2.45056
  78	1	2	-0.051663	-10.5752	-3.48497	3.00719
  79	1	4	-0.031436	-11.0868	-2.35268	2.42197
  80	1	5	0.081364	-13.455	-4.05903	2.98712
  81	1	5	-0.00525	-13.1555	-5.72219	2.45019
  82	1	5	-0.006128	-12.7099	-4.36691	1.40619
  83	1	5	0.002513	-7.4585	-2.36628	4.03149
  84	1	5	0.147318	-8.88763	-1.35319	3.7793
  85	1	5	0.144731	-8.08361	-2.10538	2.39335
  86	1	1	-0.211274	-8.38443	-8.43452	2.68059
  87	1	2	0.221306	-7.41041	-7.98234	3.75548
  88	1	2	-0.631195	-6.0441	-8.23246	3.56351
  89	1	3	0.289556	-5.71846	-8.78738	2.69224
  90	1	2	0.263167	-5.08964	-7.70919	4.45114
  91	1	2	-0.339066	-5.53536	-7.11531	5.63958
  92	1	3	0.163087	-4.80265	-6.77537	6.36465
  93	1	2	0.033139	-6.90455	-6.93068	5.89594
  94	1	1	-0.070169	-7.34962	-6.31472	7.21754
  95	1	2	-0.051663	-7.83953	-7.28372	4.90245
  96	1	4	-0.031436	-9.14812	-6.88303	5.01329
  97	1	5	0.081364	-8.04228	-5.47976	7.0624
  98	1	5	-0.00525	-6.49848	-5.93512	7.79674
  99	1	5	-0.006128	-7.86154	-7.0634	7.8365
 100	1	5	0.002513	-8.47343	-7.67846	1.89037
 101	1	5	0.147318	-9.38473	-8.61457	3.09107
 102	1	5	0.144731	-8.052	-9.37088	2.22095
 103	1	1	-0.211274	-4.52322	-6.65376	1.45157
 104	1	2	0.221306	-3.45213	-7.69368	1.74462
 105	1	2	-0.631195	-2.78412	-8.21391	0.629901
 106	1	3	0.289556	-3.11696	-7.95237	-0.36848
 107	1	2	0.263167	-1.65655	-9.02883	0.77066
 108	1	2	-0.339066	-1.20385	-9.34005	2.05844
 109	1	3	0.163087	-0.318257	-9.95688	2.173
 110	1	2	0.033139	-1.90304	-8.89111	3.19608
 111	1	1	-0.070169	-1.37063	-9.23547	4.58364
 112	1	2	-0.051663	-3.06994	-8.10686	3.04789
 113	1	4	-0.031436	-3.7333	-7.72345	4.20007
 114	1	5	0.081364	-2.13181	-9.75012	5.18256
 115	1	5	-0.00525	-1.07641	-8.32535	5.12322
 116	1	5	-0.006128	-0.49054	-9.88761	4.53463
 117	1	5	0.002513	-4.1829	-5.95019	0.681097
 118	1	5	0.147318	-4.77477	-6.06023	2.33684
 119	1	5	0.144731	-5.44087	-7.12507	1.08277
 120	1	1	-0.211274	-0.469742	-6.66047	-0.933083
 121	1	2	0.221306	0.465923	-7.81835	-1.23096
 122	1	2	-0.631195	1.67314	-7.51399	-1.88437
 123	1	3	0.289556	1.9309	-6.48968	-2.12698
 124	1	2	0.263167	2.59121	-8.52009	-2.19574
 125	1	2	-0.339066	2.30859	-9.83903	-1.83063
 126	1	3	0.163087	3.04298	-10.6099	-2.04363
 127	1	2	0.033139	1.10577	-10.1742	-1.19099
 128	1	1	-0.070169	0.870139	-11.6392	-0.838695
 129	1	2	-0.051663	0.16711	-9.16147	-0.883125
 130	1	4	-0.031436	-1.05145	-9.53664	-0.35252
 131	1	5	0.081364	1.80724	-12.1185	-0.528092
 132	1	5	-0.00525	0.485787	-12.1912	-1.705
 133	1	5	-0.006128	0.160623	-11.7658	-0.0136035
 134	1	5	0.002513	-1.41981	-6.76839	-1.47009
 135	1	5	0.147318	-0.032471	-5.70214	-1.22922
 136	1	5	0.144731	-0.673691	-6.59432	0.142391
 137	1	1	-0.211274	2.26787	-9.00059	-5.1837
 138	1	2	0.221306	3.60995	-8.28951	-5.15854
 139	1	2	-0.631195	4.23072	-8.03559	-6.399
 140	1	3	0.289556	3.77514	-8.36951	-7.32239
 141	1	2	0.263167	5.45151	-7.35064	-6.46879
 142	1	2	-0.339066	6.02905	-6.88832	-5.2808
 143	1	3	0.163087	6.95185	-6.32305	-5.31385
 144	1	2	0.033139	5.44436	-7.14073	-4.03562
 145	1	1	-0.070169	6.14805	-6.61117	-2.79032
 146	1	2	-0.051663	4.24113	-7.8709	-3.95659
 147	1	4	-0.031436	3.83082	-8.21181	-2.68264
 148	1	5	0.081364	6.76563	-7.39291	-2.33294
 149	1	5	-0.00525	5.4325	-6.25657	-2.0371
 150	1	5	-0.006128	6.80333	-5.76373	-3.02966
 151	1	5	0.002513	2.31767	-9.96913	-4.67443
 152	1	5	0.147318	1.92819	-9.18617	-6.20758
 153	1	5	0.144731	1.49903	-8.3903	-4.6942
 154	1	1	-0.211274	3.91609	-5.39257	-8.73234
 155	1	2	0.221306	5.27019	-4.86205	-8.29808
 156	1	2	-0.631195	5.44896	-3.47859	-8.20539
 157	1	3	0.289556	4.61902	-2.81321	-8.40935
 158	1	2	0.263167	6.66821	-2.9484	-7.75722
 159	1	2	-0.339066	7.74891	-3.81084	-7.53659
 160	1	3	0.163087	8.70325	-3.39378	-7.23184
 161	1	2	0.033139	7.59476	-5.20397	-7.63306
 162	1	1	-0.070169	8.7985	-6.09951	-7.35194
 163	1	2	-0.051663	6.31878	-5.73033	-7.93573
 164	1	4	-0.031436	6.0229	-7.04724	-7.68476
 165	1	5	0.081364	9.33367	-6.31956	-8.28338
 166	1	5	-0.00525	8.51703	-7.05787	-6.90063
 167	1	5	-0.006128	9.50668	-5.61408	-6.66874
 168	1	5	0.002513	4.02381	-6.22196	-9.44416
 169	1	5	0.147318	3.32435	-4.61344	-9.22368
 170	1	5	0.144731	3.35183	-5.75094	-7.86523
 171	1	1	-0.211274	6.30822	0.212093	-9.70662
 172	1	2	0.221306	5.46924	0.155938	-8.44248
 173	1	2	-0.631195	4.37254	1.02476	-8.33848
 174	1	3	0.289556	4.15759	1.73671	-9.12742
 175	1	2	0.263167	3.56806	1.02322	-7.19435
 176	1	2	-0.339066	3.85666	0.114029	-6.16049
 177	1	3	0.163087	3.24446	0.107065	-5.26518
 178	1	2	0.033139	4.94478	-0.76631	-6.24295
 179	1	1	-0.070169	5.21807	-1.70775	-5.0739
 180	1	2	-0.051663	5.76066	-0.743004	-7.39497
 181	1	4	-0.031436	6.82226	-1.60709	-7.51724
 182	1	5	0.081364	4.61116	-1.44953	-4.19739
 183	1	5	-0.00525	6.26965	-1.66507	-4.76562
 184	1	5	-0.006128	4.98308	-2.74553	-5.33917
 185	1	5	0.002513	7.32973	-0.157339	-9.55214
 186	1	5	0.147318	6.39162	1.24178	-10.0698
 187	1	5	0.144731	5.84649	-0.393616	-10.4946
 188	1	1	-0.211274	0.167873	1.24061	-5.60177
 189	1	2	0.221306	1.32154	2.02617	-5.00319
 190	1	2	-0.631195	1.36965	2.20924	-3.61465
 191	1	3	0.289556	0.608729	1.78074	-2.9739
 192	1	2	0.263167	2.44193	2.88775	-3.02433
 193	1	2	-0.339066	3.4038	3.50082	-3.83991
 194	1	3	0.163087	4.20998	4.07098	-3.39084
 195	1	2	0.033139	3.39487	3.30109	-5.22668
 196	1	1	-0.070169	4.53636	3.86752	-6.06276
 197	1	2	-0.051663	2.38413	2.50049	-5.79887
 198	1	4	-0.031436	2.58198	1.97313	-7.04967
 199	1	5	0.081364	5.29347	3.0991	-6.2617
 200	1	5	-0.00525	5.03439	4.70186	-5.55314
 201	1	5	-0.006128	4.17336	4.24373	-7.02791
 202	1	5	0.002513	0.51242	0.48134	-6.31406
 203	1	5	0.147318	-0.51033	1.92041	-6.13096
 204	1	5	0.144731	-0.411367	0.727	-4.82774
 205	1	1	-0.211274	5.01671	1.28302	-2.06547
 206	1	2	0.221306	4.88924	2.45621	-1.1045
 207	1	2	-0.631195	6.01636	2.79221	-0.336717
 208	1	3	0.289556	6.94099	2.238	-0.446056
 209	1	2	0.263167	5.95186	3.83128	0.601936
 210	1	2	-0.339066	4.76227	4.54841	0.750722
 211	1	3	0.163087	4.7164	5.34699	1.48599
 212	1	2	0.033139	3.63279	4.25642	-0.0268495
 213	1	1	-0.070169	2.37592	5.09818	0.173149
 214	1	2	-0.051663	3.68694	3.19613	-0.954047
 215	1	4	-0.031436	2.54514	2.88979	-1.65822
 216	1	5	0.081364	2.6361	6.1551	0.307683
 217	1	5	-0.00525	1.82666	4.77278	1.0651
 218	1	5	-0.006128	1.68879	5.04915	-0.68096
 219	1	5	0.002513	4.08093	0.719336	-2.1524
 220	1	5	0.147318	5.78632	0.579499	-1.73053
 221	1	5	0.144731	5.29871	1.63156	-3.06601
 222	1	1	-0.211274	8.61989	2.15197	2.73647
 223	1	2	0.221306	9.18511	3.22551	1.82326
 224	1	2	-0.631195	10.5777	3.3657	1.7222
 225	1	3	0.289556	11.232	2.74982	2.32921
 226	1	2	0.263167	11.1343	4.369	0.919054
 227	1	2	-0.339066	10.2844	5.21184	0.192963
 228	1	3	0.163087	10.719	6.01704	-0.391818
 229	1	2	0.033139	8.88647	5.09881	0.288075
 230	1	1	-0.070169	8.0117	6.11517	-0.437232
 231	1	2	-0.051663	8.33239	4.10913	1.12888
 232	1	4	-0.031436	6.99347	4.12356	1.44047
 233	1	5	0.081364	7.25506	5.61778	-1.0561
 234	1	5	-0.00525	8.6019	6.75812	-1.102
 235	1	5	-0.006128	7.49199	6.76608	0.277116
 236	1	5	0.002513	9.4077	1.60393	3.26798
 237	1	5	0.147318	8.03782	1.42602	2.15655
 238	1	5	0.144731	7.95501	2.5931	3.48772
 239	1	1	-0.211274	12.3407	2.09493	-0.685126
 240	1	2	0.221306	13.5978	2.82223	-0.236523
 241	1	2	-0.631195	14.8191	2.30252	-0.696429
 242	1	3	0.289556	14.8244	1.4376	-1.34947
 243	1	2	0.263167	16.042	2.89039	-0.357357
 244	1	2	-0.339066	16.0428	4.01179	0.478778
 245	1	3	0.163087	16.9813	4.47868	0.747162
 246	1	2	0.033139	14.8352	4.57175	0.931335
 247	1	1	-0.070169	14.8885	5.84367	1.77292
 248	1	2	-0.051663	13.5969	3.98969	0.571537
 249	1	4	-0.031436	12.4686	4.67608	0.982781
 250	1	5	0.081364	14.3687	5.70386	2.72918
 251	1	5	-0.00525	14.4106	6.68132	1.24807
 252	1	5	-0.006128	15.9187	6.14281	1.99913
 253	1	5	0.002513	12.56	1.29606	-1.40441
 254	1	5	0.147318	11.638	2.78116	-1.16846
 255	1	5	0.144731	11.8398	1.62656	0.168015
 256	1	1	-0.211274	19.1916	4.52143	-1.18239
 257	1	2	0.221306	19.4085	3.22292	-0.423105
 258	1	2	-0.631195	20.6684	3.00114	0.15192
 259	1	3	0.289556	21.447	3.75296	0.0836104
 260	1	2	0.263167	20.946	1.80364	0.817542
 261	1	2	-0.339066	19.9573	0.820255	0.906907
 262	1	3	0.163087	20.185	-0.114012	1.41109
 263	1	2	0.033139	18.6845	1.02025	0.348753
 264	1	1	-0.070169	17.6724	-0.116276	0.457432
 265	1	2	-0.051663	18.3984	2.23867	-0.310335
 266	1	4	-0.031436	17.1886	2.40788	-0.94079
 267	1	5	0.081364	16.7721	0.0495095	-0.143203
 268	1	5	-0.00525	17.3542	-0.252616	1.49836
 269	1	5	-0.006128	18.115	-1.06235	0.119438
 270	1	5	0.002513	18.7311	5.2847	-0.544065
 271	1	5	0.147318	18.5473	4.37076	-2.0554
 272	1	5	0.144731	20.1422	4.92445	-1.54873
 273	1	6	0	-5.50529	11.9615	0.625983
 274	1	3	0	21.9272	1.63354	1.25152

Velocities

   1	-0.00386741	-0.000960081	-0.0074308
   2	0.00238108	0.00183906	0.00184758
   3	-0.0014037	-0.00201784	0.00133264
   4	-0.000140725	-0.00100525	-0.00435616
   5	0.000998774	0.00399705	0.000729819
   6	0.00130624	-0.00136794	0.00257457
   7	0.00110379	0.00230597	-0.00251442
   8	0.00100616	0.00121414	0.002944
   9	-0.00371024	-0.00922174	-0.00238752
  10	0.00160562	0.00242484	0.00737672
  11	0.00297019	0.00590034	0.0099313
  12	-0.0114777	-0.00355775	-0.00771733
  13	-0.00618269	-0.0168218	-0.00582882
  14	-5.01412e-05	-0.0133789	-0.0012248
  15	-0.00576238	-0.00291461	-0.00975089
  16	-0.00743658	-0.00555944	-0.00680612
  17	-0.00103554	0.00863766	-0.0114927
  18	-0.00107404	0.00192466	0.000443494
  19	-0.00196617	-0.000433875	0.00133711
  20	0.00136801	0.00154409	-0.000832332
  21	-0.00083019	-0.00193699	0.00221547
  22	0.000175828	-0.00101639	-0.000353259
  23	0.00237707	0.00215494	0.000341639
  24	-0.000883636	-0.00119078	-0.00288753
  25	-0.00182338	-0.000154275	0.000209842
  26	0.000354487	0.00357936	0.00153833
  27	0.000886537	0.00346105	0.000701663
  28	-0.00096758	0.000139232	0.000896163
  29	-0.0011035	0.00232336	-0.00027297
  30	-0.000382292	0.00346313	0.00142146
  31	-0.000707064	0.00147836	0.00224357
  32	-0.00289199	0.000517608	0.00151345
  33	-0.000709056	0.00238357	0.000470163
  34	-0.00178789	-0.000310567	0.00151741
  35	0.00130393	-0.000866791	-0.000240775
  36	0.00142875	-0.000185149	-0.000914527
  37	0.000576566	-0.00122965	-0.000385293
  38	0.000427873	-0.000458849	-0.000651337
  39	0.000758834	0.000367264	-0.000766245
  40	0.000367369	-0.000284486	-4.73229e-05
  41	0.00164822	0.00152179	-0.000503962
  42	0.00158353	0.000653428	-0.000695957
  43	0.00210786	0.00152211	-6.703e-06
  44	0.00118484	-0.00085034	-0.000529746
  45	0.00178767	-0.000320421	-0.00146079
  46	0.00349763	0.00116893	-0.00037862
  47	0.00165294	0.0023045	0.000339402
  48	0.00215931	0.00192987	-4.13818e-05
  49	0.00126011	-0.000448654	-0.000337641
  50	0.00136599	-0.000588778	7.54024e-05
  51	0.00156074	-0.000226337	-0.000573661
  52	-0.00150213	-0.0007449	0.000266645
  53	-0.000518927	-0.000340496	1.62882e-05
  54	-0.000318027	-0.000326157	0.000247509
  55	-0.000433408	-0.000252669	0.00037712
  56	-0.000100126	-0.000345205	0.000191499
  57	-9.83165e-05	-0.000604287	-2.4603e-06
  58	-6.60446e-05	-0.000815268	-2.0574e-05
  59	-0.000223324	-0.000501298	-0.000195777
  60	-0.000399801	-0.000839579	-0.000307171
  61	-0.000292295	-0.000283311	-0.000241804
  62	-0.000167227	-0.000299705	-0.000391774
  63	-0.00189716	-0.00232048	0.000742312
  64	0.000564792	-0.00115151	-0.00231979
  65	0.000174953	0.00103004	0.000741242
  66	-0.00166301	-0.000224086	0.00106596
  67	-0.00140393	-0.000631427	0.000119272
  68	-0.00178289	-0.00131577	-0.00036581
  69	0.000648113	-0.00111981	-0.00019536
  70	9.28171e-05	-0.000569592	0.000537147
  71	0.000192691	-0.000648712	0.000318262
  72	0.00031285	-0.00090201	-0.000506686
  73	0.000114683	-0.000595866	0.00041794
  74	-0.000236326	-0.00026213	0.00107884
  75	-0.000248751	-0.000222404	0.00135049
  76	-0.000211825	-0.000209179	0.00135202
  77	-0.000644022	-2.01344e-05	0.00206093
  78	-0.000102255	-0.000360096	0.000862488
  79	0.0001292	-0.000420403	0.000530642
  80	7.86887e-05	0.000203913	0.0019871
  81	-0.000846191	0.000117144	0.00258525
  82	-0.000971731	-0.000329604	0.00151532
  83	0.000699263	-0.00134691	-0.000565363
  84	0.0010362	-0.000469274	-0.000207792
  85	0.000149823	-0.00159194	-0.00024981
  86	0.00140942	-0.00110402	-0.000453815
  87	0.000912193	-0.000598031	-0.000212455
  88	0.000974469	-0.000317886	-3.54833e-06
  89	0.00120057	-0.000643072	0.000225681
  90	0.000761598	0.000311072	-0.000235007
  91	0.000637554	0.00128438	-0.00072674
  92	0.00045902	0.00243503	-0.00132697
  93	0.000586426	0.000855543	-0.000829941
  94	0.000266705	0.00284385	-0.00183871
  95	0.000602093	-0.000343852	-0.000493799
  96	0.000408602	-0.000962798	-0.000483356
  97	0.0014644	0.00272134	-0.00309665
  98	0.000352038	0.0026888	-0.00176428
  99	-0.000923423	0.00352446	-0.000855361
 100	0.00091737	-0.00087964	-0.000290242
 101	0.00119327	-0.00184395	-0.000442587
 102	0.00199643	-0.000434848	-0.0004482
 103	0.000131099	0.00119262	0.000500501
 104	-4.74991e-06	0.000873663	-0.000489457
 105	-0.000578723	0.00120424	-0.000594968
 106	-0.000686809	0.00187678	-0.000630028
 107	-0.000873256	0.000491432	-0.00141374
 108	-0.000861046	-0.000731545	-0.00168652
 109	-0.00156095	-0.00146267	-0.00236379
 110	-0.000396003	-0.000687265	-0.00130485
 111	-0.000236432	-0.00254955	-0.00171964
 112	0.000349536	0.000120109	-0.000465036
 113	0.000753097	0.000202169	-0.000313762
 114	-0.000221132	-0.00323932	-0.00262055
 115	-0.000320409	-0.00265593	-0.000271151
 116	-0.000533035	-0.00197849	-0.00262613
 117	-0.000501247	0.000935083	-7.43416e-05
 118	0.00117738	0.00140729	0.000474301
 119	-0.000709962	0.00136288	0.00143471
 120	0.000166265	0.000617265	-0.00094179
 121	-0.000110979	0.000446109	-6.46865e-05
 122	0.00107356	2.24668e-05	0.000777966
 123	0.00136711	-0.000252695	0.00138988
 124	0.000475169	8.25882e-05	0.00110421
 125	-0.000655756	-0.00054333	0.00101542
 126	-0.00037263	-0.000600049	0.00110388
 127	-0.000523918	0.000321032	-1.81167e-05
 128	-0.00207868	0.00041216	0.000531238
 129	-0.00071866	0.000651644	-0.000614403
 130	-0.00125222	0.00107783	-0.00171576
 131	-0.0018005	-0.000603988	-0.000589373
 132	-0.00350767	0.000973101	0.000972957
 133	-0.000665289	0.00148535	0.000875325
 134	-0.000648445	-0.000579857	0.000534463
 135	-0.000846003	0.000211507	-0.00306721
 136	0.00125385	0.00215239	-0.00042205
 137	0.00149238	-0.00310414	0.00166608
 138	0.000249543	-0.000802665	0.00138807
 139	-0.000143928	-0.000319827	0.000939329
 140	7.99028e-05	-0.000737432	0.00152227
 141	-0.000647108	0.000531542	0.00102328
 142	-0.000510043	0.000743776	0.000621832
 143	-0.000939785	0.00106443	0.00066053
 144	-6.87703e-05	-9.5814e-05	0.00111431
 145	0.000785203	-0.0013165	0.00104095
 146	0.000379	-0.000458022	0.000946837
 147	0.00059229	-0.00100967	0.00116918
 148	-0.00135605	-0.00230726	0.00138806
 149	0.00099007	0.000414657	0.000877279
 150	0.00279725	-0.00261749	0.00131168
 151	0.00381261	-0.00307009	-0.000221653
 152	0.000493053	-0.00199415	0.00157602
 153	0.000454294	-0.00485256	0.00360553
 154	-0.00164043	0.000606973	0.00271555
 155	-0.000839712	0.000463139	0.000626502
 156	-0.000546865	0.000337596	-0.000292019
 157	-0.000240285	0.000470634	-1.00717e-05
 158	5.45498e-06	0.00051448	-0.00122882
 159	-0.00011297	0.000163072	-0.00131735
 160	0.000148191	0.000246312	-0.00223344
 161	-0.000637981	0.000294847	-0.000344377
 162	-0.000716187	0.000112076	9.06469e-05
 163	-0.000813761	0.000342838	0.000474745
 164	-0.000864919	0.000429836	0.000743388
 165	-0.000297714	0.000377886	0.000304082
 166	-0.000997524	0.000205231	-0.000297632
 167	-0.00120618	5.60387e-05	0.000518712
 168	-0.00286734	-0.0014091	0.00390994
 169	-0.00127751	4.87317e-05	0.00136558
 170	-0.000989557	0.00302848	0.00337843
 171	-6.80438e-05	0.00128215	-0.00142404
 172	0.000313387	0.000841428	-0.00135219
 173	0.000129771	0.000637333	-0.000901226
 174	-0.000144614	0.000778136	-0.000874523
 175	0.000533453	0.000480819	-0.000716904
 176	0.00102963	0.000334112	-0.000691602
 177	0.00131114	0.000207372	-0.000729912
 178	0.000958376	0.000516875	-0.00131865
 179	0.00125614	-1.74218e-05	-0.00164129
 180	0.000600635	0.000649226	-0.00144109
 181	0.000429939	0.000465493	-0.0021287
 182	0.0013995	-2.66081e-05	-0.00120854
 183	0.00108964	-0.000214241	-0.00217061
 184	0.000892523	0.000358933	-0.00195253
 185	0.000943975	0.00308758	-0.00127334
 186	-0.00187504	0.000831739	-0.0024405
 187	0.000977624	-0.000353569	-0.00104678
 188	0.00155688	-0.00151273	-5.51636e-05
 189	0.000932657	-0.000658455	-0.000106472
 190	0.000872078	-0.00057795	0.000220805
 191	0.00125397	-0.000891469	-0.000157868
 192	0.000229212	0.000367909	-0.000147486
 193	0.000263377	0.000511781	0.000101438
 194	-0.000294078	0.000806676	-0.000280819
 195	0.000413259	1.9295e-05	-0.000210074
 196	0.000590745	-0.000305522	-9.46658e-05
 197	0.000585885	-8.39112e-05	0.000100165
 198	0.000453921	0.000166622	-0.000229383
 199	0.000636348	-0.000258801	0.000526251
 200	0.00042576	7.37815e-05	-0.000506537
 201	0.000784046	-0.000810434	-0.000547793
 202	0.00230012	-0.00213019	0.00146058
 203	0.00180065	-0.00200689	-0.00184364
 204	0.00078101	-0.000460611	-3.16353e-05
 205	-0.00184989	-0.000297689	0.000726065
 206	-0.000346399	0.000101022	0.000796841
 207	-0.000709828	-0.000768944	0.000204841
 208	-0.000574561	-0.000749145	0.000585355
 209	-6.61547e-05	-4.91199e-05	0.000789017
 210	0.000334047	-0.000543168	0.000931933
 211	0.000455554	-0.000262772	0.00158127
 212	-1.34674e-05	0.000243627	0.00103194
 213	0.000532717	0.000633441	0.00178665
 214	-0.000548774	0.000668846	0.000472639
 215	-0.000286259	0.00145201	0.000182093
 216	0.000998697	0.000221621	0.00381941
 217	-0.000298106	-0.00058556	0.000681036
 218	0.000776373	0.00259487	0.000845564
 219	-0.00140252	-2.34813e-05	0.00217614
 220	-0.00110122	-0.000178504	0.000222424
 221	-0.00279338	-0.000471392	0.00017948
 222	8.95755e-05	0.00102192	0.00127705
 223	0.000199843	0.000124909	0.000250488
 224	0.000307771	-2.22308e-05	0.000334888
 225	7.85252e-05	0.000241575	0.000187468
 226	0.000319993	0.000180359	0.000343881
 227	0.000314615	0.000156748	0.000434663
 228	0.000317957	0.000308329	0.000518567
 229	0.000264104	-5.41199e-05	0.000100819
 230	0.000230574	-0.000298064	-0.000223832
 231	0.000313757	-0.000119654	1.80335e-05
 232	0.000228542	-0.00024384	6.76573e-05
 233	0.00146913	-0.000682788	-0.00134215
 234	0.000324797	0.000643078	0.00104259
 235	-0.00128326	-0.0013114	-0.000320869
 236	5.75522e-05	4.35444e-05	0.000159969
 237	-0.00192814	0.00145416	0.00208615
 238	0.00198039	0.00200743	0.00189698
 239	-0.000862358	0.00168184	-0.00202131
 240	-0.000274201	0.000172893	-0.00067204
 241	-0.000544759	-0.000273631	-0.00104909
 242	-0.00102993	0.000292956	-0.00173623
 243	-0.000383697	-0.000913131	-0.000623396
 244	0.000571627	-0.00141014	-7.54114e-06
 245	-0.000305932	-0.00235066	3.62262e-06
 246	0.000271975	-0.00097545	0.000136727
 247	0.00157975	-0.00101968	-4.99545e-05
 248	0.000288027	-0.000426099	-0.000118641
 249	0.000380001	-5.15027e-05	0.000219065
 250	0.00149758	-0.000715679	0.000274431
 251	0.00147443	-0.000663133	-0.000149157
 252	0.00108523	-0.0016979	-0.000595256
 253	-0.00130657	0.00285976	-0.00335087
 254	0.000131662	0.00257091	-0.000406005
 255	-0.00120381	0.000397793	-0.00246878
 256	-0.000762226	-9.86792e-05	-0.000606451
 257	-0.000330716	5.64712e-05	-0.000428471
 258	-0.00114555	0.000530198	0.000273558
 259	-0.000835529	0.00126098	0.000841478
 260	-0.000905433	0.000852782	0.000873104
 261	-0.000792279	0.000710613	0.000591802
 262	-0.000751689	0.00084604	0.0016867
 263	-0.000316551	-1.62721e-05	8.20707e-05
 264	-0.000768055	0.000467631	0.000765795
 265	-0.000605138	-0.000285768	-0.000868647
 266	-0.000235989	-0.000773874	-0.000809019
 267	-0.000565042	2.5941e-05	0.000592749
 268	-0.000865121	0.00135505	0.000739297
 269	-0.00084195	-0.000312865	0.00154201
 270	0.000863225	0.000492896	-4.26398e-05
 271	-0.00200924	0.000328495	0.00054998
 272	-0.00076693	-0.000885471	-0.0021528
 273	0.00284843	0.0149623	0.0158839
 274	-0.00118998	0.0014923	0.00190316

Bonds

   1	5	1	2
   2	6	1	15
   3	6	1	16
   4	6	1	17
   5	2	2	3
   6	2	2	10
   7	4	3	4
   8	2	3	5
   9	2	5	6
  10	4	6	7
  11	2	6	8
  12	5	8	9
  13	2	8	10
  14	6	9	12
  15	6	9	13
  16	6	9	14
  17	3	10	11
  18	5	18	19
  19	6	18	32
  20	6	18	33
  21	6	18	34
  22	2	19	20
  23	2	19	27
  24	4	20	21
  25	2	20	22
  26	2	22	23
  27	4	23	24
  28	2	23	25
  29	5	25	26
  30	2	25	27
  31	6	26	29
  32	6	26	30
  33	6	26	31
  34	3	27	28
  35	3	5	28
  36	5	35	36
  37	6	35	49
  38	6	35	50
  39	6	35	51
  40	2	36	37
  41	2	36	44
  42	4	37	38
  43	2	37	39
  44	2	39	40
  45	4	40	41
  46	2	40	42
  47	5	42	43
  48	2	42	44
  49	6	43	46
  50	6	43	47
  51	6	43	48
  52	3	44	45
  53	3	22	45
  54	5	52	53
  55	6	52	66
  56	6	52	67
  57	6	52	68
  58	2	53	54
  59	2	53	61
  60	4	54	55
  61	2	54	56
  62	2	56	57
  63	4	57	58
  64	2	57	59
  65	5	59	60
  66	2	59	61
  67	6	60	63
  68	6	60	64
  69	6	60	65
  70	3	61	62
  71	3	39	62
  72	5	69	70
  73	6	69	83
  74	6	69	84
  75	6	69	85
  76	2	70	71
  77	2	70	78
  78	4	71	72
  79	2	71	73
  80	2	73	74
  81	4	74	75
  82	2	74	76
  83	5	76	77
  84	2	76	78
  85	6	77	80
  86	6	77	81
  87	6	77	82
  88	3	78	79
  89	3	56	79
  90	5	86	87
  91	6	86	100
  92	6	86	101
  93	6	86	102
  94	2	87	88
  95	2	87	95
  96	4	88	89
  97	2	88	90
  98	2	90	91
  99	4	91	92
 100	2	91	93
 101	5	93	94
 102	2	93	95
 103	6	94	97
 104	6	94	98
 105	6	94	99
 106	3	95	96
 107	3	73	96
 108	5	103	104
 109	6	103	117
 110	6	103	118
 111	6	103	119
 112	2	104	105
 113	2	104	112
 114	4	105	106
 115	2	105	107
 116	2	107	108
 117	4	108	109
 118	2	108	110
 119	5	110	111
 120	2	110	112
 121	6	111	114
 122	6	111	115
 123	6	111	116
 124	3	112	113
 125	3	90	113
 126	5	120	121
 127	6	120	134
 128	6	120	135
 129	6	120	136
 130	2	121	122
 131	2	121	129
 132	4	122	123
 133	2	122	124
 134	2	124	125
 135	4	125	126
 136	2	125	127
 137	5	127	128
 138	2	127	129
 139	6	128	131
 140	6	128	132
 141	6	128	133
 142	3	129	130
 143	3	107	130
 144	5	137	138
 145	6	137	151
 146	6	137	152
 147	6	137	153
 148	2	138	139
 149	2	138	146
 150	4	139	140
 151	2	139	141
 152	2	141	142
 153	4	142	143
 154	2	142	144
 155	5	144	145
 156	2	144	146
 157	6	145	148
 158	6	145	149
 159	6	145	150
 160	3	146	147
 161	3	124	147
 162	5	154	155
 163	6	154	168
 164	6	154	169
 165	6	154	170
 166	2	155	156
 167	2	155	163
 168	4	156	157
 169	2	156	158
 170	2	158	159
 171	4	159	160
 172	2	159	161
 173	5	161	162
 174	2	161	163
 175	6	162	165
 176	6	162	166
 177	6	162	167
 178	3	163	164
 179	3	141	164
 180	5	171	172
 181	6	171	185
 182	6	171	186
 183	6	171	187
 184	2	172	173
 185	2	172	180
 186	4	173	174
 187	2	173	175
 188	2	175	176
 189	4	176	177
 190	2	176	178
 191	5	178	179
 192	2	178	180
 193	6	179	182
 194	6	179	183
 195	6	179	184
 196	3	180	181
 197	3	158	181
 198	5	188	189
 199	6	188	202
 200	6	188	203
 201	6	188	204
 202	2	189	190
 203	2	189	197
 204	4	190	191
 205	2	190	192
 206	2	192	193
 207	4	193	194
 208	2	193	195
 209	5	195	196
 210	2	195	197
 211	6	196	199
 212	6	196	200
 213	6	196	201
 214	3	197	198
 215	3	175	198
 216	5	205	206
 217	6	205	219
 218	6	205	220
 219	6	205	221
 220	2	206	207
 221	2	206	214
 222	4	207	208
 223	2	207	209
 224	2	209	210
 225	4	210	211
 226	2	210	212
 227	5	212	213
 228	2	212	214
 229	6	213	216
 230	6	213	217
 231	6	213	218
 232	3	214	215
 233	3	192	215
 234	5	222	223
 235	6	222	236
 236	6	222	237
 237	6	222	238
 238	2	223	224
 239	2	223	231
 240	4	224	225
 241	2	224	226
 242	2	226	227
 243	4	227	228
 244	2	227	229
 245	5	229	230
 246	2	229	231
 247	6	230	233
 248	6	230	234
 249	6	230	235
 250	3	231	232
 251	3	209	232
 252	5	239	240
 253	6	239	253
 254	6	239	254
 255	6	239	255
 256	2	240	241
 257	2	240	248
 258	4	241	242
 259	2	241	243
 260	2	243	244
 261	4	244	245
 262	2	244	246
 263	5	246	247
 264	2	246	248
 265	6	247	250
 266	6	247	251
 267	6	247	252
 268	3	248	249
 269	3	226	249
 270	5	256	257
 271	6	256	270
 272	6	256	271
 273	6	256	272
 274	2	257	258
 275	2	257	265
 276	4	258	259
 277	2	258	260
 278	2	260	261
 279	4	261	262
 280	2	261	263
 281	5	263	264
 282	2	263	265
 283	6	264	267
 284	6	264	268
 285	6	264	269
 286	3	265	266
 287	3	243	266
 288	1	11	273
 289	4	260	274

Angles

   1	1	2	1	15
   2	1	2	1	16
   3	1	2	1	17
   4	5	15	1	16
   5	5	15	1	17
   6	5	16	1	17
   7	7	1	2	3
   8	7	1	2	10
   9	4	3	2	10
  10	6	2	3	4
  11	4	2	3	5
  12	6	4	3	5
  13	4	3	5	6
  14	6	5	6	7
  15	4	5	6	8
  16	6	7	6	8
  17	7	6	8	9
  18	4	6	8	10
  19	7	9	8	10
  20	1	8	9	12
  21	1	8	9	13
  22	1	8	9	14
  23	5	12	9	13
  24	5	12	9	14
  25	5	13	9	14
  26	4	2	10	8
  27	3	2	10	11
  28	3	8	10	11
  29	1	19	18	32
  30	1	19	18	33
  31	1	19	18	34
  32	5	32	18	33
  33	5	32	18	34
  34	5	33	18	34
  35	7	18	19	20
  36	7	18	19	27
  37	4	20	19	27
  38	6	19	20	21
  39	4	19	20	22
  40	6	21	20	22
  41	4	20	22	23
  42	6	22	23	24
  43	4	22	23	25
  44	6	24	23	25
  45	7	23	25	26
  46	4	23	25	27
  47	7	26	25	27
  48	1	25	26	29
  49	1	25	26	30
  50	1	25	26	31
  51	5	29	26	30
  52	5	29	26	31
  53	5	30	26	31
  54	4	19	27	25
  55	3	19	27	28
  56	3	25	27	28
  57	3	3	5	28
  58	3	6	5	28
  59	8	5	28	27
  60	1	36	35	49
  61	1	36	35	50
  62	1	36	35	51
  63	5	49	35	50
  64	5	49	35	51
  65	5	50	35	51
  66	7	35	36	37
  67	7	35	36	44
  68	4	37	36	44
  69	6	36	37	38
  70	4	36	37	39
  71	6	38	37	39
  72	4	37	39	40
  73	6	39	40	41
  74	4	39	40	42
  75	6	41	40	42
  76	7	40	42	43
  77	4	40	42	44
  78	7	43	42	44
  79	1	42	43	46
  80	1	42	43	47
  81	1	42	43	48
  82	5	46	43	47
  83	5	46	43	48
  84	5	47	43	48
  85	4	36	44	42
  86	3	36	44	45
  87	3	42	44	45
  88	3	20	22	45
  89	3	23	22	45
  90	8	22	45	44
  91	1	53	52	66
  92	1	53	52	67
  93	1	53	52	68
  94	5	66	52	67
  95	5	66	52	68