pySIMM System Object

850 atoms
899 bonds
1547 angles
1992 dihedrals
200 impropers

6 atom types
6 bond types
8 angle types
3 dihedral types
2 improper types

-134.714361 134.714361 xlo xhi
-134.714361 134.714361 ylo yhi
-134.714361 134.714361 zlo zhi

Masses

   1	12.01	# c3
   2	12.01	# ca
   3	1.008	# ha
   4	16.0	# oh
   5	1.008	# hc
   6	1.008	# ho

Pair Coeffs

   1	0.1094	3.3996695084235347	# c3
   2	0.086	3.3996695084235347	# ca
   3	0.015	2.59964245953351	# ha
   4	0.2104	3.0664733878390478	# oh
   5	0.0157	2.649532787749369	# hc
   6	0.0047	0.5379246460131368	# ho

Bond Coeffs

   1	371.4	0.973	# ho,oh
   2	461.1	1.3984	# ca,ca
   3	384.0	1.3637	# ca,oh
   4	345.8	1.086	# ca,ha
   5	321.0	1.5156	# c3,ca
   6	330.6	1.0969	# c3,hc

Angle Coeffs

   1	46.8	110.47	# ca,c3,hc
   2	49.0	108.58	# ca,oh,ho
   3	69.52	119.9	# ca,ca,oh
   4	66.62	120.02	# ca,ca,ca
   5	39.4	107.58	# hc,c3,hc
   6	48.18	119.88	# ca,ca,ha
   7	63.53	120.77	# c3,ca,ca
   8	63.5	119.89	# ca,oh,ca

Dihedral Coeffs

   1	1	3.625	2	180	# X,ca,ca,X
   2	1	0.9	2	180	# X,ca,oh,X
   3	1	0.0	2	0	# X,c3,ca,X

Improper Coeffs

   1	1.1	-1	2	# ca,X,X,ha
   2	1.1	-1	2	# ca,ca,ca,c3

Atoms

   1	1	1	-0.211274	28.3611	62.9193	-61.3584
   2	1	2	0.221306	28.7982	64.2549	-61.9371
   3	1	2	-0.631195	28.1505	64.7556	-63.0769
   4	1	3	0.289556	27.3422	64.1859	-63.5237
   5	1	2	0.263167	28.5353	65.9863	-63.6381
   6	1	2	-0.339066	29.5653	66.7172	-63.0349
   7	1	3	0.163087	29.8554	67.6727	-63.4617
   8	1	2	0.033139	30.2269	66.2336	-61.8946
   9	1	1	-0.070169	31.3518	67.049	-61.2721
  10	1	2	-0.051663	29.8419	64.9953	-61.3473
  11	1	4	-0.031436	30.4859	64.5149	-60.2414
  12	1	5	0.081364	31.096	67.3495	-60.2488
  13	1	5	-0.00525	31.5606	67.9597	-61.8467
  14	1	5	-0.006128	32.2812	66.4673	-61.2309
  15	1	5	0.002513	27.4937	62.5007	-61.8843
  16	1	5	0.147318	28.0904	63.0287	-60.3019
  17	1	5	0.144731	29.1764	62.1885	-61.4154
  18	1	1	-0.211274	29.241	64.3141	-66.2106
  19	1	2	0.221306	27.7809	64.7053	-66.3695
  20	1	2	-0.631195	26.9933	63.9441	-67.2403
  21	1	3	0.289556	27.4293	63.091	-67.7464
  22	1	2	0.263167	25.6388	64.2482	-67.4404
  23	1	2	-0.339066	25.0829	65.3526	-66.7838
  24	1	3	0.163087	24.0356	65.5893	-66.9445
  25	1	2	0.033139	25.8509	66.1241	-65.8948
  26	1	1	-0.070169	25.2024	67.2924	-65.1646
  27	1	2	-0.051663	27.199	65.781	-65.6616
  28	1	4	-0.031436	27.9278	66.5103	-64.7528
  29	1	5	0.081364	25.1834	67.1163	-64.0832
  30	1	5	-0.00525	24.1684	67.4502	-65.4947
  31	1	5	-0.006128	25.7552	68.2235	-65.3383
  32	1	5	0.002513	29.6061	63.744	-67.0743
  33	1	5	0.147318	29.3781	63.6936	-65.3177
  34	1	5	0.144731	29.8789	65.1993	-66.1069
  35	1	1	-0.211274	25.6832	61.9925	-70.5656
  36	1	2	0.221306	25.4231	61.3221	-69.2286
  37	1	2	-0.631195	25.6739	59.947	-69.0914
  38	1	3	0.289556	26.0492	59.378	-69.9348
  39	1	2	0.263167	25.4591	59.3002	-67.8683
  40	1	2	-0.339066	24.9475	60.0367	-66.7893
  41	1	3	0.163087	24.7481	59.5456	-65.8422
  42	1	2	0.033139	24.7011	61.4094	-66.9016
  43	1	1	-0.070169	24.141	62.1392	-65.6924
  44	1	2	-0.051663	24.9669	62.0668	-68.1216
  45	1	4	-0.031436	24.8462	63.4341	-68.2107
  46	1	5	0.081364	23.7007	61.4401	-64.9718
  47	1	5	-0.00525	23.352	62.8415	-65.9887
  48	1	5	-0.006128	24.93	62.6969	-65.1737
  49	1	5	0.002513	26.0612	61.2869	-71.3162
  50	1	5	0.147318	26.4191	62.7978	-70.4594
  51	1	5	0.144731	24.7575	62.4331	-70.9549
  52	1	1	-0.211274	28.2429	58.6977	-66.3278
  53	1	2	0.221306	27.1638	57.8026	-65.7425
  54	1	2	-0.631195	27.2934	57.389	-64.4112
  55	1	3	0.289556	28.1595	57.7007	-63.8354
  56	1	2	0.263167	26.3023	56.6037	-63.8057
  57	1	2	-0.339066	25.1964	56.1958	-64.5608
  58	1	3	0.163087	24.4321	55.5877	-64.089
  59	1	2	0.033139	25.0368	56.611	-65.8928
  60	1	1	-0.070169	23.7728	56.2298	-66.6518
  61	1	2	-0.051663	26.019	57.432	-66.4832
  62	1	4	-0.031436	25.791	57.9743	-67.7259
  63	1	5	0.081364	24.0217	55.6941	-67.5763
  64	1	5	-0.00525	23.1926	57.121	-66.9229
  65	1	5	-0.006128	23.1205	55.5794	-66.0554
  66	1	5	0.002513	29.1321	58.7427	-65.6862
  67	1	5	0.147318	27.87	59.7211	-66.4529
  68	1	5	0.144731	28.5597	58.3297	-67.31
  69	1	1	-0.211274	25.6743	59.0789	-61.7954
  70	1	2	0.221306	26.8244	58.2932	-61.1896
  71	1	2	-0.631195	27.5868	58.9281	-60.2011
  72	1	3	0.289556	27.3558	59.9526	-59.9272
  73	1	2	0.263167	28.6184	58.2447	-59.5375
  74	1	2	-0.339066	28.9018	56.9238	-59.8976
  75	1	3	0.163087	29.7002	56.3969	-59.3848
  76	1	2	0.033139	28.1597	56.2693	-60.8943
  77	1	1	-0.070169	28.4952	54.826	-61.2484
  78	1	2	-0.051663	27.1082	56.9515	-61.5406
  79	1	4	-0.031436	26.3544	56.2773	-62.4745
  80	1	5	0.081364	28.6133	54.7042	-62.3324
  81	1	5	-0.00525	27.6997	54.1477	-60.9161
  82	1	5	-0.006128	29.431	54.4977	-60.7787
  83	1	5	0.002513	24.7172	58.7129	-61.409
  84	1	5	0.147318	25.6629	59.0087	-62.8874
  85	1	5	0.144731	25.7385	60.1453	-61.5529
  86	1	1	-0.211274	26.9887	58.9874	-56.7979
  87	1	2	0.221306	27.8692	60.1744	-57.1507
  88	1	2	-0.631195	27.5142	61.4388	-56.6626
  89	1	3	0.289556	26.6338	61.5521	-56.0398
  90	1	2	0.263167	28.2882	62.5652	-56.9597
  91	1	2	-0.339066	29.4409	62.412	-57.7475
  92	1	3	0.163087	30.0617	63.2747	-57.9628
  93	1	2	0.033139	29.8096	61.1596	-58.2586
  94	1	1	-0.070169	31.0558	61.0412	-59.1268
  95	1	2	-0.051663	29.0125	60.0362	-57.9687
  96	1	4	-0.031436	29.3382	58.8228	-58.5212
  97	1	5	0.081364	31.8041	60.3993	-58.6462
  98	1	5	-0.00525	31.5232	62.0176	-59.304
  99	1	5	-0.006128	30.8167	60.6081	-60.1061
 100	1	5	0.002513	26.2869	59.2222	-55.9877
 101	1	5	0.147318	27.596	58.1348	-56.473
 102	1	5	0.144731	26.4025	58.6712	-57.6687
 103	1	1	-0.211274	27.9102	65.9666	-58.3681
 104	1	2	0.221306	28.8962	65.8589	-57.2164
 105	1	2	-0.631195	29.9107	66.8198	-57.0927
 106	1	3	0.289556	29.972	67.634	-57.8066
 107	1	2	0.263167	30.8469	66.7419	-56.0462
 108	1	2	-0.339066	30.7472	65.7041	-55.115
 109	1	3	0.163087	31.4656	65.6511	-54.3027
 110	1	2	0.033139	29.7415	64.7321	-55.2196
 111	1	1	-0.070169	29.6821	63.6088	-54.192
 112	1	2	-0.051663	28.8228	64.8006	-56.2878
 113	1	4	-0.031436	27.9115	63.7904	-56.4679
 114	1	5	0.081364	30.051	62.6698	-54.6227
 115	1	5	-0.00525	28.6545	63.4412	-53.8451
 116	1	5	-0.006128	30.2925	63.8333	-53.3081
 117	1	5	0.002513	27.8849	65.0434	-58.9585
 118	1	5	0.147318	28.1661	66.7873	-59.0473
 119	1	5	0.144731	26.8967	66.1528	-57.9944
 120	1	1	-0.211274	33.6023	67.4515	-58.2079
 121	1	2	0.221306	32.8487	68.7155	-57.8315
 122	1	2	-0.631195	32.9635	69.8494	-58.6485
 123	1	3	0.289556	33.5906	69.8231	-59.5332
 124	1	2	0.263167	32.2474	71.0163	-58.3545
 125	1	2	-0.339066	31.4082	71.0392	-57.229
 126	1	3	0.163087	30.8219	71.9242	-57.0096
 127	1	2	0.033139	31.2933	69.9245	-56.3876
 128	1	1	-0.070169	30.3711	69.9914	-55.1766
 129	1	2	-0.051663	32.0155	68.7548	-56.6946
 130	1	4	-0.031436	31.8733	67.6425	-55.9069
 131	1	5	0.081364	29.566	69.2509	-55.2554
 132	1	5	-0.00525	29.9016	70.9775	-55.0724
 133	1	5	-0.006128	30.9255	69.7906	-54.2515
 134	1	5	0.002513	34.0843	67.5342	-59.1902
 135	1	5	0.147318	32.9219	66.5917	-58.2441
 136	1	5	0.144731	34.3797	67.2352	-57.4667
 137	1	1	-0.211274	31.645	74.6479	-58.0131
 138	1	2	0.221306	30.7375	73.9079	-58.9805
 139	1	2	-0.631195	29.4414	74.3944	-59.2065
 140	1	3	0.289556	29.0937	75.2797	-58.6856
 141	1	2	0.263167	28.5558	73.7006	-60.039
 142	1	2	-0.339066	29.0086	72.5562	-60.7166
 143	1	3	0.163087	28.3391	72.0151	-61.376
 144	1	2	0.033139	30.2972	72.0512	-60.5039
 145	1	1	-0.070169	30.7087	70.7635	-61.2075
 146	1	2	-0.051663	31.1508	72.7063	-59.5938
 147	1	4	-0.031436	32.3145	72.0948	-59.202
 148	1	5	0.081364	30.5635	69.9022	-60.5446
 149	1	5	-0.00525	31.7644	70.7864	-61.5077
 150	1	5	-0.006128	30.1167	70.591	-62.1157
 151	1	5	0.002513	31.2312	75.6216	-57.7214
 152	1	5	0.147318	32.6259	74.8249	-58.4692
 153	1	5	0.144731	31.8011	74.0639	-57.0993
 154	1	1	-0.211274	26.1601	73.945	-62.7987
 155	1	2	0.221306	25.7364	73.0298	-61.6636
 156	1	2	-0.631195	24.8813	71.9585	-61.9422
 157	1	3	0.289556	24.4937	71.8299	-62.9457
 158	1	2	0.263167	24.5446	71.0323	-60.9498
 159	1	2	-0.339066	25.0152	71.2188	-59.6446
 160	1	3	0.163087	24.7449	70.5015	-58.8756
 161	1	2	0.033139	25.8568	72.3009	-59.3346
 162	1	1	-0.070169	26.3628	72.4599	-57.9059
 163	1	2	-0.051663	26.2523	73.1872	-60.3619
 164	1	4	-0.031436	27.2467	74.1092	-60.1354
 165	1	5	0.081364	25.6887	71.9772	-57.188
 166	1	5	-0.00525	26.4308	73.5174	-57.6206
 167	1	5	-0.006128	27.3567	72.0113	-57.7868
 168	1	5	0.002513	25.6917	73.6651	-63.7494
 169	1	5	0.147318	27.246	73.907	-62.9422
 170	1	5	0.144731	25.8824	74.9818	-62.58
 171	1	1	-0.211274	26.616	69.0783	-61.9827
 172	1	2	0.221306	25.547	68.1734	-61.3905
 173	1	2	-0.631195	25.8755	66.82	-61.2263
 174	1	3	0.289556	26.8616	66.4664	-61.5099
 175	1	2	0.263167	24.9395	65.8981	-60.7507
 176	1	2	-0.339066	23.6685	66.3539	-60.3783
 177	1	3	0.163087	22.9386	65.6437	-60.001
 178	1	2	0.033139	23.3112	67.7043	-60.5326
 179	1	1	-0.070169	21.9075	68.148	-60.1427
 180	1	2	-0.051663	24.2444	68.624	-61.0563
 181	1	4	-0.031436	23.8252	69.9191	-61.2876
 182	1	5	0.081364	21.9479	68.9115	-59.3559
 183	1	5	-0.00525	21.3083	67.3122	-59.7601
 184	1	5	-0.006128	21.3729	68.573	-61.0014
 185	1	5	0.002513	27.4613	68.5103	-62.387
 186	1	5	0.147318	27.0114	69.7575	-61.2185
 187	1	5	0.144731	26.2128	69.6817	-62.8026
 188	1	1	-0.211274	23.7429	64.6152	-63.2625
 189	1	2	0.221306	23.624	63.529	-62.2068
 190	1	2	-0.631195	22.7433	62.4684	-62.4588
 191	1	3	0.289556	22.1733	62.4684	-63.3801
 192	1	2	0.263167	22.5673	61.4302	-61.5321
 193	1	2	-0.339066	23.3301	61.4447	-60.3584
 194	1	3	0.163087	23.2129	60.6355	-59.644
 195	1	2	0.033139	24.2392	62.4837	-60.0929
 196	1	1	-0.070169	25.0666	62.4433	-58.8172
 197	1	2	-0.051663	24.376	63.548	-61.0079
 198	1	4	-0.031436	25.2639	64.5643	-60.7223
 199	1	5	0.081364	24.933	63.3596	-58.2293
 200	1	5	-0.00525	26.1315	62.3471	-59.0568
 201	1	5	-0.006128	24.7916	61.5949	-58.1782
 202	1	5	0.002513	23.2267	64.3517	-64.1916
 203	1	5	0.147318	24.7944	64.7978	-63.5054
 204	1	5	0.144731	23.3015	65.5542	-62.9144
 205	1	1	-0.211274	22.5122	57.9993	-63.1221
 206	1	2	0.221306	21.4516	58.9515	-63.6387
 207	1	2	-0.631195	20.8679	58.6598	-64.879
 208	1	3	0.289556	21.1925	57.7931	-65.444
 209	1	2	0.263167	19.8794	59.4905	-65.413
 210	1	2	-0.339066	19.4498	60.6026	-64.6759
 211	1	3	0.163087	18.6707	61.2425	-65.0771
 212	1	2	0.033139	20.0077	60.9071	-63.4245
 213	1	1	-0.070169	19.4551	62.1117	-62.6699
 214	1	2	-0.051663	21.0549	60.1012	-62.9195
 215	1	4	-0.031436	21.6751	60.3991	-61.7271
 216	1	5	0.081364	19.6782	62.0701	-61.597
 217	1	5	-0.00525	18.3636	62.1676	-62.77
 218	1	5	-0.006128	19.8691	63.0466	-63.0675
 219	1	5	0.002513	23.4959	58.2663	-63.5226
 220	1	5	0.147318	22.2915	56.9709	-63.4273
 221	1	5	0.144731	22.5659	58.0018	-62.028
 222	1	1	-0.211274	21.7183	60.2441	-68.0161
 223	1	2	0.221306	20.3234	60.806	-68.2076
 224	1	2	-0.631195	20.1593	61.9215	-69.0369
 225	1	3	0.289556	21.0243	62.3728	-69.5129
 226	1	2	0.263167	18.887	62.4688	-69.2507
 227	1	2	-0.339066	17.7702	61.857	-68.6686
 228	1	3	0.163087	16.7835	62.2679	-68.8559
 229	1	2	0.033139	17.9133	60.7383	-67.8314
 230	1	1	-0.070169	16.6783	60.1061	-67.2025
 231	1	2	-0.051663	19.2024	60.2333	-67.5713
 232	1	4	-0.031436	19.3726	59.2221	-66.6587
 233	1	5	0.081364	16.6457	59.0297	-67.4123
 234	1	5	-0.00525	15.7534	60.5458	-67.596
 235	1	5	-0.006128	16.6725	60.2371	-66.1132
 236	1	5	0.002513	22.4465	60.7246	-68.6805
 237	1	5	0.147318	21.7364	59.1704	-68.2316
 238	1	5	0.144731	22.0541	60.3864	-66.9832
 239	1	1	-0.211274	19.646	64.915	-67.5023
 240	1	2	0.221306	20.1053	65.2893	-68.9042
 241	1	2	-0.631195	21.0188	66.3455	-69.0294
 242	1	3	0.289556	21.3923	66.8305	-68.1344
 243	1	2	0.263167	21.461	66.7738	-70.2909
 244	1	2	-0.339066	20.9921	66.1146	-71.4324
 245	1	3	0.163087	21.3385	66.4422	-72.4072
 246	1	2	0.033139	20.0844	65.0473	-71.3341
 247	1	1	-0.070169	19.6011	64.3585	-72.6047
 248	1	2	-0.051663	19.6332	64.6301	-70.0647
 249	1	4	-0.031436	18.7135	63.6075	-69.9926
 250	1	5	0.081364	20.1211	64.7368	-73.493
 251	1	5	-0.00525	18.5266	64.5216	-72.7548
 252	1	5	-0.006128	19.7761	63.276	-72.5593
 253	1	5	0.002513	19.849	65.7125	-66.7762
 254	1	5	0.147318	20.1598	64.0102	-67.1562
 255	1	5	0.144731	18.5683	64.7175	-67.4797
 256	1	1	-0.211274	20.3825	69.7746	-69.504
 257	1	2	0.221306	21.7766	69.6315	-68.9211
 258	1	2	-0.631195	22.1506	70.4655	-67.8551
 259	1	3	0.289556	21.4516	71.2043	-67.4765
 260	1	2	0.263167	23.4336	70.3717	-67.2963
 261	1	2	-0.339066	24.3411	69.446	-67.8255
 262	1	3	0.163087	25.3403	69.3896	-67.4071
 263	1	2	0.033139	23.9845	68.5912	-68.8813
 264	1	1	-0.070169	24.9991	67.5867	-69.4193
 265	1	2	-0.051663	22.6889	68.6778	-69.4256
 266	1	4	-0.031436	22.3281	67.8285	-70.4442
 267	1	5	0.081364	25.881	67.5151	-68.7709
 268	1	5	-0.00525	25.3445	67.8727	-70.421
 269	1	5	-0.006128	24.5656	66.581	-69.4893
 270	1	5	0.002513	19.8973	70.7095	-69.1962
 271	1	5	0.147318	19.7505	68.9406	-69.1789
 272	1	5	0.144731	20.4162	69.7618	-70.5997
 273	1	1	-0.211274	22.1072	69.7205	-64.3918
 274	1	2	0.221306	22.2585	71.2309	-64.4217
 275	1	2	-0.631195	21.6178	71.9835	-63.4253
 276	1	3	0.289556	21.0411	71.4793	-62.6563
 277	1	2	0.263167	21.7585	73.3756	-63.3645
 278	1	2	-0.339066	22.5235	74.0218	-64.3468
 279	1	3	0.163087	22.6455	75.1001	-64.3057
 280	1	2	0.033139	23.1752	73.2893	-65.3549
 281	1	1	-0.070169	24.0157	74.0312	-66.3871
 282	1	2	-0.051663	23.0602	71.8835	-65.3858
 283	1	4	-0.031436	23.8515	71.1708	-66.2599
 284	1	5	0.081364	23.8274	73.6447	-67.3969
 285	1	5	-0.00525	25.0874	73.9225	-66.1795
 286	1	5	-0.006128	23.7856	75.1042	-66.4016
 287	1	5	0.002513	21.4905	69.3833	-63.5495
 288	1	5	0.147318	23.0839	69.2344	-64.3036
 289	1	5	0.144731	21.6299	69.364	-65.3113
 290	1	1	-0.211274	18.8931	74.6091	-64.0837
 291	1	2	0.221306	19.6295	75.6868	-63.3092
 292	1	2	-0.631195	19.251	77.0243	-63.4916
 293	1	3	0.289556	18.4356	77.2701	-64.1637
 294	1	2	0.263167	19.9357	78.0602	-62.847
 295	1	2	-0.339066	20.9774	77.7414	-61.9619
 296	1	3	0.163087	21.5085	78.5425	-61.4568
 297	1	2	0.033139	21.3768	76.4043	-61.7671
 298	1	1	-0.070169	22.5687	76.0937	-60.8703
 299	1	2	-0.051663	20.7157	75.3724	-62.4667
 300	1	4	-0.031436	21.1475	74.0698	-62.3454
 301	1	5	0.081364	22.331	75.2919	-60.16
 302	1	5	-0.00525	22.8828	76.9687	-60.2873
 303	1	5	-0.006128	23.4278	75.7655	-61.4688
 304	1	5	0.002513	17.9482	74.974	-64.5034
 305	1	5	0.147318	18.6651	73.7528	-63.4392
 306	1	5	0.144731	19.5157	74.2504	-64.911
 307	1	1	-0.211274	21.937	78.637	-64.9901
 308	1	2	0.221306	21.704	80.0024	-64.3617
 309	1	2	-0.631195	22.6621	80.99	-64.6251
 310	1	3	0.289556	23.55	80.7422	-65.1971
 311	1	2	0.263167	22.506	82.2966	-64.1565
 312	1	2	-0.339066	21.3561	82.6286	-63.4318
 313	1	3	0.163087	21.2335	83.6421	-63.0661
 314	1	2	0.033139	20.3884	81.6486	-63.1309
 315	1	1	-0.070169	19.1588	82.0471	-62.323
 316	1	2	-0.051663	20.5785	80.3124	-63.5537
 317	1	4	-0.031436	19.643	79.3617	-63.1829
 318	1	5	0.081364	19.0435	83.1368	-62.2805
 319	1	5	-0.00525	19.2284	81.6775	-61.2923
 320	1	5	-0.006128	18.2393	81.6426	-62.767
 321	1	5	0.002513	22.6431	78.6843	-65.8281
 322	1	5	0.147318	21.0002	78.2239	-65.38
 323	1	5	0.144731	22.3431	77.9327	-64.2565
 324	1	1	-0.211274	24.9218	85.049	-62.6658
 325	1	2	0.221306	24.3223	85.3985	-64.0179
 326	1	2	-0.631195	24.5964	86.6616	-64.5581
 327	1	3	0.289556	25.2364	87.3526	-64.0194
 328	1	2	0.263167	24.105	87.034	-65.8142
 329	1	2	-0.339066	23.2954	86.1279	-66.5183
 330	1	3	0.163087	22.9145	86.4031	-67.4954
 331	1	2	0.033139	23.0261	84.8398	-66.008
 332	1	1	-0.070169	22.2376	83.8564	-66.8692
 333	1	2	-0.051663	23.5582	84.4652	-64.7507
 334	1	4	-0.031436	23.558	83.1606	-64.311
 335	1	5	0.081364	21.253	83.6447	-66.4322
 336	1	5	-0.00525	22.7713	82.9038	-66.9736
 337	1	5	-0.006128	22.0704	84.2438	-67.8817
 338	1	5	0.002513	25.1907	85.9457	-62.0924
 339	1	5	0.147318	25.8253	84.4434	-62.7938
 340	1	5	0.144731	24.2107	84.4772	-62.0583
 341	1	1	-0.211274	22.4964	90.3567	-66.6994
 342	1	2	0.221306	23.343	89.7719	-67.8135
 343	1	2	-0.631195	23.1678	90.2838	-69.1021
 344	1	3	0.289556	22.4305	91.0582	-69.2841
 345	1	2	0.263167	23.9217	89.8103	-70.1743
 346	1	2	-0.339066	24.9063	88.834	-69.9311
 347	1	3	0.163087	25.5284	88.4743	-70.7447
 348	1	2	0.033139	25.0793	88.2816	-68.6487
 349	1	1	-0.070169	26.1271	87.1907	-68.4735
 350	1	2	-0.051663	24.2771	88.7423	-67.5797
 351	1	4	-0.031436	24.4524	88.277	-66.2949
 352	1	5	0.081364	26.4479	87.0841	-67.4314
 353	1	5	-0.00525	27.0211	87.4052	-69.0705
 354	1	5	-0.006128	25.7296	86.2235	-68.8058
 355	1	5	0.002513	21.7093	91.0147	-67.0909
 356	1	5	0.147318	23.1152	90.957	-66.0301
 357	1	5	0.144731	22.0187	89.5647	-66.1107
 358	1	1	-0.211274	23.1464	87.4798	-72.2088
 359	1	2	0.221306	23.9756	88.4838	-72.9945
 360	1	2	-0.631195	24.5553	88.0417	-74.1909
 361	1	3	0.289556	24.469	87.0034	-74.4883
 362	1	2	0.263167	25.196	88.9413	-75.049
 363	1	2	-0.339066	25.2308	90.3018	-74.7122
 364	1	3	0.163087	25.6611	91.0168	-75.4045
 365	1	2	0.033139	24.6807	90.7624	-73.5106
 366	1	1	-0.070169	24.6317	92.2614	-73.2381
 367	1	2	-0.051663	24.1075	89.8408	-72.6128
 368	1	4	-0.031436	23.63	90.3172	-71.4181
 369	1	5	0.081364	25.1481	92.5199	-72.3069
 370	1	5	-0.00525	23.5897	92.5955	-73.1512
 371	1	5	-0.006128	25.0863	92.8421	-74.0509
 372	1	5	0.002513	22.5229	87.9504	-71.4395
 373	1	5	0.147318	23.7886	86.7365	-71.7237
 374	1	5	0.144731	22.4588	86.9567	-72.8809
 375	1	1	-0.211274	28.1024	89.8744	-77.1195
 376	1	2	0.221306	26.758	89.985	-77.8263
 377	1	2	-0.631195	26.6522	90.892	-78.8925
 378	1	3	0.289556	27.5269	91.439	-79.226
 379	1	2	0.263167	25.4121	91.1725	-79.4789
 380	1	2	-0.339066	24.2701	90.5056	-79.0155
 381	1	3	0.163087	23.2983	90.7497	-79.4299
 382	1	2	0.033139	24.3508	89.5763	-77.9687
 383	1	1	-0.070169	23.0594	88.9699	-77.4315
 384	1	2	-0.051663	25.603	89.3099	-77.3701
 385	1	4	-0.031436	25.6646	88.5024	-76.2612
 386	1	5	0.081364	22.7818	89.4507	-76.4842
 387	1	5	-0.00525	23.1636	87.893	-77.2483
 388	1	5	-0.006128	22.2207	89.1087	-78.1264
 389	1	5	0.002513	28.8358	89.3381	-77.7312
 390	1	5	0.147318	28.0342	89.3644	-76.152
 391	1	5	0.144731	28.4999	90.8749	-76.9142
 392	1	1	-0.211274	23.0015	91.9473	-82.188
 393	1	2	0.221306	23.1517	93.0146	-81.1185
 394	1	2	-0.631195	22.0815	93.8976	-80.9223
 395	1	3	0.289556	21.194	93.8201	-81.5371
 396	1	2	0.263167	22.1322	94.8915	-79.9393
 397	1	2	-0.339066	23.2869	95.0032	-79.1462
 398	1	3	0.163087	23.3427	95.7714	-78.3774
 399	1	2	0.033139	24.3741	94.1276	-79.3258
 400	1	1	-0.070169	25.6127	94.2778	-78.4478
 401	1	2	-0.051663	24.3007	93.1134	-80.306
 402	1	4	-0.031436	25.3069	92.1815	-80.4055
 403	1	5	0.081364	25.7459	93.3993	-77.8055
 404	1	5	-0.00525	25.5569	95.1563	-77.7928
 405	1	5	-0.006128	26.5166	94.3841	-79.0616
 406	1	5	0.002513	23.3032	92.3261	-83.1731
 407	1	5	0.147318	21.9586	91.6205	-82.2599
 408	1	5	0.144731	23.6	91.0562	-81.9696
 409	1	1	-0.211274	20.1132	95.0074	-77.113
 410	1	2	0.221306	20.457	96.4225	-77.5473
 411	1	2	-0.631195	20.3181	97.4642	-76.6158
 412	1	3	0.289556	19.9868	97.2453	-75.6058
 413	1	2	0.263167	20.6551	98.7826	-76.9546
 414	1	2	-0.339066	21.1281	99.0544	-78.246
 415	1	3	0.163087	21.4182	100.067	-78.5035
 416	1	2	0.033139	21.2656	98.0263	-79.1965
 417	1	1	-0.070169	21.8226	98.3506	-80.5773
 418	1	2	-0.051663	20.9242	96.7052	-78.8465
 419	1	4	-0.031436	21.0348	95.701	-79.7795
 420	1	5	0.081364	22.8351	97.9394	-80.687
 421	1	5	-0.00525	21.8809	99.4326	-80.7519
 422	1	5	-0.006128	21.1973	97.9228	-81.3726
 423	1	5	0.002513	19.9855	94.9348	-76.0251
 424	1	5	0.147318	20.9117	94.309	-77.3915
 425	1	5	0.144731	19.1843	94.6715	-77.5875
 426	1	1	-0.211274	18.636	100.766	-74.1097
 427	1	2	0.221306	19.9551	100.124	-73.7188
 428	1	2	-0.631195	20.2623	100.034	-72.3549
 429	1	3	0.289556	19.5534	100.396	-71.6152
 430	1	2	0.263167	21.4892	99.5139	-71.9265
 431	1	2	-0.339066	22.4207	99.098	-72.8932
 432	1	3	0.163087	23.3899	98.7269	-72.576
 433	1	2	0.033139	22.1354	99.185	-74.2683
 434	1	1	-0.070169	23.2224	98.8016	-75.2662
 435	1	2	-0.051663	20.8789	99.6776	-74.6918
 436	1	4	-0.031436	20.5762	99.8034	-76.0335
 437	1	5	0.081364	23.3198	99.5631	-76.0508
 438	1	5	-0.00525	22.9972	97.8432	-75.7489
 439	1	5	-0.006128	24.2024	98.7059	-74.7836
 440	1	5	0.002513	17.8954	100.701	-73.302
 441	1	5	0.147318	18.205	100.288	-74.9959
 442	1	5	0.144731	18.7919	101.827	-74.3369
 443	1	1	-0.211274	21.3555	96.8806	-69.3828
 444	1	2	0.221306	22.695	97.597	-69.4023
 445	1	2	-0.631195	23.7913	96.9913	-68.7741
 446	1	3	0.289556	23.6779	96.0223	-68.3017
 447	1	2	0.263167	25.0437	97.6105	-68.757
 448	1	2	-0.339066	25.1866	98.8856	-69.3224
 449	1	3	0.163087	26.1465	99.3892	-69.2764
 450	1	2	0.033139	24.0911	99.533	-69.925
 451	1	1	-0.070169	24.2833	100.956	-70.4387
 452	1	2	-0.051663	22.8424	98.8681	-69.9956
 453	1	4	-0.031436	21.748	99.4692	-70.5756
 454	1	5	0.081364	25.1123	101.007	-71.1541
 455	1	5	-0.00525	24.5162	101.634	-69.6078
 456	1	5	-0.006128	23.3934	101.356	-70.9376
 457	1	5	0.002513	21.4657	95.8079	-69.183
 458	1	5	0.147318	20.8361	96.9878	-70.3418
 459	1	5	0.144731	20.719	97.3081	-68.6015
 460	1	1	-0.211274	28.4109	98.3074	-67.0078
 461	1	2	0.221306	28.4593	97.3971	-68.223
 462	1	2	-0.631195	29.7094	97.1666	-68.8105
 463	1	3	0.289556	30.5932	97.6346	-68.3969
 464	1	2	0.263167	29.8512	96.3002	-69.8999
 465	1	2	-0.339066	28.7049	95.6798	-70.4228
 466	1	3	0.163087	28.7978	94.9988	-71.2663
 467	1	2	0.033139	27.4372	95.901	-69.8576
 468	1	1	-0.070169	26.2431	95.1407	-70.4332
 469	1	2	-0.051663	27.3097	96.7736	-68.7494
 470	1	4	-0.031436	26.0918	96.9675	-68.1467
 471	1	5	0.081364	25.4768	95.8265	-70.8103
 472	1	5	-0.00525	25.7844	94.5025	-69.6706
 473	1	5	-0.006128	26.5357	94.4907	-71.2672
 474	1	5	0.002513	28.5922	97.7373	-66.0883
 475	1	5	0.147318	27.4479	98.8204	-66.9007
 476	1	5	0.144731	29.1854	99.0778	-67.0781
 477	1	1	-0.211274	31.1328	96.8744	-73.1822
 478	1	2	0.221306	31.3744	95.4515	-72.7204
 479	1	2	-0.631195	31.4983	94.4455	-73.6886
 480	1	3	0.289556	31.4112	94.692	-74.7405
 481	1	2	0.263167	31.6313	93.1074	-73.3045
 482	1	2	-0.339066	31.7285	92.7951	-71.9385
 483	1	3	0.163087	31.8394	91.7598	-71.6352
 484	1	2	0.033139	31.6044	93.7855	-70.9548
 485	1	1	-0.070169	31.6467	93.3882	-69.4817
 486	1	2	-0.051663	31.3868	95.1198	-71.3524
 487	1	4	-0.031436	31.1118	96.0812	-70.4071
 488	1	5	0.081364	32.5056	93.8458	-68.9768
 489	1	5	-0.00525	31.7313	92.3012	-69.3589
 490	1	5	-0.006128	30.7393	93.7042	-68.953
 491	1	5	0.002513	31.5432	97.0559	-74.1827
 492	1	5	0.147318	31.5998	97.591	-72.4983
 493	1	5	0.144731	30.0571	97.08	-73.207
 494	1	1	-0.211274	32.8095	89.5885	-73.8206
 495	1	2	0.221306	31.3169	89.7924	-73.6418
 496	1	2	-0.631195	30.5666	88.78	-73.0356
 497	1	3	0.289556	31.0479	87.8599	-72.7221
 498	1	2	0.263167	29.2149	88.9787	-72.712
 499	1	2	-0.339066	28.5875	90.1692	-73.0918
 500	1	3	0.163087	27.5462	90.3278	-72.8279
 501	1	2	0.033139	29.3233	91.2036	-73.6938
 502	1	1	-0.070169	28.6287	92.533	-73.9651
 503	1	2	-0.051663	30.7065	91.0284	-73.9324
 504	1	4	-0.031436	31.4971	92.1115	-74.2398
 505	1	5	0.081364	27.5432	92.4106	-74.0456
 506	1	5	-0.00525	28.9828	92.9876	-74.8998
 507	1	5	-0.006128	28.8196	93.2423	-73.1488
 508	1	5	0.002513	33.1618	89.9983	-74.7748
 509	1	5	0.147318	33.0771	88.5271	-73.7986
 510	1	5	0.144731	33.3526	90.0915	-73.0139
 511	1	1	-0.211274	29.4371	89.9179	-69.703
 512	1	2	0.221306	29.7821	88.4395	-69.7861
 513	1	2	-0.631195	30.6468	87.9203	-68.8168
 514	1	3	0.289556	31.0367	88.5817	-68.0508
 515	1	2	0.263167	31.024	86.5721	-68.8278
 516	1	2	-0.339066	30.4766	85.7231	-69.8018
 517	1	3	0.163087	30.7518	84.6725	-69.8032
 518	1	2	0.033139	29.5895	86.2156	-70.7812
 519	1	1	-0.070169	29.0134	85.2744	-71.8352
 520	1	2	-0.051663	29.2724	87.5903	-70.7953
 521	1	4	-0.031436	28.5743	88.113	-71.8611
 522	1	5	0.081364	27.9482	85.4764	-72.0063
 523	1	5	-0.00525	29.098	84.2216	-71.5382
 524	1	5	-0.006128	29.5318	85.3924	-72.7939
 525	1	5	0.002513	29.8026	90.3778	-68.7761
 526	1	5	0.147318	28.3521	90.0648	-69.7353
 527	1	5	0.144731	29.8816	90.4736	-70.5349
 528	1	1	-0.211274	29.8671	84.9827	-66.1457
 529	1	2	0.221306	30.8089	86.0924	-65.7225
 530	1	2	-0.631195	30.6209	86.6989	-64.4773
 531	1	3	0.289556	29.815	86.3729	-63.8305
 532	1	2	0.263167	31.3933	87.8007	-64.0944
 533	1	2	-0.339066	32.4634	88.2	-64.9134
 534	1	3	0.163087	33.0948	89.0242	-64.6002
 535	1	2	0.033139	32.7079	87.5603	-66.1456
 536	1	1	-0.070169	33.8869	87.9803	-67.0182
 537	1	2	-0.051663	31.8276	86.5467	-66.5816
 538	1	4	-0.031436	31.8806	86.078	-67.8723
 539	1	5	0.081364	33.5704	88.2018	-68.0451
 540	1	5	-0.00525	34.6257	87.1702	-67.0714
 541	1	5	-0.006128	34.3989	88.8677	-66.6276
 542	1	5	0.002513	29.3804	84.5069	-65.2851
 543	1	5	0.147318	30.4111	84.204	-66.6932
 544	1	5	0.144731	29.0908	85.3877	-66.8048
 545	1	1	-0.211274	32.4209	90.5256	-61.4271
 546	1	2	0.221306	31.2703	90.8214	-62.3691
 547	1	2	-0.631195	30.8756	92.1529	-62.5657
 548	1	3	0.289556	31.4477	92.9627	-62.1305
 549	1	2	0.263167	29.7502	92.4599	-63.3353
 550	1	2	-0.339066	28.9682	91.4049	-63.8294
 551	1	3	0.163087	28.0577	91.6192	-64.3785
 552	1	2	0.033139	29.3575	90.0669	-63.6623
 553	1	1	-0.070169	28.4077	88.9766	-64.1438
 554	1	2	-0.051663	30.5703	89.7707	-62.9969
 555	1	4	-0.031436	31.0657	88.4835	-62.9433
 556	1	5	0.081364	28.7245	88.5475	-65.1023
 557	1	5	-0.00525	27.3918	89.3691	-64.2787
 558	1	5	-0.006128	28.3374	88.1659	-63.4067
 559	1	5	0.002513	32.7818	91.4244	-60.9094
 560	1	5	0.147318	33.2623	90.0674	-61.9591
 561	1	5	0.144731	32.0866	89.8221	-60.654
 562	1	1	-0.211274	27.9364	94.6474	-61.2134
 563	1	2	0.221306	27.3689	94.5924	-62.6232
 564	1	2	-0.631195	26.0154	94.9079	-62.7972
 565	1	3	0.289556	25.3903	95.1595	-61.9447
 566	1	2	0.263167	25.4378	94.8864	-64.0762
 567	1	2	-0.339066	26.2381	94.6095	-65.1927
 568	1	3	0.163087	25.7871	94.6069	-66.1821
 569	1	2	0.033139	27.5907	94.2672	-65.0363
 570	1	1	-0.070169	28.4033	93.9378	-66.2816
 571	1	2	-0.051663	28.1435	94.2147	-63.7403
 572	1	4	-0.031436	29.431	93.7776	-63.5481
 573	1	5	0.081364	27.8046	93.3752	-67.0071
 574	1	5	-0.00525	29.2923	93.3354	-66.0597
 575	1	5	-0.006128	28.741	94.8579	-66.7712
 576	1	5	0.002513	29.0291	94.5562	-61.184
 577	1	5	0.147318	27.5216	93.8447	-60.5965
 578	1	5	0.144731	27.6835	95.606	-60.7504
 579	1	1	-0.211274	24.5447	92.0539	-64.0289
 580	1	2	0.221306	23.3032	92.7995	-63.55
 581	1	2	-0.631195	22.2766	92.0146	-62.9968
 582	1	3	0.289556	22.4028	90.9405	-62.9373
 583	1	2	0.263167	21.0929	92.5828	-62.5104
 584	1	2	-0.339066	20.9312	93.9746	-62.5957
 585	1	3	0.163087	20.0166	94.4316	-62.2232
 586	1	2	0.033139	21.9342	94.7846	-63.1726
 587	1	1	-0.070169	21.7028	96.2927	-63.2443
 588	1	2	-0.051663	23.1336	94.204	-63.6424
 589	1	4	-0.031436	24.0867	95.0273	-64.2288
 590	1	5	0.081364	20.6359	96.5415	-63.3
 591	1	5	-0.00525	22.1774	96.7374	-64.1278
 592	1	5	-0.006128	22.1137	96.7895	-62.3583
 593	1	5	0.002513	24.3923	90.9692	-64.0602
 594	1	5	0.147318	25.3956	92.2395	-63.3623
 595	1	5	0.144731	24.835	92.3667	-65.0379
 596	1	1	-0.211274	20.0735	92.389	-59.1528
 597	1	2	0.221306	18.8353	92.4064	-60.0283
 598	1	2	-0.631195	17.5869	92.7139	-59.4518
 599	1	3	0.289556	17.5232	92.9766	-58.401
 600	1	2	0.263167	16.4231	92.7381	-60.2344
 601	1	2	-0.339066	16.527	92.4289	-61.5965
 602	1	3	0.163087	15.6325	92.4618	-62.2098
 603	1	2	0.033139	17.7558	92.1054	-62.1979
 604	1	1	-0.070169	17.7901	91.755	-63.6866
 605	1	2	-0.051663	18.932	92.1144	-61.4136
 606	1	4	-0.031436	20.1351	91.7402	-61.9727
 607	1	5	0.081364	18.695	92.1321	-64.1768
 608	1	5	-0.00525	16.9371	92.188	-64.2233
 609	1	5	-0.006128	17.7561	90.6697	-63.8358
 610	1	5	0.002513	19.8812	92.8066	-58.1585
 611	1	5	0.147318	20.8808	92.9734	-59.6096
 612	1	5	0.144731	20.4269	91.3612	-59.0303
 613	1	1	-0.211274	14.0404	90.5724	-59.3481
 614	1	2	0.221306	13.8218	91.7524	-58.4297
 615	1	2	-0.631195	12.8481	91.6286	-57.4249
 616	1	3	0.289556	12.2792	90.7121	-57.3209
 617	1	2	0.263167	12.5621	92.7	-56.5767
 618	1	2	-0.339066	13.3143	93.8782	-56.6898
 619	1	3	0.163087	13.1015	94.7109	-56.0265
 620	1	2	0.033139	14.2829	94.03	-57.7061
 621	1	1	-0.070169	15.0277	95.3568	-57.8466
 622	1	2	-0.051663	14.5203	92.9677	-58.6036
 623	1	4	-0.031436	15.211	93.2148	-59.7804
 624	1	5	0.081364	15.1615	95.8488	-56.8756
 625	1	5	-0.00525	14.477	96.0475	-58.4975
 626	1	5	-0.006128	16.0298	95.2102	-58.2758
 627	1	5	0.002513	13.3228	89.7598	-59.1668
 628	1	5	0.147318	15.0545	90.1798	-59.1976
 629	1	5	0.144731	13.9388	90.8877	-60.3931
 630	1	1	-0.211274	10.3047	94.8151	-57.2363
 631	1	2	0.221306	10.2761	94.6413	-55.7243
 632	1	2	-0.631195	9.67272	95.6602	-54.9986
 633	1	3	0.289556	9.28446	96.5144	-55.5204
 634	1	2	0.263167	9.61862	95.6356	-53.6019
 635	1	2	-0.339066	10.0837	94.491	-52.9307
 636	1	3	0.163087	10.0138	94.4419	-51.848
 637	1	2	0.033139	10.6783	93.428	-53.6401
 638	1	1	-0.070169	11.1534	92.1829	-52.893
 639	1	2	-0.051663	10.8379	93.5409	-55.0376
 640	1	4	-0.031436	11.5186	92.5476	-55.6946
 641	1	5	0.081364	10.8265	91.2779	-53.4166
 642	1	5	-0.00525	10.7402	92.1379	-51.8801
 643	1	5	-0.006128	12.2442	92.1413	-52.8212
 644	1	5	0.002513	11.1993	95.3803	-57.5345
 645	1	5	0.147318	9.42875	95.3819	-57.5738
 646	1	5	0.144731	10.2971	93.8517	-57.7572
 647	1	1	-0.211274	8.34905	98.9501	-54.7525
 648	1	2	0.221306	9.45806	99.0136	-53.7053
 649	1	2	-0.631195	10.1276	100.236	-53.5647
 650	1	3	0.289556	9.87086	101.076	-54.207
 651	1	2	0.263167	11.1023	100.418	-52.5845
 652	1	2	-0.339066	11.415	99.3305	-51.751
 653	1	3	0.163087	12.1356	99.4344	-50.9508
 654	1	2	0.033139	10.8108	98.0776	-51.9055
 655	1	1	-0.070169	11.2895	96.9249	-51.0136
 656	1	2	-0.051663	9.80074	97.9137	-52.8745
 657	1	4	-0.031436	9.11396	96.7199	-52.9275
 658	1	5	0.081364	11.7214	96.1137	-51.6195
 659	1	5	-0.00525	10.4699	96.5004	-50.4176
 660	1	5	-0.006128	12.0756	97.2147	-50.2958
 661	1	5	0.002513	8.6887	98.5186	-55.7023
 662	1	5	0.147318	7.9737	99.947	-55.0074
 663	1	5	0.144731	7.49254	98.375	-54.387
 664	1	1	-0.211274	14.3898	100.938	-51.4582
 665	1	2	0.221306	13.2756	101.548	-50.6237
 666	1	2	-0.631195	13.3416	101.371	-49.2422
 667	1	3	0.289556	14.2134	100.873	-48.8312
 668	1	2	0.263167	12.2568	101.731	-48.4173