pySIMM System Object

495 atoms
523 bonds
899 angles
1158 dihedrals
116 impropers

6 atom types
6 bond types
8 angle types
3 dihedral types
2 improper types

-111.789551 111.789551 xlo xhi
-111.789551 111.789551 ylo yhi
-111.789551 111.789551 zlo zhi

Masses

   1	12.01	# c3
   2	12.01	# ca
   3	1.008	# ha
   4	16.0	# oh
   5	1.008	# hc
   6	1.008	# ho

Pair Coeffs

   1	0.1094	3.3996695084235347	# c3
   2	0.086	3.3996695084235347	# ca
   3	0.015	2.59964245953351	# ha
   4	0.2104	3.0664733878390478	# oh
   5	0.0157	2.649532787749369	# hc
   6	0.0047	0.5379246460131368	# ho

Bond Coeffs

   1	371.4	0.973	# ho,oh
   2	461.1	1.3984	# ca,ca
   3	384.0	1.3637	# ca,oh
   4	345.8	1.086	# ca,ha
   5	321.0	1.5156	# c3,ca
   6	330.6	1.0969	# c3,hc

Angle Coeffs

   1	46.8	110.47	# ca,c3,hc
   2	49.0	108.58	# ca,oh,ho
   3	69.52	119.9	# ca,ca,oh
   4	66.62	120.02	# ca,ca,ca
   5	39.4	107.58	# hc,c3,hc
   6	48.18	119.88	# ca,ca,ha
   7	63.53	120.77	# c3,ca,ca
   8	63.5	119.89	# ca,oh,ca

Dihedral Coeffs

   1	1	0.9	2	180	# X,ca,oh,X
   2	1	0.0	2	0	# X,c3,ca,X
   3	1	3.625	2	180	# X,ca,ca,X

Improper Coeffs

   1	1.1	-1	2	# ca,ca,ca,c3
   2	1.1	-1	2	# ca,X,X,ha

Atoms

   1	1	1	-0.211274	-11.5053	30.2043	16.537
   2	1	2	0.221306	-10.1727	29.9791	15.8397
   3	1	2	-0.631195	-10.1507	29.2218	14.662
   4	1	3	0.289556	-11.0835	28.8372	14.2644
   5	1	2	0.263167	-8.94209	28.973	13.9902
   6	1	2	-0.339066	-7.75596	29.4961	14.5122
   7	1	3	0.163087	-6.82649	29.3068	13.9871
   8	1	2	0.033139	-7.7521	30.2673	15.687
   9	1	1	-0.070169	-6.42936	30.8207	16.206
  10	1	2	-0.051663	-8.97324	30.5153	16.3512
  11	1	4	-0.031436	-9.00419	31.2834	17.4827
  12	1	5	0.081364	-6.32995	30.659	17.2866
  13	1	5	-0.00525	-6.35392	31.8988	16.0152
  14	1	5	-0.006128	-5.56691	30.3393	15.7244
  15	1	5	0.002513	-12.2728	29.5007	16.1904
  16	1	5	0.147318	-11.8698	31.2206	16.3517
  17	1	5	0.144731	-11.4106	30.073	17.6208
  18	1	1	-0.211274	-9.95706	25.7459	13.8825
  19	1	2	0.221306	-10.5638	26.5135	12.7203
  20	1	2	-0.631195	-11.7401	26.0325	12.1369
  21	1	3	0.289556	-12.2015	25.1374	12.5402
  22	1	2	0.263167	-12.3288	26.6981	11.0483
  23	1	2	-0.339066	-11.7159	27.8472	10.5378
  24	1	3	0.163087	-12.1594	28.3519	9.68549
  25	1	2	0.033139	-10.5426	28.3557	11.1165
  26	1	1	-0.070169	-9.90196	29.612	10.5421
  27	1	2	-0.051663	-9.97715	27.6945	12.2242
  28	1	4	-0.031436	-8.87484	28.2277	12.8382
  29	1	5	0.081364	-9.88621	30.4168	11.2874
  30	1	5	-0.00525	-10.4463	29.9801	9.66357
  31	1	5	-0.006128	-8.86719	29.4181	10.2317
  32	1	5	0.002513	-10.4093	24.7529	14.0009
  33	1	5	0.147318	-10.096	26.2955	14.8205
  34	1	5	0.144731	-8.88049	25.6021	13.733
  35	1	1	-0.211274	-12.0649	24.0363	9.18107
  36	1	2	0.221306	-13.2594	23.8555	10.1036
  37	1	2	-0.631195	-13.6681	22.5572	10.4292
  38	1	3	0.289556	-13.1389	21.7049	10.0155
  39	1	2	0.263167	-14.7507	22.3409	11.2918
  40	1	2	-0.339066	-15.4321	23.439	11.8295
  41	1	3	0.163087	-16.26	23.2684	12.5102
  42	1	2	0.033139	-15.0275	24.7514	11.5344
  43	1	1	-0.070169	-15.7354	25.925	12.1999
  44	1	2	-0.051663	-13.9354	24.9583	10.6671
  45	1	4	-0.031436	-13.4721	26.2309	10.45
  46	1	5	0.081364	-16.254	26.5408	11.4552
  47	1	5	-0.00525	-15.0206	26.5673	12.7302
  48	1	5	-0.006128	-16.4791	25.5897	12.9338
  49	1	5	0.002513	-11.6703	23.0777	8.82228
  50	1	5	0.147318	-11.2488	24.5552	9.69757
  51	1	5	0.144731	-12.3433	24.6337	8.30573
  52	1	1	-0.211274	-13.4515	21.5498	14.0483
  53	1	2	0.221306	-13.303	20.3423	13.1382
  54	1	2	-0.631195	-12.2951	19.413	13.4287
  55	1	3	0.289556	-11.6514	19.5678	14.2893
  56	1	2	0.263167	-12.1124	18.2793	12.6255
  57	1	2	-0.339066	-12.9599	18.0736	11.5307
  58	1	3	0.163087	-12.8184	17.1943	10.9103
  59	1	2	0.033139	-13.9741	18.9941	11.2162
  60	1	1	-0.070169	-14.8561	18.7523	9.99787
  61	1	2	-0.051663	-14.1393	20.143	12.0163
  62	1	4	-0.031436	-15.0953	21.0728	11.6799
  63	1	5	0.081364	-15.9186	18.819	10.2627
  64	1	5	-0.00525	-14.6872	17.7588	9.5639
  65	1	5	-0.006128	-14.6556	19.4954	9.21573
  66	1	5	0.002513	-12.9295	21.4124	15.0034
  67	1	5	0.147318	-14.5067	21.74	14.2745
  68	1	5	0.144731	-13.042	22.4445	13.5653
  69	1	1	-0.211274	-9.42235	19.2997	11.4238
  70	1	2	0.221306	-9.02641	18.6404	12.7351
  71	1	2	-0.631195	-7.77189	18.9537	13.2822
  72	1	3	0.289556	-7.1221	19.6541	12.7677
  73	1	2	0.263167	-7.35165	18.375	14.4892
  74	1	2	-0.339066	-8.19987	17.4723	15.139
  75	1	3	0.163087	-7.87458	17.0212	16.0713
  76	1	2	0.033139	-9.45634	17.137	14.6099
  77	1	1	-0.070169	-10.3218	16.1357	15.3672
  78	1	2	-0.051663	-9.8798	17.7286	13.4009
  79	1	4	-0.031436	-11.1027	17.3827	12.8701
  80	1	5	0.081364	-11.3926	16.3034	15.2004
  81	1	5	-0.00525	-10.1512	16.2049	16.4492
  82	1	5	-0.006128	-10.088	15.109	15.0592
  83	1	5	0.002513	-8.56751	19.7697	10.9223
  84	1	5	0.147318	-10.1757	20.0765	11.6004
  85	1	5	0.144731	-9.85063	18.5663	10.7313
  86	1	1	-0.211274	-4.11048	17.1467	13.6866
  87	1	2	0.221306	-4.06617	18.6563	13.8431
  88	1	2	-0.631195	-2.9584	19.3573	13.3446
  89	1	3	0.289556	-2.14218	18.8157	12.8775
  90	1	2	0.263167	-2.87842	20.751	13.4773
  91	1	2	-0.339066	-3.92589	21.4403	14.0984
  92	1	3	0.163087	-3.85306	22.5173	14.2115
  93	1	2	0.033139	-5.03641	20.7567	14.6204
  94	1	1	-0.070169	-6.11855	21.5435	15.3492
  95	1	2	-0.051663	-5.10904	19.354	14.4884
  96	1	4	-0.031436	-6.13949	18.6556	15.0713
  97	1	5	0.081364	-7.11836	21.276	14.9869
  98	1	5	-0.00525	-5.99789	22.625	15.2072
  99	1	5	-0.006128	-6.08543	21.3444	16.4276
 100	1	5	0.002513	-3.19027	16.7493	13.24
 101	1	5	0.147318	-4.94997	16.8575	13.0434
 102	1	5	0.144731	-4.24678	16.6604	14.6592
 103	1	1	-0.211274	-0.460898	20.8937	10.5386
 104	1	2	0.221306	0.195382	20.7133	11.8958
 105	1	2	-0.631195	1.50831	20.2264	11.9546
 106	1	3	0.289556	2.03195	19.9692	11.0402
 107	1	2	0.263167	2.1463	20.0496	13.1903
 108	1	2	-0.339066	1.46468	20.3722	14.3671
 109	1	3	0.163087	1.96244	20.2298	15.321
 110	1	2	0.033139	0.138167	20.8291	14.3343
 111	1	1	-0.070169	-0.571436	21.0922	15.6568
 112	1	2	-0.051663	-0.503774	20.9989	13.0869
 113	1	4	-0.031436	-1.79729	21.4586	13.0173
 114	1	5	0.081364	-1.17043	20.2199	15.9474
 115	1	5	-0.00525	-1.24022	21.9593	15.5981
 116	1	5	-0.006128	0.144664	21.2881	16.4649
 117	1	5	0.002513	0.227916	20.6743	9.71305
 118	1	5	0.147318	-0.809691	21.9255	10.4165
 119	1	5	0.144731	-1.32698	20.2294	10.4411
 120	1	1	-0.211274	5.63872	20.0834	11.536
 121	1	2	0.221306	4.93519	18.7375	11.6012
 122	1	2	-0.631195	5.38594	17.7097	10.7625
 123	1	3	0.289556	6.21745	17.8843	10.0888
 124	1	2	0.263167	4.78914	16.4447	10.794
 125	1	2	-0.339066	3.72631	16.2129	11.6777
 126	1	3	0.163087	3.26086	15.2337	11.7146
 127	1	2	0.033139	3.2501	17.2271	12.5233
 128	1	1	-0.070169	2.09233	16.8818	13.4558
 129	1	2	-0.051663	3.85347	18.5067	12.4771
 130	1	4	-0.031436	3.41103	19.5296	13.2803
 131	1	5	0.081364	1.98267	17.5912	14.2827
 132	1	5	-0.00525	2.23797	15.893	13.9082
 133	1	5	-0.006128	1.1444	16.8579	12.9036
 134	1	5	0.002513	6.11248	20.2465	10.5598
 135	1	5	0.147318	6.41868	20.1397	12.3037
 136	1	5	0.144731	4.94048	20.912	11.7013
 137	1	1	-0.211274	3.1301	13.8352	8.8063
 138	1	2	0.221306	4.23914	13.2847	9.68575
 139	1	2	-0.631195	4.26187	11.9069	9.95674
 140	1	3	0.289556	3.51012	11.2589	9.5204
 141	1	2	0.263167	5.24988	11.3631	10.791
 142	1	2	-0.339066	6.21112	12.2128	11.3518
 143	1	3	0.163087	6.96559	11.7909	12.0083
 144	1	2	0.033139	6.22136	13.5898	11.0769
 145	1	1	-0.070169	7.30328	14.4618	11.7058
 146	1	2	-0.051663	5.2261	14.1309	10.2369
 147	1	4	-0.031436	5.23688	15.4722	9.93632
 148	1	5	0.081364	8.20252	13.8773	11.9342
 149	1	5	-0.00525	6.94752	14.9073	12.6433
 150	1	5	-0.006128	7.61194	15.278	11.0407
 151	1	5	0.002513	2.27083	13.1543	8.76067
 152	1	5	0.147318	3.49526	13.9949	7.78614
 153	1	5	0.144731	2.76377	14.7952	9.18859
 154	1	1	-0.211274	2.54915	9.3085	11.8987
 155	1	2	0.221306	3.39548	8.54853	10.8928
 156	1	2	-0.631195	2.88196	7.34045	10.4014
 157	1	3	0.289556	1.92743	6.97346	10.7607
 158	1	2	0.263167	3.6044	6.56775	9.48484
 159	1	2	-0.339066	4.84894	7.03427	9.03628
 160	1	3	0.163087	5.41895	6.43466	8.33467
 161	1	2	0.033139	5.39775	8.23016	9.53815
 162	1	1	-0.070169	6.79035	8.66515	9.0958
 163	1	2	-0.051663	4.67447	8.9868	10.4851
 164	1	4	-0.031436	5.29624	10.0329	11.1281
 165	1	5	0.081364	6.76843	9.68167	8.68313
 166	1	5	-0.00525	7.20065	8.00334	8.32286
 167	1	5	-0.006128	7.49015	8.66166	9.94117
 168	1	5	0.002513	1.50796	9.37652	11.5579
 169	1	5	0.147318	2.90664	10.3319	12.0575
 170	1	5	0.144731	2.5567	8.7954	12.8663
 171	1	1	-0.211274	0.614298	6.22865	7.96173
 172	1	2	0.221306	1.65028	5.43346	7.18495
 173	1	2	-0.631195	1.3927	5.11065	5.84092
 174	1	3	0.289556	0.479726	5.43966	5.36162
 175	1	2	0.263167	2.32181	4.36359	5.10288
 176	1	2	-0.339066	3.48749	3.91253	5.72765
 177	1	3	0.163087	4.19757	3.32406	5.1562
 178	1	2	0.033139	3.7483	4.19154	7.07651
 179	1	1	-0.070169	5.00194	3.5865	7.69599
 180	1	2	-0.051663	2.8493	5.00625	7.79857
 181	1	4	-0.031436	3.10841	5.34353	9.10529
 182	1	5	0.081364	5.90318	4.05925	7.28862
 183	1	5	-0.00525	5.05968	2.51384	7.46875
 184	1	5	-0.006128	5.03031	3.68546	8.78724
 185	1	5	0.002513	0.282245	5.67762	8.85131
 186	1	5	0.147318	-0.271444	6.4409	7.35537
 187	1	5	0.144731	1.03155	7.18743	8.28972
 188	1	1	-0.211274	0.142282	5.46998	2.12832
 189	1	2	0.221306	0.195282	3.97125	2.37925
 190	1	2	-0.631195	-0.759841	3.17964	1.73049
 191	1	3	0.289556	-1.49454	3.64022	1.07954
 192	1	2	0.263167	-0.772697	1.79133	1.89427
 193	1	2	-0.339066	0.188214	1.18829	2.71398
 194	1	3	0.163087	0.19297	0.109512	2.83375
 195	1	2	0.033139	1.16719	1.95816	3.36139
 196	1	1	-0.070169	2.23935	1.23009	4.16041
 197	1	2	-0.051663	1.16287	3.36489	3.21056
 198	1	4	-0.031436	2.15981	4.13189	3.76218
 199	1	5	0.081364	2.10453	1.39243	5.23658
 200	1	5	-0.00525	3.24243	1.57239	3.87893
 201	1	5	-0.006128	2.21083	0.147481	3.98237
 202	1	5	0.002513	0.19495	5.68798	1.05416
 203	1	5	0.147318	0.961453	6.01145	2.61321
 204	1	5	0.144731	-0.799566	5.88162	2.50686
 205	1	1	-0.211274	-0.275746	-0.755566	-0.522442
 206	1	2	0.221306	-1.33771	-1.20206	0.4658
 207	1	2	-0.631195	-1.7428	-2.54616	0.469436
 208	1	3	0.289556	-1.29844	-3.24758	-0.226114
 209	1	2	0.263167	-2.76123	-2.97154	1.33283
 210	1	2	-0.339066	-3.27861	-2.0718	2.27265
 211	1	3	0.163087	-4.03965	-2.41503	2.9666
 212	1	2	0.033139	-2.86614	-0.732028	2.30999
 213	1	1	-0.070169	-3.45393	0.180353	3.38278
 214	1	2	-0.051663	-1.93832	-0.279691	1.34971
 215	1	4	-0.031436	-1.70037	1.06416	1.20041
 216	1	5	0.081364	-2.99429	-0.0382253	4.35518
 217	1	5	-0.00525	-4.53493	0.0256648	3.48519
 218	1	5	-0.006128	-3.29474	1.24545	3.17924
 219	1	5	0.002513	0.129426	-1.59479	-1.10126
 220	1	5	0.147318	0.560377	-0.28142	0.00558762
 221	1	5	0.144731	-0.688194	-0.0255279	-1.22712
 222	1	1	-0.211274	-3.36355	-4.73178	-1.65037
 223	1	2	0.221306	-2.96879	-5.74518	-0.586578
 224	1	2	-0.631195	-2.75104	-7.07779	-0.983819
 225	1	3	0.289556	-2.85107	-7.36205	-2.02483
 226	1	2	0.263167	-2.44567	-8.06617	-0.0333052
 227	1	2	-0.339066	-2.28718	-7.69459	1.30359
 228	1	3	0.163087	-2.02958	-8.4552	2.03316
 229	1	2	0.033139	-2.48608	-6.37195	1.72315
 230	1	1	-0.070169	-2.32558	-6.06465	3.20814
 231	1	2	-0.051663	-2.86293	-5.39215	0.780227
 232	1	4	-0.031436	-3.3622	-4.20056	1.24838
 233	1	5	0.081364	-1.26183	-6.00001	3.46775
 234	1	5	-0.00525	-2.7699	-6.8593	3.82009
 235	1	5	-0.006128	-2.79702	-5.12261	3.51038
 236	1	5	0.002513	-2.50786	-4.11178	-1.94387
 237	1	5	0.147318	-4.15684	-4.06574	-1.29238
 238	1	5	0.144731	-3.73147	-5.22548	-2.55557
 239	1	1	-0.211274	-3.88065	-11.1723	-2.02878
 240	1	2	0.221306	-2.4961	-10.6709	-2.39197
 241	1	2	-0.631195	-1.93814	-11.0859	-3.6083
 242	1	3	0.289556	-2.50266	-11.7046	-4.29458
 243	1	2	0.263167	-0.626757	-10.7433	-3.94104
 244	1	2	-0.339066	0.142703	-10.0187	-3.01836
 245	1	3	0.163087	1.1827	-9.81626	-3.22348
 246	1	2	0.033139	-0.392492	-9.59367	-1.79271
 247	1	1	-0.070169	0.553955	-8.95456	-0.777317
 248	1	2	-0.051663	-1.74962	-9.86013	-1.51039
 249	1	4	-0.031436	-2.33126	-9.39859	-0.356419
 250	1	5	0.081364	0.909335	-7.97752	-1.12341
 251	1	5	-0.00525	1.43106	-9.59552	-0.620697
 252	1	5	-0.006128	0.102283	-8.81635	0.210898
 253	1	5	0.002513	-3.8567	-11.7093	-1.07191
 254	1	5	0.147318	-4.26149	-11.8727	-2.77986
 255	1	5	0.144731	-4.59034	-10.3436	-1.94006
 256	1	1	-0.211274	-2.23456	-10.2375	-7.36212
 257	1	2	0.221306	-0.847966	-9.65572	-7.22499
 258	1	2	-0.631195	-0.347037	-8.41502	-8.34082
 259	1	3	0.289556	-1.05909	-7.97033	-9.02434
 260	1	2	0.263167	1.3397	-7.89347	-8.369
 261	1	2	-0.339066	2.48676	-8.61855	-7.29757
 262	1	3	0.163087	3.50128	-8.2385	-7.25867
 263	1	2	0.033139	1.98695	-9.79999	-6.14025
 264	1	1	-0.070169	2.98722	-10.1514	-5.04907
 265	1	2	-0.051663	0.308973	-10.335	-6.09544
 266	1	4	-0.031436	-0.105666	-11.1999	-5.12143
 267	1	5	0.081364	3.98872	-10.3018	-5.4621
 268	1	5	-0.00525	2.69998	-11.059	-4.5058
 269	1	5	-0.006128	3.07065	-9.3283	-4.32892
 270	1	5	0.002513	-2.92893	-9.83001	-6.61941
 271	1	5	0.147318	-2.19296	-11.3273	-7.2503
 272	1	5	0.144731	-2.62811	-10.0313	-8.36405
 273	1	1	-0.211274	4.151	-8.01836	-10.3206
 274	1	2	0.221306	4.1355	-6.73339	-9.50734
 275	1	2	-0.631195	5.36335	-6.08215	-9.32217
 276	1	3	0.289556	6.2588	-6.48939	-9.77919
 277	1	2	0.263167	5.45316	-4.91006	-8.55626
 278	1	2	-0.339066	4.30405	-4.42549	-7.92718
 279	1	3	0.163087	4.38868	-3.54855	-7.29308
 280	1	2	0.033139	3.06328	-5.06879	-8.08175
 281	1	1	-0.070169	1.874	-4.52995	-7.29742
 282	1	2	-0.051663	2.96125	-6.20906	-8.91612
 283	1	4	-0.031436	1.73875	-6.81864	-9.12118
 284	1	5	0.081364	2.16423	-3.69068	-6.65265
 285	1	5	-0.00525	1.46126	-5.299	-6.63728
 286	1	5	-0.006128	1.07674	-4.17936	-7.96276
 287	1	5	0.002513	4.17781	-7.80526	-11.3953
 288	1	5	0.147318	3.28469	-8.65633	-10.1234
 289	1	5	0.144731	5.03545	-8.61546	-10.072
 290	1	1	-0.211274	8.54573	-3.83694	-10.5292
 291	1	2	0.221306	8.74817	-4.84045	-9.40871
 292	1	2	-0.631195	9.89989	-5.64087	-9.42739
 293	1	3	0.289556	10.6243	-5.53655	-10.2275
 294	1	2	0.263167	10.1533	-6.54802	-8.39448
 295	1	2	-0.339066	9.24488	-6.6231	-7.32126
 296	1	3	0.163087	9.44972	-7.27478	-6.47898
 297	1	2	0.033139	8.11153	-5.80698	-7.25867
 298	1	1	-0.070169	7.28675	-5.83648	-5.97327
 299	1	2	-0.051663	7.83278	-4.94476	-8.33856
 300	1	4	-0.031436	6.64845	-4.25478	-8.37316
 301	1	5	0.081364	7.06132	-6.86591	-5.67302
 302	1	5	-0.00525	6.33571	-5.29978	-6.04687
 303	1	5	-0.006128	7.8509	-5.37099	-5.15437
 304	1	5	0.002513	9.20773	-4.03532	-11.3816
 305	1	5	0.147318	8.76123	-2.82439	-10.1679
 306	1	5	0.144731	7.51343	-3.85439	-10.8962
 307	1	1	-0.211274	11.4514	-10.0837	-7.64919
 308	1	2	0.221306	11.7585	-8.92993	-6.70985
 309	1	2	-0.631195	11.8278	-9.20937	-5.34537
 310	1	3	0.289556	11.7148	-10.238	-5.01497
 311	1	2	0.263167	11.9218	-8.17353	-4.40019
 312	1	2	-0.339066	12.1431	-6.86564	-4.84463
 313	1	3	0.163087	12.2437	-6.06462	-4.11895
 314	1	2	0.033139	12.1511	-6.56747	-6.216
 315	1	1	-0.070169	12.3199	-5.11793	-6.66108
 316	1	2	-0.051663	11.8538	-7.59271	-7.14326
 317	1	4	-0.031436	11.3437	-7.24317	-8.36773
 318	1	5	0.081364	11.356	-4.59418	-6.66892
 319	1	5	-0.00525	12.7435	-5.05694	-7.67218
 320	1	5	-0.006128	12.9961	-4.57019	-5.99372
 321	1	5	0.002513	10.9887	-10.9258	-7.11724
 322	1	5	0.147318	12.3763	-10.4493	-8.10891
 323	1	5	0.144731	10.7634	-9.7875	-8.44786
 324	1	1	-0.211274	8.90647	-9.08002	-3.67752
 325	1	2	0.221306	9.88134	-9.99983	-2.95695
 326	1	2	-0.631195	9.4746	-11.3168	-2.72172
 327	1	3	0.289556	8.49143	-11.6266	-3.04841
 328	1	2	0.263167	10.3473	-12.2586	-2.14841
 329	1	2	-0.339066	11.6402	-11.8555	-1.7955
 330	1	3	0.163087	12.3292	-12.5878	-1.38771
 331	1	2	0.033139	12.0834	-10.5466	-2.0518
 332	1	1	-0.070169	13.5393	-10.1791	-1.79495
 333	1	2	-0.051663	11.2029	-9.61445	-2.63547
 334	1	4	-0.031436	11.7076	-8.41052	-3.06427
 335	1	5	0.081364	13.618	-9.45041	-0.979445
 336	1	5	-0.00525	13.9985	-9.73511	-2.68798
 337	1	5	-0.006128	14.1394	-11.0564	-1.52571
 338	1	5	0.002513	8.94336	-8.0565	-3.2861
 339	1	5	0.147318	7.87504	-9.43428	-3.57679
 340	1	5	0.144731	9.13924	-9.0446	-4.74756
 341	1	1	-0.211274	7.13385	-13.8274	-1.59838
 342	1	2	0.221306	7.82162	-14.1582	-2.91305
 343	1	2	-0.631195	7.04165	-14.3806	-4.05647
 344	1	3	0.289556	5.96092	-14.3175	-3.99507
 345	1	2	0.263167	7.64878	-14.6535	-5.29423
 346	1	2	-0.339066	9.03969	-14.7736	-5.36218
 347	1	3	0.163087	9.50472	-15.0068	-6.31459
 348	1	2	0.033139	9.84067	-14.5175	-4.23974
 349	1	1	-0.070169	11.3549	-14.5769	-4.39118
 350	1	2	-0.051663	9.22702	-14.1483	-3.02435
 351	1	4	-0.031436	9.9832	-13.5808	-2.0285
 352	1	5	0.081364	11.645	-15.3473	-5.11612
 353	1	5	-0.00525	11.8505	-14.8251	-3.44421
 354	1	5	-0.006128	11.7513	-13.6166	-4.7426
 355	1	5	0.002513	7.37219	-14.5796	-0.835931
 356	1	5	0.147318	6.04472	-13.7998	-1.70753
 357	1	5	0.144731	7.45463	-12.852	-1.21584
 358	1	1	-0.211274	6.88413	-11.966	-7.31966
 359	1	2	0.221306	5.63806	-12.7947	-7.05936
 360	1	2	-0.631195	4.38457	-12.1906	-7.23696
 361	1	3	0.289556	4.29892	-11.1853	-7.63356
 362	1	2	0.263167	3.21623	-12.8653	-6.86215
 363	1	2	-0.339066	3.30718	-14.1676	-6.35848
 364	1	3	0.163087	2.39946	-14.6873	-6.07091
 365	1	2	0.033139	4.5326	-14.8427	-6.31711
 366	1	1	-0.070169	4.54308	-16.318	-5.9366
 367	1	2	-0.051663	5.71284	-14.1364	-6.62085
 368	1	4	-0.031436	6.92814	-14.751	-6.45689
 369	1	5	0.081364	4.54368	-16.4457	-4.84843
 370	1	5	-0.00525	5.41696	-16.8428	-6.34221
 371	1	5	-0.006128	3.65629	-16.8272	-6.3357
 372	1	5	0.002513	7.38566	-12.2757	-8.24403
 373	1	5	0.147318	7.59585	-12.0678	-6.49166
 374	1	5	0.144731	6.63992	-10.9017	-7.4055
 375	1	1	-0.211274	0.504479	-8.05999	-6.24264
 376	1	2	0.221306	1.11695	-10.194	-8.24019
 377	1	2	-0.631195	0.963435	-10.0967	-9.72138
 378	1	3	0.289556	0.853091	-9.14822	-10.2274
 379	1	2	0.263167	0.58812	-11.0883	-10.6302
 380	1	2	-0.339066	0.594084	-12.4	-10.2531
 381	1	3	0.163087	0.271951	-13.1752	-10.9423
 382	1	2	0.033139	1.11736	-12.6972	-9.01345
 383	1	1	-0.070169	1.22978	-14.2011	-8.73407
 384	1	2	-0.051663	1.45286	-11.6651	-8.07437
 385	1	4	-0.031436	1.98075	-12.2732	-6.94421
 386	1	5	0.081364	0.672516	-14.7989	-9.46467
 387	1	5	-0.00525	0.825421	-14.468	-7.75029
 388	1	5	-0.006128	2.27176	-14.5365	-8.79959
 389	1	5	0.002513	0.103918	-7.07719	-6.57024
 390	1	5	0.147318	1.30109	-7.66064	-5.58548
 391	1	5	0.144731	-0.264162	-8.22802	-5.46297
 392	1	1	-0.211274	-2.40622	-11.7714	-12.9751
 393	1	2	0.221306	-1.05867	-11.816	-13.6766
 394	1	2	-0.631195	-1.00667	-12.2697	-15.0066
 395	1	3	0.289556	-1.91621	-12.5605	-15.5135
 396	1	2	0.263167	0.209325	-12.2989	-15.7067
 397	1	2	-0.339066	1.37788	-11.9324	-15.0215
 398	1	3	0.163087	2.32007	-11.893	-15.5422
 399	1	2	0.033139	1.36134	-11.5455	-13.6741
 400	1	1	-0.070169	2.68279	-11.2648	-12.965
 401	1	2	-0.051663	0.123536	-11.4102	-13.0192
 402	1	4	-0.031436	0.0487211	-10.7181	-11.8336
 403	1	5	0.081364	2.90039	-12.0689	-12.2489
 404	1	5	-0.00525	2.66202	-10.3188	-12.4113
 405	1	5	-0.006128	3.52417	-11.2197	-13.6669
 406	1	5	0.002513	-2.53541	-12.6504	-12.3307
 407	1	5	0.147318	-3.22983	-11.7621	-13.6959
 408	1	5	0.144731	-2.50575	-10.8773	-12.3503
 409	1	1	-0.211274	-2.06437	-13.9324	-18.3218
 410	1	2	0.221306	-0.643074	-14.4683	-18.2617
 411	1	2	-0.631195	-0.418233	-15.7003	-18.8915
 412	1	3	0.289556	-1.24307	-16.2431	-19.3384
 413	1	2	0.263167	0.849944	-16.2892	-18.8769
 414	1	2	-0.339066	1.92102	-15.5876	-18.3288
 415	1	3	0.163087	2.91313	-16.0234	-18.361
 416	1	2	0.033139	1.73741	-14.3208	-17.7613
 417	1	1	-0.070169	2.99445	-13.5777	-17.3458
 418	1	2	-0.051663	0.43366	-13.7759	-17.6519
 419	1	4	-0.031436	0.22806	-12.5434	-17.0651
 420	1	5	0.081364	3.21207	-13.7479	-16.2851
 421	1	5	-0.00525	2.90686	-12.5019	-17.5404
 422	1	5	-0.006128	3.86612	-13.924	-17.9149
 423	1	5	0.002513	-2.7751	-14.6517	-17.894
 424	1	5	0.147318	-2.35203	-13.7631	-19.3657
 425	1	5	0.144731	-2.18322	-12.9833	-17.7933
 426	1	1	-0.211274	3.67894	-18.3845	-20.2441
 427	1	2	0.221306	2.83864	-19.1177	-19.2107
 428	1	2	-0.631195	3.35276	-20.3	-18.6513
 429	1	3	0.289556	4.29521	-20.7102	-18.9956
 430	1	2	0.263167	2.68409	-20.938	-17.6012
 431	1	2	-0.339066	1.50647	-20.366	-17.1033
 432	1	3	0.163087	1.00031	-20.8129	-16.254
 433	1	2	0.033139	0.979987	-19.1846	-17.6309
 434	1	1	-0.070169	-0.229836	-18.6213	-16.8919
 435	1	2	-0.051663	1.61605	-18.5814	-18.7422
 436	1	4	-0.031436	1.03514	-17.5307	-19.4154
 437	1	5	0.081364	-1.12219	-19.2294	-17.0721
 438	1	5	-0.00525	-0.470058	-17.589	-17.1393
 439	1	5	-0.006128	-0.038667	-18.6309	-15.8101
 440	1	5	0.002513	4.05819	-17.4416	-19.8295
 441	1	5	0.147318	3.0992	-18.1494	-21.1426
 442	1	5	0.144731	4.5518	-18.9724	-20.5472
 443	1	1	-0.211274	1.72595	-24.5168	-17.0799
 444	1	2	0.221306	2.0149	-23.735	-15.807
 445	1	2	-0.631195	1.47204	-24.2138	-14.6074
 446	1	3	0.289556	0.954302	-25.1657	-14.5908
 447	1	2	0.263167	1.58101	-23.4777	-13.4191
 448	1	2	-0.339066	2.32305	-22.2902	-13.4229
 449	1	3	0.163087	2.4501	-21.7409	-12.4958
 450	1	2	0.033139	2.93281	-21.8171	-14.6002
 451	1	1	-0.070169	3.73995	-20.521	-14.5197
 452	1	2	-0.051663	2.76429	-22.5391	-15.8084
 453	1	4	-0.031436	3.2423	-22.041	-16.9997
 454	1	5	0.081364	3.81665	-19.9937	-15.476
 455	1	5	-0.00525	4.76189	-20.7182	-14.1748
 456	1	5	-0.006128	3.27952	-19.8177	-13.8148
 457	1	5	0.002513	2.43958	-25.3382	-17.2162
 458	1	5	0.147318	1.76425	-23.8801	-17.9711
 459	1	5	0.144731	0.718663	-24.9463	-17.0462
 460	1	1	-0.211274	-1.74878	-23.5415	-13.256
 461	1	2	0.221306	-1.2652	-23.3505	-11.828
 462	1	2	-0.631195	-2.26755	-23.1098	-10.8672
 463	1	3	0.289556	-3.30114	-23.017	-11.1814
 464	1	2	0.263167	-1.97531	-23.0863	-9.49668
 465	1	2	-0.339066	-0.643893	-23.2699	-9.10714
 466	1	3	0.163087	-0.408531	-23.3373	-8.05187
 467	1	2	0.033139	0.390495	-23.4111	-10.0474
 468	1	1	-0.070169	1.826	-23.4874	-9.5413
 469	1	2	-0.051663	0.0867877	-23.5107	-11.423
 470	1	4	-0.031436	1.07226	-24.0091	-12.2585
 471	1	5	0.081364	2.37326	-22.5799	-9.82686
 472	1	5	-0.00525	2.36323	-24.3504	-9.95089
 473	1	5	-0.006128	1.86764	-23.5598	-8.44702
 474	1	5	0.002513	-2.13205	-22.6027	-13.6735
 475	1	5	0.147318	-2.55914	-24.278	-13.28
 476	1	5	0.144731	-0.974253	-23.9073	-13.9268
 477	1	1	-0.211274	-1.59043	-21.1286	-6.77847
 478	1	2	0.221306	-3.07528	-21.1564	-7.09056
 479	1	2	-0.631195	-3.86641	-20.2345	-6.38735
 480	1	3	0.289556	-3.40057	-19.5184	-5.71915
 481	1	2	0.263167	-5.25596	-20.2456	-6.49996
 482	1	2	-0.339066	-5.86431	-21.1774	-7.34037
 483	1	3	0.163087	-6.94747	-21.1932	-7.40682
 484	1	2	0.033139	-5.09653	-22.0939	-8.08156
 485	1	1	-0.070169	-5.83279	-23.0867	-8.9737
 486	1	2	-0.051663	-3.68356	-22.0973	-7.96485
 487	1	4	-0.031436	-2.97989	-23.1366	-8.55121
 488	1	5	0.081364	-5.81567	-24.0933	-8.53844
 489	1	5	-0.00525	-5.38344	-23.135	-9.97286
 490	1	5	-0.006128	-6.88441	-22.799	-9.1065
 491	1	5	0.002513	-1.30265	-20.1982	-6.27294
 492	1	5	0.147318	-0.986847	-21.178	-7.68727
 493	1	5	0.144731	-1.32679	-21.9602	-6.1145
 494	1	6	0	-9.93218	31.3896	17.7524
 495	1	3	0	-5.85591	-19.5471	-5.92726

Velocities

   1	0.000860363	-4.24023e-05	-0.000882644
   2	0.00017129	-0.00120846	-0.0011301
   3	0.000724483	-0.000652704	-0.000957034
   4	0.00264072	-0.00062317	-0.00260821
   5	0.00158721	-0.000385069	-0.000122245
   6	-0.000280201	0.000262084	0.00136528
   7	-0.00101181	0.000574906	0.0018935
   8	0.000179017	0.000460497	0.00115895
   9	5.84825e-05	0.000562198	0.00075735
  10	-0.000788448	-0.000281356	2.75412e-05
  11	-0.000950267	0.000100597	-0.000776139
  12	0.000285279	0.000241686	0.000882739
  13	-0.000633633	0.000723878	0.000693743
  14	-0.000332281	0.000570354	0.000174504
  15	-0.00166307	0.00216539	0.00167792
  16	0.00351371	0.000463899	-0.000497048
  17	0.00322626	0.000693153	-0.00145729
  18	-0.00033591	0.000860951	0.000550724
  19	-0.000331281	0.000415994	0.000225861
  20	-0.000359709	0.000382	0.000426677
  21	0.000702581	-0.0005769	-0.000384547
  22	-0.000153359	0.00010891	1.52713e-05
  23	-0.000751135	0.000702719	0.00032656
  24	-0.00016378	-0.000124676	-0.000590626
  25	-0.000591485	0.000632864	4.84326e-05
  26	-0.000490277	0.000850928	0.000452475
  27	0.00062243	-0.000386177	-0.00100929
  28	0.00091837	2.6463e-05	-0.000695151
  29	0.000235815	0.00126884	0.000199447
  30	-0.000133154	0.000903577	0.000257945
  31	-0.000705246	-6.73788e-05	0.000779122
  32	-0.000173802	0.000930397	0.00039407
  33	0.000343627	0.000207624	0.00118424
  34	-0.00056815	0.000921091	-0.000135285
  35	-0.000307277	-0.000581501	-0.000217563
  36	-0.000176244	-0.000484691	-7.06146e-05
  37	-0.000276588	-0.000397473	-5.24942e-05
  38	-0.000435445	-0.000405462	-0.000133938
  39	-0.00015479	-0.000306846	7.69738e-05
  40	-0.000215902	-0.000249298	-0.000163955
  41	-0.000301251	-0.000185524	-0.000299583
  42	-0.000173974	-0.00027463	-0.000159776
  43	-0.000488939	-0.000301923	-0.000416041
  44	8.13993e-05	-0.000435514	5.69805e-05
  45	0.000261566	-0.000554666	-0.000379912
  46	-0.000105832	-0.00013961	-0.000585475
  47	-0.00082978	-0.000456079	0.00013447
  48	-0.000974062	-0.000444161	-0.000940107
  49	-0.00120839	-0.000655165	-0.00109637
  50	0.000161405	-0.00163932	2.84788e-05
  51	-9.36952e-05	0.000303861	0.000316624
  52	0.000406761	-0.000158984	0.000160147
  53	0.000233895	-0.000205514	0.000150573
  54	0.000455313	-8.26953e-05	-0.000160409
  55	0.000767127	6.06854e-05	-0.000409973
  56	0.000312782	-0.000117116	-0.000157313
  57	-4.82131e-05	-0.000302203	0.000173264
  58	-0.000187834	-0.000361294	0.00022754
  59	-6.99686e-05	-0.000290938	0.000268928
  60	5.76461e-05	-0.000101566	0.000122483
  61	3.75545e-05	-0.000269724	0.000282303
  62	-3.53091e-05	-0.000272232	0.000372013
  63	1.47793e-05	-0.000242413	-1.14604e-05
  64	0.000218458	3.56432e-05	-0.000142794
  65	0.000122545	0.000120047	0.000359485
  66	0.000647926	-0.000102141	6.83622e-05
  67	0.000493973	-0.000117296	0.000402611
  68	0.000310603	-0.000182918	4.21648e-05
  69	0.000868425	7.6179e-05	-0.000144545
  70	0.000499259	9.28204e-05	-3.13131e-05
  71	0.000318771	9.21082e-05	0.000305001
  72	0.000423696	0.0001426	0.000502281
  73	8.11561e-05	9.46978e-06	0.00033692
  74	-5.76321e-05	5.38334e-06	0.00014847
  75	-0.000238002	-0.000137424	0.000150365
  76	3.81641e-06	0.00016852	-8.77486e-05
  77	-0.00025724	0.000254669	-0.000289966
  78	0.000350461	0.000115233	-0.000224808
  79	0.000530096	4.02628e-05	-0.000527096
  80	-0.000244511	0.00103034	0.000225652
  81	0.000237151	-0.000494871	-0.000335207
  82	-0.000965689	0.000337313	-0.00104709
  83	0.00117094	-0.00027902	-9.66021e-05
  84	0.00115787	0.000343247	-0.00030483
  85	0.000732045	0.000166872	-0.000127109
  86	-0.000104218	8.81104e-05	0.000291162
  87	-0.000221762	0.000104117	7.82974e-07
  88	-0.000350745	0.000157396	-0.000198503
  89	-0.000317303	0.000167462	-0.000171883
  90	-0.000400463	0.000138242	-0.000268745
  91	-0.00051907	0.000154657	-0.000349201
  92	-0.000660226	0.000174544	-0.000495931
  93	-0.000359065	6.18289e-05	-0.000111802
  94	-0.000444523	-0.000154743	-3.48542e-06
  95	-0.00011147	3.96733e-05	0.000197002
  96	4.86624e-05	-2.42222e-05	0.000380813
  97	-0.000428805	-0.000139125	-0.00016708
  98	-0.000518868	-0.00012512	0.000349949
  99	-0.00055501	-0.000525879	-6.40503e-05
 100	-0.000322065	0.000115204	-0.000139511
 101	-0.000444615	-0.000189554	0.00087148
 102	0.000520542	0.000315858	0.00051622
 103	-0.00014867	-0.000214196	0.000288613
 104	-0.000212081	-9.6797e-05	0.000277713
 105	-0.000181057	-9.02608e-07	0.000338574
 106	-7.09779e-06	0.000365904	0.000346596
 107	-0.000409944	-0.000569993	0.000360759
 108	-0.00064114	-0.000778483	0.000354194
 109	-0.00091182	-0.00109078	0.00045077
 110	-0.000451632	-7.95669e-05	0.000194988
 111	-0.000403052	0.00110034	-2.02305e-05
 112	-0.000329616	1.02741e-05	0.000154488
 113	-0.000300275	0.000142597	-4.44213e-05
 114	-0.001808	0.00214587	6.72873e-06
 115	0.00091071	0.00218541	-0.000461482
 116	-0.000346053	0.000280138	0.000110062
 117	-0.000180665	-0.000471852	0.00035991
 118	-4.23104e-05	-0.000219321	0.000139435
 119	-0.000218171	-0.000181864	0.000464713
 120	-0.000340648	-0.000444299	-0.000343995
 121	-0.000570932	-0.000269126	-0.000588713
 122	-0.000761298	-0.000132498	-0.000890318
 123	-0.00106089	4.0121e-05	-0.00122881
 124	-0.000287075	-0.000329392	-0.000481436
 125	8.36383e-05	-0.000486865	-9.28411e-05
 126	0.000462915	-0.000670563	0.000289434
 127	2.73998e-05	-0.000453314	-0.000138484
 128	0.000373526	-0.00048807	0.000184648
 129	-0.000287862	-0.000355414	-0.000250218
 130	-0.00030221	-0.000517292	9.01007e-05
 131	0.00208698	-0.00161388	0.00138838
 132	-0.000500786	-0.00143875	-0.00152379
 133	-6.3478e-05	0.0016684	0.000892041
 134	0.000626321	-0.000827956	4.30587e-05
 135	-0.00105193	-0.000451839	0.000362276
 136	-0.00040188	-0.000347868	-0.00116372
 137	0.000496538	-0.000564989	-0.000853344
 138	-7.42049e-05	-0.000446833	-7.85873e-05
 139	-0.00030297	-0.000367777	0.000228975
 140	-0.000333655	-0.000367209	0.000264694
 141	-0.000204552	-0.00034954	0.000135014
 142	-4.30184e-05	-0.000423219	-0.000131812
 143	0.000130679	-0.000529572	-0.000395277
 144	-6.50985e-05	-0.000450629	-9.92072e-05
 145	3.03257e-05	-0.000539843	-0.000181095
 146	-7.27585e-05	-0.000435593	-9.9837e-05
 147	-4.9852e-07	-0.000448634	-0.000223203
 148	-0.000354129	-0.000829872	0.000703507
 149	-0.000210973	0.000249176	-0.000679792
 150	0.000730302	-0.00118724	-0.00061705
 151	0.000740968	-0.000803187	-0.00183235
 152	0.00148517	-0.000372569	-0.00053258
 153	-2.30524e-05	-0.000728501	-0.00107736
 154	0.000617887	0.000227586	0.00107698
 155	-0.000196045	0.000134009	0.000420006
 156	-0.000564978	0.00030811	0.000283408
 157	-0.000640226	0.000505848	0.000352421
 158	-0.000740742	0.000176981	0.000183849
 159	-0.000714684	-7.03913e-05	8.15761e-05
 160	-0.000927622	-9.20502e-05	-3.70996e-05
 161	-0.000474328	-0.000221114	4.6023e-05
 162	-0.0004868	-0.00054147	-0.000192288
 163	-0.000193828	-0.000168552	0.000190212
 164	5.97129e-05	-0.000322645	7.30286e-05
 165	-0.000347562	-0.000555785	-0.000168884
 166	-0.000857762	-0.000676044	-0.000327896
 167	-0.000347083	-0.000804148	-0.000342666
 168	0.000275208	-4.4751e-05	0.00233599
 169	0.000583766	0.000385384	0.000452024
 170	0.00194399	0.000465411	0.00125648