pySIMM System Object

308 atoms
325 bonds
558 angles
718 dihedrals
72 impropers

6 atom types
6 bond types
8 angle types
3 dihedral types
2 improper types

-94.659639 94.659639 xlo xhi
-94.659639 94.659639 ylo yhi
-94.659639 94.659639 zlo zhi

Masses

   1	12.01	# c3
   2	12.01	# ca
   3	1.008	# ha
   4	16.0	# oh
   5	1.008	# hc
   6	1.008	# ho

Pair Coeffs

   1	0.1094	3.3996695084235347	# c3
   2	0.086	3.3996695084235347	# ca
   3	0.015	2.59964245953351	# ha
   4	0.2104	3.0664733878390478	# oh
   5	0.0157	2.649532787749369	# hc
   6	0.0047	0.5379246460131368	# ho

Bond Coeffs

   1	371.4	0.973	# ho,oh
   2	461.1	1.3984	# ca,ca
   3	384.0	1.3637	# ca,oh
   4	345.8	1.086	# ca,ha
   5	321.0	1.5156	# c3,ca
   6	330.6	1.0969	# c3,hc

Angle Coeffs

   1	46.8	110.47	# ca,c3,hc
   2	49.0	108.58	# ca,oh,ho
   3	69.52	119.9	# ca,ca,oh
   4	66.62	120.02	# ca,ca,ca
   5	39.4	107.58	# hc,c3,hc
   6	48.18	119.88	# ca,ca,ha
   7	63.53	120.77	# c3,ca,ca
   8	63.5	119.89	# ca,oh,ca

Dihedral Coeffs

   1	1	0.9	2	180	# X,ca,oh,X
   2	1	0.0	2	0	# X,c3,ca,X
   3	1	3.625	2	180	# X,ca,ca,X

Improper Coeffs

   1	1.1	-1	2	# ca,ca,ca,c3
   2	1.1	-1	2	# ca,X,X,ha

Atoms

   1	1	1	-0.211274	-6.83405	11.6876	13.8568
   2	1	2	0.221306	-5.59657	11.8143	14.7274
   3	1	2	-0.631195	-4.63417	12.7592	14.3536
   4	1	3	0.289556	-4.81358	13.3795	13.4822
   5	1	2	0.263167	-3.45356	12.9144	15.0953
   6	1	2	-0.339066	-3.2598	12.1301	16.2382
   7	1	3	0.163087	-2.35218	12.259	16.8188
   8	1	2	0.033139	-4.22672	11.1974	16.6509
   9	1	1	-0.070169	-3.99134	10.3895	17.9214
  10	1	2	-0.051663	-5.39932	11.0324	15.8857
  11	1	4	-0.031436	-6.3426	10.1197	16.2733
  12	1	5	0.081364	-4.73118	10.6485	18.6888
  13	1	5	-0.00525	-2.99663	10.5784	18.3449
  14	1	5	-0.006128	-4.06748	9.31241	17.7276
  15	1	5	0.002513	-6.59027	11.8462	12.7982
  16	1	5	0.147318	-7.58007	12.4357	14.1471
  17	1	5	0.144731	-7.29312	10.6965	13.9386
  18	1	1	-0.211274	-2.20249	13.5865	11.8476
  19	1	2	0.221306	-2.60613	14.8662	12.5608
  20	1	2	-0.631195	-2.88321	16.0064	11.7928
  21	1	3	0.289556	-2.82089	15.9483	10.7114
  22	1	2	0.263167	-3.23815	17.2167	12.4113
  23	1	2	-0.339066	-3.33027	17.2674	13.8058
  24	1	3	0.163087	-3.60209	18.2037	14.2823
  25	1	2	0.033139	-3.09461	16.1293	14.5921
  26	1	1	-0.070169	-3.24042	16.2277	16.1056
  27	1	2	-0.051663	-2.72363	14.9223	13.9656
  28	1	4	-0.031436	-2.47834	13.8085	14.7306
  29	1	5	0.081364	-3.83731	15.397	16.5018
  30	1	5	-0.00525	-3.74248	17.1569	16.4034
  31	1	5	-0.006128	-2.2595	16.206	16.596
  32	1	5	0.002513	-1.92445	13.7688	10.8018
  33	1	5	0.147318	-3.02613	12.864	11.8555
  34	1	5	0.144731	-1.34257	13.1203	12.3418
  35	1	1	-0.211274	-1.34026	18.3294	9.68155
  36	1	2	0.221306	-2.82794	18.4001	9.37438
  37	1	2	-0.631195	-3.20766	18.4984	8.03254
  38	1	3	0.289556	-2.43235	18.4937	7.27353
  39	1	2	0.263167	-4.55766	18.6484	7.66241
  40	1	2	-0.339066	-5.53093	18.6662	8.66757
  41	1	3	0.163087	-6.57252	18.7928	8.39173
  42	1	2	0.033139	-5.17496	18.552	10.0232
  43	1	1	-0.070169	-6.25915	18.6158	11.0909
  44	1	2	-0.051663	-3.81666	18.4173	10.3792
  45	1	4	-0.031436	-3.47012	18.3712	11.7062
  46	1	5	0.081364	-6.11471	19.4906	11.7368
  47	1	5	-0.00525	-6.24093	17.7211	11.7257
  48	1	5	-0.006128	-7.26158	18.69	10.6513
  49	1	5	0.002513	-0.800752	17.7577	8.9156
  50	1	5	0.147318	-1.1343	17.8553	10.6468
  51	1	5	0.144731	-0.915967	19.339	9.70854
  52	1	1	-0.211274	-4.34366	16.4851	4.73797
  53	1	2	0.221306	-3.58027	17.7932	4.65019
  54	1	2	-0.631195	-2.4043	17.8361	3.89095
  55	1	3	0.289556	-2.05057	16.9462	3.3837
  56	1	2	0.263167	-1.64434	19.0124	3.83192
  57	1	2	-0.339066	-2.11296	20.1707	4.45951
  58	1	3	0.163087	-1.5298	21.083	4.38376
  59	1	2	0.033139	-3.29583	20.1545	5.21316
  60	1	1	-0.070169	-3.76436	21.4309	5.90217
  61	1	2	-0.051663	-3.99557	18.9382	5.3596
  62	1	4	-0.031436	-4.93957	18.8142	6.34737
  63	1	5	0.081364	-3.1112	22.2799	5.6677
  64	1	5	-0.00525	-3.7804	21.3197	6.9929
  65	1	5	-0.006128	-4.77732	21.6978	5.57479
  66	1	5	0.002513	-4.07088	15.9253	5.64072
  67	1	5	0.147318	-4.14065	15.853	3.86685
  68	1	5	0.144731	-5.42415	16.6682	4.76091
  69	1	1	-0.211274	1.34062	16.8124	3.81403
  70	1	2	0.221306	0.870522	17.1818	2.41676
  71	1	2	-0.631195	1.3442	16.4267	1.33482
  72	1	3	0.289556	2.06355	15.6315	1.49722
  73	1	2	0.263167	0.916281	16.7111	0.0285037
  74	1	2	-0.339066	-0.0369243	17.7129	-0.178927
  75	1	3	0.163087	-0.38485	17.9092	-1.18797
  76	1	2	0.033139	-0.531674	18.4745	0.888455
  77	1	1	-0.070169	-1.58283	19.5446	0.618049
  78	1	2	-0.051663	-0.047637	18.2295	2.18911
  79	1	4	-0.031436	-0.42504	19.0533	3.21596
  80	1	5	0.081364	-2.5609	19.224	0.999191
  81	1	5	-0.00525	-1.69459	19.7436	-0.454912
  82	1	5	-0.006128	-1.32688	20.4937	1.10482
  83	1	5	0.002513	1.38785	17.679	4.4842
  84	1	5	0.147318	2.33989	16.3651	3.78696
  85	1	5	0.144731	0.656815	16.0799	4.25814
  86	1	1	-0.211274	4.2482	16.1309	-1.54708
  87	1	2	0.221306	3.47347	14.8475	-1.31186
  88	1	2	-0.631195	4.1498	13.6243	-1.40392
  89	1	3	0.289556	5.20066	13.5906	-1.66661
  90	1	2	0.263167	3.46456	12.4213	-1.20179
  91	1	2	-0.339066	2.10924	12.4447	-0.851623
  92	1	3	0.163087	1.58692	11.5072	-0.692295
  93	1	2	0.033139	1.40528	13.6575	-0.782198
  94	1	1	-0.070169	-0.0888894	13.6394	-0.480364
  95	1	2	-0.051663	2.0924	14.8647	-1.02783
  96	1	4	-0.031436	1.40879	16.0529	-1.0665
  97	1	5	0.081364	-0.289096	14.0483	0.517575
  98	1	5	-0.00525	-0.498721	12.6221	-0.511624
  99	1	5	-0.006128	-0.648925	14.2399	-1.20839
 100	1	5	0.002513	4.07048	16.8549	-0.741674
 101	1	5	0.147318	3.94741	16.5915	-2.49441
 102	1	5	0.144731	5.32659	15.945	-1.58864
 103	1	1	-0.211274	6.83634	10.4226	-1.10182
 104	1	2	0.221306	6.09342	10.3989	-2.42562
 105	1	2	-0.631195	6.74797	9.87916	-3.55363
 106	1	3	0.289556	7.75032	9.47518	-3.47509
 107	1	2	0.263167	6.09404	9.81705	-4.78945
 108	1	2	-0.339066	4.79675	10.3375	-4.89865
 109	1	3	0.163087	4.28856	10.2999	-5.85687
 110	1	2	0.033139	4.12012	10.8603	-3.78555
 111	1	1	-0.070169	2.69596	11.3675	-3.98882
 112	1	2	-0.051663	4.76343	10.8614	-2.52446
 113	1	4	-0.031436	4.09723	11.2212	-1.37278
 114	1	5	0.081364	2.00259	10.9083	-3.27501
 115	1	5	-0.00525	2.32207	11.1421	-4.99552
 116	1	5	-0.006128	2.64666	12.4566	-3.86525
 117	1	5	0.002513	6.63409	11.3456	-0.543293
 118	1	5	0.147318	7.91919	10.3683	-1.25539
 119	1	5	0.144731	6.53615	9.57314	-0.478669
 120	1	1	-0.211274	6.08545	10.01	-8.5916
 121	1	2	0.221306	5.53427	8.75614	-7.93441
 122	1	2	-0.631195	4.583	8.00224	-8.63592
 123	1	3	0.289556	4.22758	8.33132	-9.6055
 124	1	2	0.263167	4.05126	6.82564	-8.09319
 125	1	2	-0.339066	4.5484	6.3591	-6.86697
 126	1	3	0.163087	4.18708	5.4214	-6.46041
 127	1	2	0.033139	5.47424	7.1149	-6.13005
 128	1	1	-0.070169	5.92513	6.60302	-4.76757
 129	1	2	-0.051663	5.9389	8.34409	-6.64729
 130	1	4	-0.031436	6.6889	9.18111	-5.85379
 131	1	5	0.081364	5.38978	7.12164	-3.9628
 132	1	5	-0.00525	7.00052	6.76235	-4.61769
 133	1	5	-0.006128	5.73671	5.52782	-4.65724
 134	1	5	0.002513	6.351	10.7867	-7.86457
 135	1	5	0.147318	5.35681	10.445	-9.28377
 136	1	5	0.144731	6.98613	9.76227	-9.16505
 137	1	1	-0.211274	1.36724	6.0672	-6.31123
 138	1	2	0.221306	1.59724	4.91813	-7.27984
 139	1	2	-0.631195	0.926418	3.71753	-7.00551
 140	1	3	0.289556	0.317186	3.64299	-6.11221
 141	1	2	0.263167	0.971508	2.63683	-7.90222
 142	1	2	-0.339066	1.76463	2.75111	-9.04951
 143	1	3	0.163087	1.80245	1.92055	-9.74598
 144	1	2	0.033139	2.4887	3.92516	-9.3204
 145	1	1	-0.070169	3.32363	4.01152	-10.5922
 146	1	2	-0.051663	2.40782	5.02041	-8.43586
 147	1	4	-0.031436	3.05322	6.18556	-8.78876
 148	1	5	0.081364	3.43277	3.03175	-11.0714
 149	1	5	-0.00525	4.3332	4.38558	-10.3791
 150	1	5	-0.006128	2.85894	4.69003	-11.3187
 151	1	5	0.002513	1.65441	7.0402	-6.72559
 152	1	5	0.147318	1.93513	5.90936	-5.38771
 153	1	5	0.144731	0.306371	6.13395	-6.04583
 154	1	1	-0.211274	0.873596	-0.608441	-5.79804
 155	1	2	0.221306	-0.331426	0.310509	-5.68231
 156	1	2	-0.631195	-1.15844	0.176785	-4.55527
 157	1	3	0.289556	-0.917789	-0.544721	-3.78192
 158	1	2	0.263167	-2.27345	1.01086	-4.39002
 159	1	2	-0.339066	-2.60189	1.92069	-5.39941
 160	1	3	0.163087	-3.48121	2.5451	-5.2771
 161	1	2	0.033139	-1.81161	2.04831	-6.55148
 162	1	1	-0.070169	-2.24831	3.04164	-7.62341
 163	1	2	-0.051663	-0.630683	1.27898	-6.66642
 164	1	4	-0.031436	0.243409	1.48109	-7.71097
 165	1	5	0.081364	-3.34003	3.14294	-7.64438
 166	1	5	-0.00525	-1.93672	2.72422	-8.62625
 167	1	5	-0.006128	-1.82974	4.03761	-7.43514
 168	1	5	0.002513	1.68648	-0.167818	-6.38782
 169	1	5	0.147318	0.583758	-1.5506	-6.27679
 170	1	5	0.144731	1.28274	-0.842788	-4.80979
 171	1	1	-0.211274	-4.58621	-1.24572	-4.27326
 172	1	2	0.221306	-4.00169	-1.18788	-2.87248
 173	1	2	-0.631195	-4.26641	-2.24497	-1.99209
 174	1	3	0.289556	-4.85422	-3.08595	-2.3376
 175	1	2	0.263167	-3.8244	-2.206	-0.658982
 176	1	2	-0.339066	-3.05157	-1.11693	-0.237527
 177	1	3	0.163087	-2.69652	-1.08682	0.787394
 178	1	2	0.033139	-2.74321	-0.0608188	-1.11325
 179	1	1	-0.070169	-1.88279	1.0948	-0.616452
 180	1	2	-0.051663	-3.23369	-0.0897719	-2.43521
 181	1	4	-0.031436	-3.04317	0.994512	-3.25592
 182	1	5	0.081364	-0.86686	1.01939	-1.0236
 183	1	5	-0.00525	-1.80345	1.10045	0.477899
 184	1	5	-0.006128	-2.29464	2.06544	-0.919345
 185	1	5	0.002513	-5.12355	-0.321004	-4.51887
 186	1	5	0.147318	-5.29532	-2.0734	-4.37917
 187	1	5	0.144731	-3.79179	-1.38587	-5.01513
 188	1	1	-0.211274	-2.20508	-5.30629	0.416442
 189	1	2	0.221306	-3.61845	-5.50732	-0.0985833
 190	1	2	-0.631195	-3.97892	-6.7674	-0.594196
 191	1	3	0.289556	-3.25418	-7.57191	-0.619966
 192	1	2	0.263167	-5.25608	-6.98051	-1.12587
 193	1	2	-0.339066	-6.20023	-5.94761	-1.0786
 194	1	3	0.163087	-7.19435	-6.11937	-1.47987
 195	1	2	0.033139	-5.87737	-4.69134	-0.541349
 196	1	1	-0.070169	-6.9613	-3.61788	-0.497778
 197	1	2	-0.051663	-4.55262	-4.45078	-0.110688
 198	1	4	-0.031436	-4.14062	-3.19033	0.251621
 199	1	5	0.081364	-6.70121	-2.78997	0.172925
 200	1	5	-0.00525	-7.90979	-4.0367	-0.138373
 201	1	5	-0.006128	-7.14259	-3.1982	-1.49498
 202	1	5	0.002513	-1.5899	-4.76949	-0.316027
 203	1	5	0.147318	-1.72143	-6.2654	0.629438
 204	1	5	0.144731	-2.2098	-4.72957	1.34835
 205	1	1	-0.211274	-7.3899	-9.17925	0.26006
 206	1	2	0.221306	-6.24735	-9.97515	-0.349009
 207	1	2	-0.631195	-6.11695	-11.32	0.0198294
 208	1	3	0.289556	-6.82431	-11.7677	0.70763
 209	1	2	0.263167	-5.11543	-12.1245	-0.533203
 210	1	2	-0.339066	-4.1797	-11.5465	-1.40497
 211	1	3	0.163087	-3.38599	-12.1571	-1.82488
 212	1	2	0.033139	-4.27966	-10.1938	-1.77873
 213	1	1	-0.070169	-3.24219	-9.63214	-2.74664
 214	1	2	-0.051663	-5.34091	-9.40876	-1.27081
 215	1	4	-0.031436	-5.5755	-8.14881	-1.76459
 216	1	5	0.081364	-3.22483	-8.53652	-2.76246
 217	1	5	-0.00525	-3.43577	-9.97329	-3.77031
 218	1	5	-0.006128	-2.23328	-9.96402	-2.46868
 219	1	5	0.002513	-7.77239	-8.40674	-0.416894
 220	1	5	0.147318	-7.05682	-8.68773	1.18134
 221	1	5	0.144731	-8.23371	-9.83123	0.508703
 222	1	1	-0.211274	-2.61047	-14.3281	0.963858
 223	1	2	0.221306	-3.20696	-14.9372	-0.289913
 224	1	2	-0.631195	-2.56577	-16.0377	-0.872326
 225	1	3	0.289556	-1.63301	-16.399	-0.453675
 226	1	2	0.263167	-3.13774	-16.7009	-1.96746
 227	1	2	-0.339066	-4.33027	-16.2068	-2.51273
 228	1	3	0.163087	-4.77361	-16.7199	-3.36083
 229	1	2	0.033139	-4.97389	-15.0827	-1.9637
 230	1	1	-0.070169	-6.29634	-14.6144	-2.56032
 231	1	2	-0.051663	-4.41309	-14.4518	-0.83228
 232	1	4	-0.031436	-5.09111	-13.4501	-0.178383
 233	1	5	0.081364	-7.11902	-14.7684	-1.85183
 234	1	5	-0.00525	-6.54525	-15.1598	-3.47971
 235	1	5	-0.006128	-6.26397	-13.5474	-2.81327
 236	1	5	0.002513	-1.74027	-14.8923	1.32182
 237	1	5	0.147318	-3.35245	-14.3169	1.7703
 238	1	5	0.144731	-2.29526	-13.2957	0.775467
 239	1	1	-0.211274	-2.94034	-19.3271	0.0502955
 240	1	2	0.221306	-1.65007	-19.2896	-0.75529
 241	1	2	-0.631195	-0.557668	-20.0439	-0.288984
 242	1	3	0.289556	-0.64456	-20.6245	0.62192
 243	1	2	0.263167	0.638275	-20.1126	-1.01642
 244	1	2	-0.339066	0.740181	-19.3783	-2.20934
 245	1	3	0.163087	1.65152	-19.4176	-2.79676
 246	1	2	0.033139	-0.325994	-18.6	-2.68376
 247	1	1	-0.070169	-0.136998	-17.8158	-3.97657
 248	1	2	-0.051663	-1.53475	-18.5553	-1.9604
 249	1	4	-0.031436	-2.59706	-17.8524	-2.48773
 250	1	5	0.081364	-1.03939	-17.8333	-4.59916
 251	1	5	-0.00525	0.680699	-18.2292	-4.58057
 252	1	5	-0.006128	0.106962	-16.7682	-3.76036
 253	1	5	0.002513	-3.68995	-19.9618	-0.437394
 254	1	5	0.147318	-3.37444	-18.3301	0.173007
 255	1	5	0.144731	-2.77015	-19.7223	1.05692
 256	1	1	-0.211274	3.67701	-18.8139	-0.343604
 257	1	2	0.221306	3.82794	-20.0381	-1.23157
 258	1	2	-0.631195	4.93831	-20.1234	-2.08182
 259	1	3	0.289556	5.65228	-19.3086	-2.11672
 260	1	2	0.263167	5.11866	-21.2239	-2.92909
 261	1	2	-0.339066	4.1914	-22.277	-2.8806
 262	1	3	0.163087	4.32747	-23.1351	-3.53128
 263	1	2	0.033139	3.05476	-22.2018	-2.05141
 264	1	1	-0.070169	2.04321	-23.3426	-2.06317
 265	1	2	-0.051663	2.85466	-21.0591	-1.24544
 266	1	4	-0.031436	1.67571	-20.896	-0.550703
 267	1	5	0.081364	2.1655	-23.9776	-2.94863
 268	1	5	-0.00525	1.01073	-22.9716	-2.07196
 269	1	5	-0.006128	2.16419	-23.9784	-1.17696
 270	1	5	0.002513	4.55695	-18.1602	-0.388341
 271	1	5	0.147318	3.53925	-19.1158	0.700935
 272	1	5	0.144731	2.80466	-18.2208	-0.641256
 273	1	1	-0.211274	8.35768	-22.3197	-2.33414
 274	1	2	0.221306	7.91958	-22.8333	-3.69362
 275	1	2	-0.631195	8.67665	-23.8431	-4.30137
 276	1	3	0.289556	9.54049	-24.2515	-3.78953
 277	1	2	0.263167	8.36846	-24.3078	-5.58354
 278	1	2	-0.339066	7.26018	-23.758	-6.25225
 279	1	3	0.163087	7.01624	-24.0937	-7.25558
 280	1	2	0.033139	6.48552	-22.7391	-5.66204
 281	1	1	-0.070169	5.35596	-22.1169	-6.47728
 282	1	2	-0.051663	6.81278	-22.2766	-4.36668
 283	1	4	-0.031436	6.1678	-21.1913	-3.81749
 284	1	5	0.081364	5.76055	-21.4198	-7.22122
 285	1	5	-0.00525	4.64107	-21.5618	-5.8584
 286	1	5	-0.006128	4.78748	-22.8854	-7.01573
 287	1	5	0.002513	9.34569	-22.7029	-2.04927
 288	1	5	0.147318	7.63939	-22.6202	-1.56315
 289	1	5	0.144731	8.41802	-21.2257	-2.33553
 290	1	1	-0.211274	8.48186	-28.0162	-5.91921
 291	1	2	0.221306	8.58466	-27.2898	-7.24873
 292	1	2	-0.631195	8.33841	-28.0039	-8.43047
 293	1	3	0.289556	8.03453	-29.0433	-8.39723
 294	1	2	0.263167	8.50732	-27.3905	-9.67564
 295	1	2	-0.339066	8.96481	-26.0706	-9.73784
 296	1	3	0.163087	9.14012	-25.6178	-10.7084
 297	1	2	0.033139	9.22125	-25.3367	-8.56737
 298	1	1	-0.070169	9.80776	-23.9367	-8.7117
 299	1	2	-0.051663	8.97871	-25.9361	-7.30991
 300	1	4	-0.031436	9.20259	-25.254	-6.13745
 301	1	5	0.081364	10.0994	-23.4956	-7.75182
 302	1	5	-0.00525	9.09203	-23.2574	-9.18993
 303	1	5	-0.006128	10.7094	-23.9643	-9.33731
 304	1	5	0.002513	9.48073	-28.1819	-5.49479
 305	1	5	0.147318	8.00155	-28.9936	-6.02972
 306	1	5	0.144731	7.89758	-27.4353	-5.19675
 307	1	6	0	-7.06247	10.1204	15.6189
 308	1	3	0	8.32158	-27.9484	-10.589

Velocities

   1	-0.00103035	-0.000759114	0.00140402
   2	0.000220125	0.000493596	-0.000691172
   3	0.000429172	9.28226e-05	-0.000524966
   4	0.000120714	0.000511378	-0.000672101
   5	0.000650364	0.000198894	-0.000583655
   6	0.00104957	2.10388e-05	-0.000747898
   7	0.00077043	-0.000151734	-0.00104082
   8	0.000485342	9.14237e-05	-0.00103264
   9	-0.000623416	-0.000429666	-0.00129507
  10	0.000686343	0.000402436	-0.000199413
  11	0.00037803	0.0010225	0.000134214
  12	-0.00152359	-0.000464754	-0.00234219
  13	-0.000892658	-0.00113908	-5.40321e-05
  14	-0.0010892	-9.6967e-06	-0.00250466
  15	-0.00368622	-0.000684813	0.000895705
  16	-0.00185571	-0.00206162	0.00318442
  17	0.000326145	-0.00142188	0.00239446
  18	0.000226585	0.000241829	0.000612553
  19	-0.000279748	9.96001e-05	0.00060678
  20	-0.00134338	1.51757e-05	0.000285726
  21	-0.00245369	-0.000291768	0.000207243
  22	-0.00125851	-0.000169192	0.000400453
  23	-0.000726141	0.000112488	0.000607609
  24	-0.00121188	-0.000108443	0.00052459
  25	0.000228346	0.000238048	0.000605971
  26	0.000526439	0.000106815	0.000647175
  27	0.000393251	0.000570153	0.000216434
  28	0.000636058	0.000337293	8.09028e-05
  29	-0.000597151	0.000790588	0.000297362
  30	0.00174921	0.000724116	0.000796933
  31	0.000409102	-0.00126605	0.000605808
  32	3.78152e-05	-1.63733e-05	0.000621804
  33	0.000557899	-0.000182431	0.000977946
  34	0.0004259	0.000736568	0.000685255
  35	-0.000288412	0.000456325	0.000383473
  36	-0.00023951	0.000157112	0.000665194
  37	-3.08438e-05	6.97216e-05	0.00039211
  38	-2.15712e-05	0.000295332	0.000691904
  39	-1.87471e-05	-0.000104475	0.000512915
  40	-0.000206171	-0.000197995	-6.58201e-05
  41	-9.45847e-05	-0.00018293	-0.000102519
  42	-0.000535217	-0.000303364	0.000246656
  43	-0.000619624	-0.000649749	-0.000158497
  44	-0.000480669	-7.22249e-05	0.000233112
  45	-0.000971283	-7.11741e-05	0.000524593
  46	-0.000751033	-0.000871927	0.000206705
  47	-0.000844739	-0.000868117	-0.000425607
  48	-0.000608632	-0.000468584	-0.00031245
  49	-0.000218349	0.000617978	0.000358705
  50	-6.86553e-05	0.000521516	0.00038181
  51	-0.000429167	0.000550678	0.000184054
  52	0.000468761	-0.000674642	0.00146932
  53	6.25477e-05	-0.000398768	0.000402473
  54	-0.00028757	-0.000259755	-0.000265538
  55	-0.000415506	-0.000289655	-0.000453635
  56	-0.000440751	-3.21648e-05	-0.000619383
  57	-0.000169829	-0.000436863	-0.000212308
  58	-0.000167971	-0.000227994	-0.000163974
  59	0.000130863	-0.000360202	0.000382079
  60	0.000795033	-0.000600381	0.00119155
  61	0.000177337	-0.000402415	0.000383458
  62	0.000111098	-0.000247333	0.000175104
  63	0.000164306	-0.000434167	0.000281951
  64	0.00251041	-0.000731364	0.00122737
  65	0.000216921	-0.000922557	0.00283644
  66	0.00127146	-0.000185725	0.00154119
  67	-6.85961e-06	-0.000953886	0.00166127
  68	0.000481256	-0.000994673	0.00227269
  69	0.00117707	0.002204	-0.000668906
  70	0.000460336	0.000863462	-0.000954644
  71	0.000288788	0.000781255	-0.000664025
  72	0.000377783	0.000818293	-0.000549863
  73	7.23204e-05	0.000112847	-0.000852246
  74	0.000348211	0.000759076	-0.000752878
  75	0.000724477	0.000681972	-0.00099456
  76	0.000562284	0.00072428	-0.00118696
  77	0.00129723	0.00160552	-0.00108284
  78	-6.63524e-05	0.000697771	-0.000722186
  79	-0.000515378	0.000310642	-0.000962061
  80	0.00132365	0.00285034	-0.00015686
  81	0.000776412	0.000987981	-0.00118976
  82	0.00270094	0.00165591	-0.00192331
  83	0.00202706	0.0029876	-0.00175349
  84	0.00102828	0.00184842	-0.000887063
  85	0.00122128	0.00302839	0.000592947
  86	-0.000946462	0.000432228	-0.00122488
  87	-0.00031143	0.00020119	-0.000698592
  88	0.000131163	0.000313951	-0.000600884
  89	4.75588e-05	0.000647811	-0.000730585
  90	0.000382017	0.000222983	-0.000241591
  91	0.000590635	-0.000259869	-7.46869e-05
  92	0.000852963	-0.000296012	0.00014492
  93	0.000145093	-0.000249519	-0.000157475
  94	0.000222206	-0.000692349	-0.000146265
  95	-0.000182389	-0.000301728	-0.000404655
  96	-0.000630884	-0.000288161	-0.000513336
  97	2.96945e-05	-4.39827e-05	-0.000432608
  98	0.000513574	-0.000842941	0.000514532
  99	6.72463e-05	-0.00133641	-0.000595243
 100	-0.000799417	0.000410785	-0.00114326
 101	-0.00181571	0.000304971	-0.00106665
 102	-0.00089717	0.000970616	-0.00194099
 103	0.000233897	-0.00141617	-0.000130886
 104	0.000469522	7.19897e-05	-0.000192729
 105	0.000442278	0.000253495	-0.000356588
 106	0.000412571	0.000203696	-0.000446327
 107	0.000193025	0.000133891	-5.15357e-05
 108	0.000166464	-0.000111328	-8.61296e-05
 109	-9.93678e-05	-0.000499913	0.000110294
 110	0.000179792	-0.000162244	6.2578e-05
 111	-0.000338429	-0.00151734	0.000342575
 112	0.00048809	0.000117405	-0.000152207
 113	0.000729779	0.000226648	-5.09467e-05
 114	0.000403129	-0.00168075	0.00101258
 115	-0.000711022	-0.00267707	0.000720711
 116	-0.0013453	-0.00150001	-0.000422224
 117	0.00129134	-0.00147742	0.000322065
 118	0.000204357	-0.00290492	0.000139614
 119	-0.00108031	-0.00142108	-0.000704938
 120	-0.0017842	0.000830064	0.00186422
 121	-0.000632268	-0.000176326	0.000881203
 122	0.000130917	-0.000483653	0.000393863
 123	0.000312186	-0.000512034	0.000312419
 124	0.000483415	-0.000845539	-4.71701e-05
 125	5.26164e-05	-0.000716135	0.000255076
 126	9.69187e-05	-0.00085793	4.04149e-05
 127	-0.000327608	-0.000624176	0.000569668
 128	-0.000503493	-0.000565554	0.000711889
 129	-0.000352579	-0.000523796	0.000673098
 130	-2.93567e-05	-0.000660716	0.000298834
 131	-0.000272213	-0.000247763	0.000698011
 132	-0.000457895	-0.000920097	0.000631249
 133	-0.000888967	-0.000493952	0.00091606
 134	-0.0031792	0.000764719	0.00249346
 135	-0.00206173	0.000371401	0.00185319
 136	-0.00123698	0.0022961	0.0022051
 137	0.00048379	0.000555409	-0.00137476
 138	0.000468135	0.000124236	-0.000864223
 139	0.000151885	0.000247943	-0.000477412
 140	0.000118725	0.000791195	-0.0004699
 141	0.000127127	2.12561e-05	-9.37974e-06
 142	0.000133495	-0.000634332	-0.000130378
 143	-5.11456e-05	-0.00086618	0.000184587
 144	0.000352224	-0.000842819	-0.000507445
 145	0.000179359	-0.00117869	-0.000663099
 146	0.00061939	-0.000678595	-0.000696817
 147	0.00129563	-0.00107205	-0.000815303
 148	-0.000463968	-0.00116431	-0.000900359
 149	0.000421709	-0.00174004	-0.000828457
 150	0.000391795	-0.000792113	-0.00043018
 151	-0.00110589	0.000561214	-0.00260107
 152	0.0018709	0.00195901	-0.00200195
 153	0.000798713	-0.000296249	8.80799e-06
 154	0.000353419	0.00124025	0.00132846
 155	0.000341988	0.00125978	0.00107712
 156	0.000214201	0.00138024	0.00102761
 157	0.000242231	0.00156165	0.00120032
 158	-7.05214e-05	0.000948559	0.000597565
 159	-8.32419e-05	0.000784871	0.000232678
 160	-0.000381036	0.000447111	-6.41671e-05
 161	-4.14764e-05	0.000619892	0.000408644
 162	-0.000187513	-4.42638e-05	-0.000147651
 163	0.000208139	0.000707815	0.000714862
 164	-2.3368e-05	0.000164048	0.000468555
 165	-0.000274748	-0.000908512	-0.000711872
 166	0.00051051	-9.06992e-05	9.25584e-05
 167	-0.00103413	0.000340332	-0.000246539
 168	0.00086371	0.00166229	0.0023373
 169	0.000551734	0.00173384	0.000290506
 170	-0.000446063	0.000282317	0.00144705
 171	0.000773664	-9.39969e-05	-0.000545436
 172	0.000706025	-0.000247391	-0.000527735
 173	0.00104441	-0.000737133	-0.000698232
 174	0.00157456	-0.000955971	-0.000878526
 175	0.0005824	-0.000362731	-0.000569945
 176	-0.000200464	-0.000192605	-0.000184748
 177	-0.000641798	8.89282e-05	-7.48125e-05
 178	-0.000366891	0.000202497	-8.85179e-05
 179	-0.00106365	0.00045131	0.000308566
 180	-0.000141245	3.67311e-05	-4.39849e-05
 181	-0.000572545	0.000475298	0.000163377
 182	-0.0013944	0.0018703	-0.000784171
 183	3.39392e-05	-0.000513676	0.000220234
 184	-0.00234068	0.000376091	0.00161433
 185	0.000568315	-9.38086e-05	-0.000210012
 186	0.000958983	-0.000175554	-0.00082711
 187	0.000816086	0.000422623	-0.000653289
 188	0.000830413	0.000619033	-0.000393446
 189	0.000601817	-0.000457971	0.000548996
 190	0.00061778	-0.000770975	0.00115138
 191	0.000690978	-0.000719702	0.00104637
 192	0.000468434	-0.00081613	0.001223
 193	0.000553842	-0.00100426	0.00101324
 194	0.000591404	-0.00107148	0.000894279
 195	0.000500227	-0.000702434	0.000424922
 196	0.000560994	-0.000686661	-0.000323195
 197	0.000543164	-0.000454286	0.000124131
 198	0.000451774	-0.0003375	-0.000402018
 199	0.000220639	-0.000603404	-0.000292335
 200	0.000316384	-0.000576971	-0.000816043
 201	0.0011596	-0.000838806	-0.000500501
 202	-0.000159772	0.00102251	-0.000931682
 203	0.00181874	0.00108363	-0.000514198
 204	0.00107814	0.000911834	-0.0005308
 205	-0.000717515	-0.000280012	-0.000936003
 206	-0.000561026	-0.000771001	-0.000257521
 207	-0.000665446	-0.00023318	7.03191e-05
 208	-0.000485629	-0.000305151	0.000296101
 209	-0.000434394	-0.000715449	0.000448979
 210	-0.00106621	-0.000815679	-0.000631887
 211	-0.00135169	-0.00136484	-0.000780692
 212	-0.0010916	-0.00142006	-0.00105284
 213	-0.00210015	-0.0016327	-0.0024009
 214	-0.000475638	-0.000622494	-0.00031819
 215	0.000376292	-0.000540547	0.00045422
 216	-0.00306514	-0.00169317	-0.00385092
 217	-0.00248757	-0.00325177	-0.00191253
 218	-0.00168388	-0.000506226	-0.00264465
 219	-0.00198711	-0.00229099	-0.00252527
 220	-0.000314679	0.00215926	-0.00241758
 221	7.14477e-05	-0.000505845	0.0013283
 222	0.00156741	0.00222015	0.000657948
 223	0.000541356	0.000575444	0.0019267
 224	0.000632031	7.30233e-05	0.00195282
 225	0.000672529	0.000328947	0.00203693
 226	0.000722713	0.000527698	0.00191396
 227	0.000803925	0.000324508	0.00165828
 228	0.00121581	0.000646909	0.0014072
 229	0.000527022	0.000117206	0.00195204
 230	0.00100152	0.000156888	0.000985103
 231	0.00045921	-0.000238662	0.001943
 232	0.000199688	8.2513e-05	0.00168274
 233	0.000531228	0.00117818	0.000609127
 234	0.00127788	-0.000440482	0.00132104
 235	0.00165513	-8.34577e-05	1.28916e-05
 236	0.00231425	0.00332316	0.000459586
 237	0.00245062	0.00304641	0.00144733
 238	0.000836532	0.00221771	-0.00102148
 239	0.000207492	-0.0016137	-0.00111035
 240	0.00021451	-0.000707149	-0.000818157
 241	0.00053021	-0.00106294	-0.00148425
 242	0.000550312	-0.00178287	-0.00189262
 243	0.000227766	-0.000158309	-0.00150245
 244	0.000187031	-0.000156632	-0.00142621
 245	-0.000170517	-5.19882e-05	-0.0018129
 246	-0.000157366	0.000212335	-0.000917476
 247	-0.0010497	9.49854e-05	-0.00102598
 248	0.000494852	0.000197551	-0.000171246
 249	0.000539313	0.000837987	0.000791524
 250	-0.00111004	-0.0014954	-0.00103569
 251	-0.0004967	0.001179	-0.000952556
 252	-0.00275416	0.000568578	-0.00138218
 253	0.000285169	-0.00113649	-0.0019347
 254	0.000153566	-0.00178003	-0.000225655
 255	-9.18013e-05	-0.00271104	-0.0014619
 256	0.000359241	0.000393854	-0.000920556
 257	0.000825426	0.000429727	-0.000986911
 258	0.000801132	0.000306094	-0.000430001
 259	0.00115436	0.000118915	2.05066e-05
 260	0.000995736	0.000528913	-0.000771936
 261	0.000439225	0.000477664	-0.000959768
 262	0.000776029	0.000644254	-0.00119303
 263	0.00078872	0.0005372	-0.00138061
 264	0.000388919	0.000574335	-0.00121301
 265	0.000451622	0.000468508	-0.00122846
 266	0.000698615	0.000161491	-0.00147502
 267	0.000961061	-6.07024e-05	-0.000684136
 268	0.000523867	0.000817546	-0.00217701
 269	-0.000271268	0.00133735	-0.000633769
 270	0.000933119	-0.000188611	0.000107298
 271	-0.00106595	0.000366199	-0.001128
 272	0.0010703	0.00094382	-0.0020735
 273	-0.000982014	-0.000157196	0.00151339
 274	0.000647198	0.000205517	0.000849838
 275	0.000859956	0.000499859	0.00105544
 276	0.000891312	0.000675718	0.00142219
 277	0.00120054	0.000107057	0.00107219
 278	0.000857084	-0.000475185	0.000936771
 279	0.000920752	-0.00123505	0.00121524
 280	0.000906635	-0.00057877	0.000487971
 281	0.000274736	-0.001626	0.000422959
 282	0.000730902	0.000268747	0.000241049
 283	0.000710786	0.000446247	-0.000520517
 284	-0.000465899	-0.000665563	0.00092206
 285	-0.000741447	-0.00314655	0.000490105
 286	0.00152212	-0.00223748	-0.000238056
 287	-0.00182501	-0.00116048	0.00300075
 288	-0.00242051	0.000288992	0.000409197
 289	-0.000114399	-0.000259033	0.00188964
 290	-0.00337517	0.000529314	0.000503758
 291	-0.000391493	0.000532609	0.000544456
 292	0.0002232	0.00065163	0.000705868
 293	3.01327e-07	0.000642189	0.000138318
 294	0.000802193	0.000411797	0.000447604
 295	2.23958e-05	0.000722849	0.00082392
 296	-0.000558762	0.000850437	0.000682221
 297	-0.000236253	0.000669453	0.000692016
 298	-0.00226989	0.00157665	1.02303e-05
 299	0.00055815	0.000399283	0.000858665
 300	0.000893081	0.000139337	0.00104242
 301	-0.00197548	0.00217122	-0.000474063
 302	-0.00386655	0.00035124	0.000532251
 303	-0.00311101	0.00291347	-0.00115681
 304	-0.00455132	-0.000360987	0.00266671
 305	-0.00398742	0.000950139	-0.000631361
 306	-0.00465763	0.000902629	-0.000879103
 307	-5.61652e-05	0.00155466	0.000856865
 308	0.0010805	0.000454742	0.000421134

Bonds

   1	5	1	2
   2	6	1	15
   3	6	1	16
   4	6	1	17
   5	2	2	3
   6	2	2	10
   7	4	3	4
   8	2	3	5
   9	2	5	6
  10	4	6	7
  11	2	6	8
  12	5	8	9
  13	2	8	10
  14	6	9	12
  15	6	9	13
  16	6	9	14
  17	3	10	11
  18	5	18	19
  19	6	18	32
  20	6	18	33
  21	6	18	34
  22	2	19	20
  23	2	19	27
  24	4	20	21
  25	2	20	22
  26	2	22	23
  27	4	23	24
  28	2	23	25
  29	5	25	26
  30	2	25	27
  31	6	26	29
  32	6	26	30
  33	6	26	31
  34	3	27	28
  35	3	5	28
  36	5	35	36
  37	6	35	49
  38	6	35	50
  39	6	35	51
  40	2	36	37
  41	2	36	44
  42	4	37	38
  43	2	37	39
  44	2	39	40
  45	4	40	41
  46	2	40	42
  47	5	42	43
  48	2	42	44
  49	6	43	46
  50	6	43	47
  51	6	43	48
  52	3	44	45
  53	3	22	45
  54	5	52	53
  55	6	52	66
  56	6	52	67
  57	6	52	68
  58	2	53	54
  59	2	53	61
  60	4	54	55
  61	2	54	56
  62	2	56	57
  63	4	57	58
  64	2	57	59
  65	5	59	60
  66	2	59	61
  67	6	60	63
  68	6	60	64
  69	6	60	65
  70	3	61	62
  71	3	39	62
  72	5	69	70
  73	6	69	83
  74	6	69	84
  75	6	69	85
  76	2	70	71
  77	2	70	78
  78	4	71	72
  79	2	71	73
  80	2	73	74
  81	4	74	75
  82	2	74	76
  83	5	76	77
  84	2	76	78
  85	6	77	80
  86	6	77	81
  87	6	77	82
  88	3	78	79
  89	3	56	79
  90	5	86	87
  91	6	86	100
  92	6	86	101
  93	6	86	102
  94	2	87	88
  95	2	87	95
  96	4	88	89
  97	2	88	90
  98	2	90	91
  99	4	91	92
 100	2	91	93
 101	5	93	94
 102	2	93	95
 103	6	94	97
 104	6	94	98
 105	6	94	99
 106	3	95	96
 107	3	73	96
 108	5	103	104
 109	6	103	117
 110	6	103	118
 111	6	103	119
 112	2	104	105
 113	2	104	112
 114	4	105	106
 115	2	105	107
 116	2	107	108
 117	4	108	109
 118	2	108	110
 119	5	110	111
 120	2	110	112
 121	6	111	114
 122	6	111	115
 123	6	111	116
 124	3	112	113
 125	3	90	113
 126	5	120	121
 127	6	120	134
 128	6	120	135
 129	6	120	136
 130	2	121	122
 131	2	121	129
 132	4	122	123
 133	2	122	124
 134	2	124	125
 135	4	125	126
 136	2	125	127
 137	5	127	128
 138	2	127	129
 139	6	128	131
 140	6	128	132
 141	6	128	133
 142	3	129	130
 143	3	107	130
 144	5	137	138
 145	6	137	151
 146	6	137	152
 147	6	137	153
 148	2	138	139
 149	2	138	146
 150	4	139	140
 151	2	139	141
 152	2	141	142
 153	4	142	143
 154	2	142	144
 155	5	144	145
 156	2	144	146
 157	6	145	148
 158	6	145	149
 159	6	145	150
 160	3	146	147
 161	3	124	147
 162	5	154	155
 163	6	154	168
 164	6	154	169
 165	6	154	170
 166	2	155	156
 167	2	155	163
 168	4	156	157
 169	2	156	158
 170	2	158	159
 171	4	159	160
 172	2	159	161
 173	5	161	162
 174	2	161	163
 175	6	162	165
 176	6	162	166
 177	6	162	167
 178	3	163	164
 179	3	141	164
 180	5	171	172
 181	6	171	185
 182	6	171	186
 183	6	171	187