pySIMM System Object

410 atoms
433 bonds
744 angles
958 dihedrals
96 impropers

6 atom types
6 bond types
8 angle types
3 dihedral types
2 improper types

-104.694648 104.694648 xlo xhi
-104.694648 104.694648 ylo yhi
-104.694648 104.694648 zlo zhi

Masses

   1	12.01	# c3
   2	12.01	# ca
   3	1.008	# ha
   4	16.0	# oh
   5	1.008	# hc
   6	1.008	# ho

Pair Coeffs

   1	0.1094	3.3996695084235347	# c3
   2	0.086	3.3996695084235347	# ca
   3	0.015	2.59964245953351	# ha
   4	0.2104	3.0664733878390478	# oh
   5	0.0157	2.649532787749369	# hc
   6	0.0047	0.5379246460131368	# ho

Bond Coeffs

   1	371.4	0.973	# ho,oh
   2	461.1	1.3984	# ca,ca
   3	384.0	1.3637	# ca,oh
   4	345.8	1.086	# ca,ha
   5	321.0	1.5156	# c3,ca
   6	330.6	1.0969	# c3,hc

Angle Coeffs

   1	46.8	110.47	# ca,c3,hc
   2	49.0	108.58	# ca,oh,ho
   3	69.52	119.9	# ca,ca,oh
   4	66.62	120.02	# ca,ca,ca
   5	39.4	107.58	# hc,c3,hc
   6	48.18	119.88	# ca,ca,ha
   7	63.53	120.77	# c3,ca,ca
   8	63.5	119.89	# ca,oh,ca

Dihedral Coeffs

   1	1	0.9	2	180	# X,ca,oh,X
   2	1	0.0	2	0	# X,c3,ca,X
   3	1	3.625	2	180	# X,ca,ca,X

Improper Coeffs

   1	1.1	-1	2	# ca,ca,ca,c3
   2	1.1	-1	2	# ca,X,X,ha

Atoms

   1	1	1	-0.211274	12.8073	8.76318	-17.7777
   2	1	2	0.221306	12.8258	7.57648	-16.8091
   3	1	2	-0.631195	13.2118	7.96824	-15.5382
   4	1	3	0.289556	13.6331	8.94896	-15.4107
   5	1	2	0.263167	12.8529	7.28645	-14.3842
   6	1	2	-0.339066	11.8426	6.3131	-14.496
   7	1	3	0.163087	11.3192	5.96154	-13.6092
   8	1	2	0.033139	11.4087	5.88867	-15.7671
   9	1	1	-0.070169	10.0637	5.16139	-15.8611
  10	1	2	-0.051663	12.0539	6.40594	-16.9152
  11	1	4	-0.031436	12.1227	5.63851	-18.0257
  12	1	5	0.081364	9.93621	4.55279	-16.7636
  13	1	5	-0.00525	9.25976	5.91183	-15.868
  14	1	5	-0.006128	9.87375	4.52665	-14.9881
  15	1	5	0.002513	13.5966	9.46336	-17.4851
  16	1	5	0.147318	11.8669	9.31691	-17.6298
  17	1	5	0.144731	12.9548	8.58008	-18.8469
  18	1	1	-0.211274	15.7169	6.23179	-13.3964
  19	1	2	0.221306	15.7049	7.7199	-13.1094
  20	1	2	-0.631195	16.9459	8.37199	-13.0093
  21	1	3	0.289556	17.8523	7.81248	-13.2056
  22	1	2	0.263167	17.0306	9.74717	-12.7438
  23	1	2	-0.339066	15.8466	10.4327	-12.4646
  24	1	3	0.163087	15.9028	11.4911	-12.2329
  25	1	2	0.033139	14.5895	9.8	-12.5667
  26	1	1	-0.070169	13.3567	10.6341	-12.2663
  27	1	2	-0.051663	14.4961	8.44345	-12.9708
  28	1	4	-0.031436	13.2572	7.82816	-13.1784
  29	1	5	0.081364	12.5273	10.3707	-12.9295
  30	1	5	-0.00525	13.5632	11.703	-12.4045
  31	1	5	-0.006128	13.0284	10.4926	-11.2282
  32	1	5	0.002513	16.7201	5.7974	-13.2907
  33	1	5	0.147318	15.3757	6.05064	-14.4201
  34	1	5	0.144731	15.0513	5.69624	-12.7087
  35	1	1	-0.211274	20.6528	8.93876	-12.3899
  36	1	2	0.221306	20.1161	9.26581	-13.7724
  37	1	2	-0.631195	20.6416	8.60378	-14.8906
  38	1	3	0.289556	21.4056	7.84428	-14.7612
  39	1	2	0.263167	20.141	8.86918	-16.1746
  40	1	2	-0.339066	19.1913	9.87987	-16.3471
  41	1	3	0.163087	18.8342	10.109	-17.3459
  42	1	2	0.033139	18.6237	10.5239	-15.2379
  43	1	1	-0.070169	17.5237	11.5514	-15.4674
  44	1	2	-0.051663	19.0296	10.1473	-13.939
  45	1	4	-0.031436	18.2223	10.4354	-12.8626
  46	1	5	0.081364	16.5339	11.0846	-15.4052
  47	1	5	-0.00525	17.6156	12.0189	-16.4564
  48	1	5	-0.006128	17.5692	12.3573	-14.7238
  49	1	5	0.002513	21.6568	8.49786	-12.4331
  50	1	5	0.147318	19.9912	8.23992	-11.8678
  51	1	5	0.144731	20.7233	9.85077	-11.7842
  52	1	1	-0.211274	17.8933	6.76435	-17.1806
  53	1	2	0.221306	19.2252	6.03632	-17.0894
  54	1	2	-0.631195	19.219	4.6355	-16.9657
  55	1	3	0.289556	18.2759	4.10343	-16.9059
  56	1	2	0.263167	20.4205	3.90925	-16.9857
  57	1	2	-0.339066	21.6298	4.61019	-17.1061
  58	1	3	0.163087	22.56	4.05284	-17.1372
  59	1	2	0.033139	21.6606	6.01031	-17.2196
  60	1	1	-0.070169	22.9881	6.7351	-17.4129
  61	1	2	-0.051663	20.4539	6.73103	-17.1873
  62	1	4	-0.031436	20.4982	8.10456	-17.2522
  63	1	5	0.081364	23.2106	7.38858	-16.5608
  64	1	5	-0.00525	22.9593	7.36276	-18.3135
  65	1	5	-0.006128	23.8246	6.03572	-17.5293
  66	1	5	0.002513	17.0644	6.07846	-17.3969
  67	1	5	0.147318	17.917	7.50658	-17.9873
  68	1	5	0.144731	17.6678	7.28954	-16.2453
  69	1	1	-0.211274	20.3528	1.01593	-14.5237
  70	1	2	0.221306	19.41	0.779863	-15.6904
  71	1	2	-0.631195	18.5181	-0.305021	-15.625
  72	1	3	0.289556	18.4992	-0.938153	-14.7446
  73	1	2	0.263167	17.6716	-0.601494	-16.7015
  74	1	2	-0.339066	17.73	0.213731	-17.8404
  75	1	3	0.163087	17.1014	-0.033817	-18.6898
  76	1	2	0.033139	18.6124	1.30822	-17.9296
  77	1	1	-0.070169	18.6681	2.06759	-19.2518
  78	1	2	-0.051663	19.4636	1.60352	-16.8382
  79	1	4	-0.031436	20.4833	2.53241	-16.9342
  80	1	5	0.081364	17.6705	2.13961	-19.702
  81	1	5	-0.00525	19.3194	1.55188	-19.9677
  82	1	5	-0.006128	19.0401	3.09067	-19.1472
  83	1	5	0.002513	20.2855	0.222718	-13.7688
  84	1	5	0.147318	20.1211	1.96975	-14.0365
  85	1	5	0.144731	21.3921	1.05584	-14.8697
  86	1	1	-0.211274	17.3473	-4.55054	-16.7577
  87	1	2	0.221306	16.564	-3.85466	-15.6601
  88	1	2	-0.631195	15.9987	-4.65369	-14.6541
  89	1	3	0.289556	16.1343	-5.72934	-14.6735
  90	1	2	0.263167	15.2223	-4.07653	-13.6438
  91	1	2	-0.339066	15.0324	-2.68993	-13.643
  92	1	3	0.163087	14.4143	-2.24786	-12.8676
  93	1	2	0.033139	15.5853	-1.86812	-14.6403
  94	1	1	-0.070169	15.255	-0.379951	-14.6045
  95	1	2	-0.051663	16.376	-2.45093	-15.6586
  96	1	4	-0.031436	16.8453	-1.70711	-16.7256
  97	1	5	0.081364	15.1688	0.0450855	-15.6113
  98	1	5	-0.00525	16.0265	0.179403	-14.0614
  99	1	5	-0.006128	14.2978	-0.197755	-14.099
 100	1	5	0.002513	17.2708	-5.64355	-16.6857
 101	1	5	0.147318	18.4078	-4.28262	-16.6998
 102	1	5	0.144731	16.9716	-4.25947	-17.7448
 103	1	1	-0.211274	17.0364	-6.08521	-11.544
 104	1	2	0.221306	15.7281	-6.7972	-11.8377
 105	1	2	-0.631195	15.5922	-8.0983	-11.3332
 106	1	3	0.289556	16.3941	-8.55039	-10.7606
 107	1	2	0.263167	14.3599	-8.75781	-11.3953
 108	1	2	-0.339066	13.3131	-8.19453	-12.1342
 109	1	3	0.163087	12.3646	-8.71993	-12.1945
 110	1	2	0.033139	13.4378	-6.90529	-12.6781
 111	1	1	-0.070169	12.2417	-6.28176	-13.3857
 112	1	2	-0.051663	14.6272	-6.17251	-12.4691
 113	1	4	-0.031436	14.5999	-4.81034	-12.6666
 114	1	5	0.081364	12.5034	-6.00814	-14.4156
 115	1	5	-0.00525	11.9022	-5.37554	-12.8696
 116	1	5	-0.006128	11.3909	-6.97341	-13.4345
 117	1	5	0.002513	17.0297	-5.02709	-11.825
 118	1	5	0.147318	17.857	-6.5689	-12.0848
 119	1	5	0.144731	17.2607	-6.13656	-10.4731
 120	1	1	-0.211274	13.1133	-7.33005	-9.05564
 121	1	2	0.221306	12.7162	-8.78266	-8.84706
 122	1	2	-0.631195	11.7221	-8.94726	-7.88093
 123	1	3	0.289556	11.3672	-8.07144	-7.35293
 124	1	2	0.263167	11.1075	-10.1815	-7.64878
 125	1	2	-0.339066	11.6089	-11.3049	-8.32716
 126	1	3	0.163087	11.1629	-12.2775	-8.14527
 127	1	2	0.033139	12.6521	-11.1808	-9.27305
 128	1	1	-0.070169	13.1606	-12.4182	-10.0103
 129	1	2	-0.051663	13.1852	-9.90747	-9.58267
 130	1	4	-0.031436	14.1443	-9.84029	-10.5843
 131	1	5	0.081364	13.0049	-12.3179	-11.0921
 132	1	5	-0.00525	12.6524	-13.3344	-9.6862
 133	1	5	-0.006128	14.2367	-12.5612	-9.84372
 134	1	5	0.002513	14.1374	-7.19181	-9.40005
 135	1	5	0.147318	13.037	-6.76549	-8.12134
 136	1	5	0.144731	12.4268	-6.86595	-9.77473
 137	1	1	-0.211274	10.7508	-9.22234	-4.18454
 138	1	2	0.221306	9.77934	-8.53317	-5.13033
 139	1	2	-0.631195	9.31335	-7.25881	-4.77007
 140	1	3	0.289556	9.6672	-6.801	-3.85288
 141	1	2	0.263167	8.42122	-6.54422	-5.58099
 142	1	2	-0.339066	7.98635	-7.13666	-6.77476
 143	1	3	0.163087	7.31349	-6.58616	-7.42477
 144	1	2	0.033139	8.44148	-8.41561	-7.16301
 145	1	1	-0.070169	7.91184	-8.99538	-8.46947
 146	1	2	-0.051663	9.37056	-9.11476	-6.35133
 147	1	4	-0.031436	10.0033	-10.2588	-6.81594
 148	1	5	0.081364	6.89629	-9.38306	-8.32286
 149	1	5	-0.00525	8.52524	-9.81681	-8.8572
 150	1	5	-0.006128	7.86405	-8.22724	-9.25127
 151	1	5	0.002513	11.4918	-8.51701	-3.78824
 152	1	5	0.147318	11.3026	-10.0377	-4.66509
 153	1	5	0.144731	10.2044	-9.64912	-3.33602
 154	1	1	-0.211274	8.39532	-2.58748	-6.32458
 155	1	2	0.221306	7.10028	-3.14387	-5.75789
 156	1	2	-0.631195	6.02425	-2.25836	-5.64349
 157	1	3	0.289556	6.12717	-1.22899	-5.97154
 158	1	2	0.263167	4.80867	-2.67228	-5.10329
 159	1	2	-0.339066	4.64314	-4.01225	-4.74317
 160	1	3	0.163087	3.67719	-4.33853	-4.36967
 161	1	2	0.033139	5.70765	-4.93091	-4.8566
 162	1	1	-0.070169	5.45004	-6.36002	-4.40165
 163	1	2	-0.051663	6.969	-4.49058	-5.3407
 164	1	4	-0.031436	8.12864	-5.24177	-5.23173
 165	1	5	0.081364	5.76648	-7.08635	-5.15778
 166	1	5	-0.00525	4.37989	-6.53562	-4.22852
 167	1	5	-0.006128	5.97699	-6.57664	-3.46556
 168	1	5	0.002513	8.31098	-1.51898	-6.56692
 169	1	5	0.147318	8.66472	-3.11145	-7.24831
 170	1	5	0.144731	9.21579	-2.69883	-5.60866
 171	1	1	-0.211274	4.52476	-1.39521	-2.15653
 172	1	2	0.221306	3.14628	-1.16865	-2.7559
 173	1	2	-0.631195	2.16084	-0.547012	-1.96097
 174	1	3	0.289556	2.40002	-0.225676	-0.953755
 175	1	2	0.263167	0.893422	-0.25464	-2.4933
 176	1	2	-0.339066	0.604988	-0.645806	-3.80008
 177	1	3	0.163087	-0.344309	-0.373535	-4.24299
 178	1	2	0.033139	1.53218	-1.34846	-4.56991
 179	1	1	-0.070169	1.10194	-1.89054	-5.92312
 180	1	2	-0.051663	2.84123	-1.5252	-4.09333
 181	1	4	-0.031436	3.7974	-1.7576	-5.05562
 182	1	5	0.081364	1.49779	-2.90409	-6.06859
 183	1	5	-0.00525	1.45493	-1.25885	-6.7451
 184	1	5	-0.006128	0.00863607	-1.96512	-5.98795
 185	1	5	0.002513	4.52956	-1.24841	-1.06842
 186	1	5	0.147318	5.2614	-0.714509	-2.59606
 187	1	5	0.144731	4.85984	-2.42247	-2.34202
 188	1	1	-0.211274	-0.103227	2.40654	0.335463
 189	1	2	0.221306	-1.02206	1.20086	0.198301
 190	1	2	-0.631195	-2.02082	1.03694	1.1687
 191	1	3	0.289556	-2.14312	1.77907	1.95031
 192	1	2	0.263167	-2.89715	-0.052367	1.10972
 193	1	2	-0.339066	-2.78974	-0.953133	0.0500167
 194	1	3	0.163087	-3.5009	-1.77126	-0.00934698
 195	1	2	0.033139	-1.84282	-0.778445	-0.970687
 196	1	1	-0.070169	-1.9873	-1.68943	-2.18295
 197	1	2	-0.051663	-0.907267	0.285447	-0.874349
 198	1	4	-0.031436	0.0128308	0.580678	-1.85692
 199	1	5	0.081364	-2.97808	-2.16015	-2.20472
 200	1	5	-0.00525	-1.23913	-2.49084	-2.19005
 201	1	5	-0.006128	-1.92817	-1.12383	-3.11432
 202	1	5	0.002513	-0.639187	3.27228	0.743723
 203	1	5	0.147318	0.322757	2.72062	-0.624104
 204	1	5	0.144731	0.726453	2.17378	1.01124
 205	1	1	-0.211274	-1.68773	-0.506961	3.97515
 206	1	2	0.221306	-3.03437	0.145259	4.25326
 207	1	2	-0.631195	-3.30051	0.525174	5.57401
 208	1	3	0.289556	-2.54606	0.359595	6.33353
 209	1	2	0.263167	-4.55512	0.9994	5.97948
 210	1	2	-0.339066	-5.54672	1.1807	4.99171
 211	1	3	0.163087	-6.53596	1.52093	5.27844
 212	1	2	0.033139	-5.29194	0.833188	3.64003
 213	1	1	-0.070169	-6.38408	0.943737	2.57362
 214	1	2	-0.051663	-4.04167	0.286353	3.27512
 215	1	4	-0.031436	-3.91032	-0.247588	2.01174
 216	1	5	0.081364	-6.69581	-0.0523516	2.23118
 217	1	5	-0.00525	-6.01933	1.48573	1.68924
 218	1	5	-0.006128	-7.27571	1.46722	2.93541
 219	1	5	0.002513	-1.27884	-0.985623	4.87331
 220	1	5	0.147318	-0.962324	0.239389	3.63422
 221	1	5	0.144731	-1.75999	-1.28346	3.20561
 222	1	1	-0.211274	-7.35011	0.0338603	8.20609
 223	1	2	0.221306	-6.72526	1.30682	8.76026
 224	1	2	-0.631195	-7.32329	1.94441	9.87892
 225	1	3	0.289556	-8.27458	1.59319	10.2657
 226	1	2	0.263167	-6.66806	3.00784	10.5345
 227	1	2	-0.339066	-5.42224	3.40333	10.049
 228	1	3	0.163087	-4.88901	4.1761	10.5914
 229	1	2	0.033139	-4.81991	2.79721	8.93562
 230	1	1	-0.070169	-3.3869	3.20083	8.62503
 231	1	2	-0.051663	-5.48651	1.76259	8.24026
 232	1	4	-0.031436	-4.77052	0.976152	7.35079
 233	1	5	0.081364	-3.16232	4.19318	9.03694
 234	1	5	-0.00525	-3.19285	3.24023	7.54808
 235	1	5	-0.006128	-2.68314	2.493	9.0813
 236	1	5	0.002513	-7.61441	0.137137	7.14631
 237	1	5	0.147318	-8.25319	-0.251349	8.75488
 238	1	5	0.144731	-6.6423	-0.800679	8.29101
 239	1	1	-0.211274	-9.39197	5.50365	12.081
 240	1	2	0.221306	-9.19084	4.18228	12.8061
 241	1	2	-0.631195	-10.1449	3.82859	13.7743
 242	1	3	0.289556	-11.0159	4.4513	13.9359
 243	1	2	0.263167	-9.96751	2.68355	14.5609
 244	1	2	-0.339066	-8.72997	2.03022	14.5187
 245	1	3	0.163087	-8.51937	1.25624	15.2509
 246	1	2	0.033139	-7.7486	2.39461	13.5769
 247	1	1	-0.070169	-6.32751	1.87366	13.7558
 248	1	2	-0.051663	-8.04791	3.3739	12.6029
 249	1	4	-0.031436	-7.13402	3.72131	11.6295
 250	1	5	0.081364	-5.91058	1.47481	12.8255
 251	1	5	-0.00525	-6.27209	1.0893	14.5212
 252	1	5	-0.006128	-5.67383	2.69099	14.0934
 253	1	5	0.002513	-8.55573	5.77098	11.4241
 254	1	5	0.147318	-9.48995	6.31763	12.81
 255	1	5	0.144731	-10.3021	5.47623	11.4751
 256	1	1	-0.211274	-13.3608	3.8811	16.7916
 257	1	2	0.221306	-13.5389	2.62296	15.9704
 258	1	2	-0.631195	-15.1515	2.0661	15.6651
 259	1	3	0.289556	-15.971	2.55278	16.1694
 260	1	2	0.263167	-15.4376	0.76912	14.5392
 261	1	2	-0.339066	-14.0564	-0.0491338	13.7917
 262	1	3	0.163087	-14.2158	-0.890818	13.1263
 263	1	2	0.033139	-12.4296	0.489352	14.1438
 264	1	1	-0.070169	-11.2598	-0.408549	13.7964
 265	1	2	-0.051663	-12.1689	1.85477	15.201
 266	1	4	-0.031436	-10.9029	2.32533	15.4955
 267	1	5	0.081364	-10.8009	-0.768837	14.728
 268	1	5	-0.00525	-10.4898	0.112561	13.2189
 269	1	5	-0.006128	-11.5892	-1.29076	13.2353
 270	1	5	0.002513	-14.3209	4.23526	17.1881
 271	1	5	0.147318	-12.9507	4.67779	16.1612
 272	1	5	0.144731	-12.6781	3.71591	17.6306
 273	1	1	-0.211274	-18.3721	2.80747	14.7379
 274	1	2	0.221306	-17.8561	2.31522	13.3961
 275	1	2	-0.631195	-17.8193	3.23939	12.3523
 276	1	3	0.289556	-18.1306	4.26342	12.5141
 277	1	2	0.263167	-17.2028	2.89925	11.1504
 278	1	2	-0.339066	-16.9096	1.55678	10.8786
 279	1	3	0.163087	-16.503	1.25175	9.91974
 280	1	2	0.033139	-17.0368	0.59086	11.8718
 281	1	1	-0.070169	-16.7601	-0.850788	11.4693
 282	1	2	-0.051663	-17.3278	1.02385	13.1839
 283	1	4	-0.031436	-16.7348	0.390663	14.2329
 284	1	5	0.081364	-17.0425	-1.55262	12.2517
 285	1	5	-0.00525	-15.7082	-1.01049	11.2078
 286	1	5	-0.006128	-17.3578	-1.1145	10.5839
 287	1	5	0.002513	-17.9627	2.25735	15.5881
 288	1	5	0.147318	-19.4599	2.6972	14.7879
 289	1	5	0.144731	-18.134	3.86872	14.8733
 290	1	1	-0.211274	-18.5476	2.62176	8.30038
 291	1	2	0.221306	-17.1203	3.09089	8.0646
 292	1	2	-0.631195	-16.5991	2.92222	6.78648
 293	1	3	0.289556	-17.1971	2.41595	6.04537
 294	1	2	0.263167	-15.339	3.42302	6.45335
 295	1	2	-0.339066	-14.5422	3.9908	7.45768
 296	1	3	0.163087	-13.5487	4.34965	7.22933
 297	1	2	0.033139	-15.0004	4.08593	8.77789
 298	1	1	-0.070169	-14.0229	4.61496	9.82698
 299	1	2	-0.051663	-16.3272	3.69176	9.06412
 300	1	4	-0.031436	-16.8649	3.90741	10.2984
 301	1	5	0.081364	-13.7228	5.64262	9.59086
 302	1	5	-0.00525	-13.1067	4.00718	9.84034
 303	1	5	-0.006128	-14.4287	4.60618	10.8451
 304	1	5	0.002513	-19.1272	2.62831	7.36975
 305	1	5	0.147318	-19.0675	3.26973	9.01343
 306	1	5	0.144731	-18.565	1.5985	8.69408
 307	1	1	-0.211274	-12.0027	3.0168	5.47203
 308	1	2	0.221306	-12.9593	1.90305	5.08266
 309	1	2	-0.631195	-12.4234	0.625277	4.93118
 310	1	3	0.289556	-11.382	0.447298	5.16597
 311	1	2	0.263167	-13.2099	-0.441809	4.4936
 312	1	2	-0.339066	-14.5304	-0.186923	4.07899
 313	1	3	0.163087	-15.1162	-0.9833	3.63238
 314	1	2	0.033139	-15.0976	1.0969	4.21721
 315	1	1	-0.070169	-16.506	1.35294	3.67245
 316	1	2	-0.051663	-14.3195	2.12664	4.79492
 317	1	4	-0.031436	-14.8876	3.31241	5.16612
 318	1	5	0.081364	-16.8881	2.3519	3.91279
 319	1	5	-0.00525	-17.2261	0.618939	4.05485
 320	1	5	-0.006128	-16.5136	1.28766	2.57755
 321	1	5	0.002513	-11.6373	2.89312	6.49884
 322	1	5	0.147318	-12.4542	4.00871	5.37374
 323	1	5	0.144731	-11.1389	3.01065	4.79926
 324	1	1	-0.211274	-13.2535	-3.99877	2.77975
 325	1	2	0.221306	-12.927	-4.00354	4.26657
 326	1	2	-0.631195	-13.0146	-5.22621	4.95127
 327	1	3	0.289556	-13.3079	-6.12355	4.41907
 328	1	2	0.263167	-12.8339	-5.28093	6.33887
 329	1	2	-0.339066	-12.4097	-4.12578	7.00706
 330	1	3	0.163087	-12.256	-4.17385	8.07981
 331	1	2	0.033139	-12.3351	-2.88478	6.3513
 332	1	1	-0.070169	-11.9737	-1.67418	7.20216
 333	1	2	-0.051663	-12.6455	-2.80903	4.96888
 334	1	4	-0.031436	-12.5823	-1.63651	4.24323
 335	1	5	0.081364	-11.7556	-1.96513	8.23751
 336	1	5	-0.00525	-12.8021	-0.957171	7.24723
 337	1	5	-0.006128	-11.0821	-1.16685	6.81768
 338	1	5	0.002513	-12.8789	-4.90115	2.28155
 339	1	5	0.147318	-12.8173	-3.1393	2.25791
 340	1	5	0.144731	-14.3393	-3.95864	2.6387
 341	1	1	-0.211274	-12.8922	-8.53944	9.03726
 342	1	2	0.221306	-13.7712	-7.31506	9.23414
 343	1	2	-0.631195	-14.4224	-7.21253	10.475
 344	1	3	0.289556	-14.3074	-7.99065	11.2205
 345	1	2	0.263167	-15.2137	-6.09946	10.7807
 346	1	2	-0.339066	-15.4628	-5.15811	9.78192
 347	1	3	0.163087	-16.1338	-4.33173	9.99447
 348	1	2	0.033139	-14.9093	-5.29084	8.49807
 349	1	1	-0.070169	-15.4505	-4.33364	7.4383
 350	1	2	-0.051663	-13.9607	-6.32169	8.23971
 351	1	4	-0.031436	-13.2429	-6.39049	7.04992
 352	1	5	0.081364	-16.5158	-4.14202	7.60639
 353	1	5	-0.00525	-15.3752	-4.74476	6.42517
 354	1	5	-0.006128	-14.9415	-3.36322	7.4687
 355	1	5	0.002513	-12.4006	-8.57238	8.05881
 356	1	5	0.147318	-13.4943	-9.45096	9.13362
 357	1	5	0.144731	-12.111	-8.57374	9.80477
 358	1	1	-0.211274	-13.1136	-5.2994	12.9833
 359	1	2	0.221306	-14.3589	-4.51533	13.3648
 360	1	2	-0.631195	-14.2292	-3.42448	14.2563
 361	1	3	0.289556	-13.2511	-3.11106	14.6033
 362	1	2	0.263167	-15.369	-2.7333	14.7028
 363	1	2	-0.339066	-16.6154	-3.12491	14.2019
 364	1	3	0.163087	-17.4923	-2.57018	14.5201
 365	1	2	0.033139	-16.7654	-4.15219	13.2602
 366	1	1	-0.070169	-18.1634	-4.38001	12.6891
 367	1	2	-0.051663	-15.6298	-4.88145	12.85
 368	1	4	-0.031436	-15.7856	-5.97809	12.0229
 369	1	5	0.081364	-18.5342	-3.4595	12.2192
 370	1	5	-0.00525	-18.8738	-4.64572	13.4813
 371	1	5	-0.006128	-18.2005	-5.16426	11.9249
 372	1	5	0.002513	-12.2729	-5.09258	13.6553
 373	1	5	0.147318	-12.804	-5.05763	11.9592
 374	1	5	0.144731	-13.3083	-6.377	13.0285
 375	1	1	-0.211274	-13.8837	2.23336	13.7334
 376	1	2	0.221306	-13.7204	0.329216	16.015
 377	1	2	-0.631195	-12.7698	0.34725	17.16
 378	1	3	0.289556	-11.8332	0.870181	17.1499
 379	1	2	0.263167	-12.9334	-0.159373	18.4509
 380	1	2	-0.339066	-14.1147	-0.785815	18.7611
 381	1	3	0.163087	-14.3447	-1.06399	19.7829
 382	1	2	0.033139	-14.9136	-1.18268	17.6983
 383	1	1	-0.070169	-16.2372	-1.87351	18.0423
 384	1	2	-0.051663	-14.55	-0.893313	16.3522
 385	1	4	-0.031436	-15.415	-1.62025	15.5253
 386	1	5	0.081364	-16.3213	-2.09001	19.1119
 387	1	5	-0.00525	-16.3765	-2.82025	17.5066
 388	1	5	-0.006128	-17.0755	-1.21287	17.7792
 389	1	5	0.002513	-14.5771	3.10143	13.7748
 390	1	5	0.147318	-14.1987	1.88957	12.7263
 391	1	5	0.144731	-13.0003	2.79954	13.3792
 392	1	1	-0.211274	-11.0638	-2.58112	18.1661
 393	1	2	0.221306	-10.1748	-1.35875	18.3618
 394	1	2	-0.631195	-8.86694	-1.43148	17.8626
 395	1	3	0.289556	-8.52412	-2.31757	17.3431
 396	1	2	0.263167	-7.98821	-0.356213	18.0028
 397	1	2	-0.339066	-8.39858	0.786778	18.6911
 398	1	3	0.163087	-7.69892	1.60926	18.8019
 399	1	2	0.033139	-9.69247	0.879154	19.2312
 400	1	1	-0.070169	-10.0639	2.14255	19.9999
 401	1	2	-0.051663	-10.6063	-0.185156	19.0333
 402	1	4	-0.031436	-11.932	-0.0336587	19.3919
 403	1	5	0.081364	-10.8147	2.73062	19.4611
 404	1	5	-0.00525	-9.18946	2.7895	20.1582
 405	1	5	-0.006128	-10.4636	1.89867	20.992
 406	1	5	0.002513	-11.9824	-2.35263	17.6174
 407	1	5	0.147318	-11.3418	-3.01515	19.1327
 408	1	5	0.144731	-10.5575	-3.35633	17.5842
 409	1	6	0	11.6753	4.82478	-17.7468
 410	1	3	0	-6.98717	-0.414549	17.588

Velocities

   1	0.00658499	-0.00439621	0.000243397
   2	-0.00660679	0.010811	0.0119716
   3	0.0035335	0.0165948	0.0109959
   4	0.027134	0.0101327	0.00490483
   5	-0.00178334	0.0153199	0.0120244
   6	0.00497659	0.0101912	0.00331955
   7	0.00854058	0.000105043	-0.00168354
   8	0.00265211	0.00736498	0.0031389
   9	0.00477292	-0.0029649	-0.000185501
  10	-0.00149232	0.00585879	0.000942254
  11	-0.0313758	0.00808266	-0.0112228
  12	0.0106043	-0.00113389	-0.00290783
  13	0.00118782	-0.00428364	-0.00247322
  14	0.00487438	-0.00485123	-0.000249588
  15	0.00474047	0.00935446	-0.0128282
  16	0.00424395	-0.00956452	-0.0115786
  17	-0.00798154	-0.0291483	0.00465807
  18	-0.00125598	-0.000424213	-0.00283051
  19	-0.000421651	1.23238e-05	-0.00416917
  20	-0.0014767	-0.000457587	-0.00500866
  21	-0.00114052	-0.00119146	0.000109745
  22	-0.00315683	-0.0012077	-0.00186199
  23	-0.00267727	0.000857222	-0.00344984
  24	-0.00171893	-0.000369923	0.00169716
  25	-0.00232817	0.00105336	-0.00317516
  26	-0.00297923	-2.87929e-05	-0.00211717
  27	0.00108463	-0.00193644	0.00781474
  28	0.00690999	-0.00943736	0.0206344
  29	-0.00435025	0.000465804	-0.00148602
  30	-0.00242041	0.000149792	-0.000269448
  31	8.4807e-05	-0.00166337	-0.00148807
  32	-0.00137356	0.000436275	-0.000514599
  33	-0.000659074	-0.00393963	-0.00295623
  34	-0.000794601	0.000697375	-0.00138429
  35	-0.000696515	-0.00116705	-0.00041159
  36	-0.00144332	-0.000635268	9.66419e-05
  37	-0.000620507	0.000123907	-7.89343e-05
  38	-0.00048045	0.000171809	-0.000191037
  39	-0.00035298	-6.15829e-05	-0.000135323
  40	-0.000319108	9.41543e-05	0.000189781
  41	-0.000178106	0.000131616	9.82675e-05
  42	-0.00105641	-0.000564996	0.000446728
  43	-0.000906744	-0.000579671	0.000318654
  44	-0.00253973	-0.00178913	0.000612012
  45	-0.00315613	-0.00317639	0.000584645
  46	-0.000798223	-0.000730433	0.000522981
  47	-0.000985254	-0.000582433	0.000309678
  48	-0.000633662	-0.000483232	0.000164459
  49	-0.000691935	-0.00130838	-0.000812867
  50	-0.000748972	-0.00102307	-0.000388536
  51	-3.20153e-05	-0.00135654	-0.00035279
  52	0.000159314	-0.000378616	0.00144886
  53	0.000191235	-0.000506813	0.000233761
  54	0.000146472	-0.000546717	-6.5086e-05
  55	7.97729e-05	-0.000386596	0.000298344
  56	9.68815e-05	-0.000640873	-0.000652219
  57	2.29498e-05	-0.000704564	-0.00111972
  58	4.11347e-05	-0.000650109	-0.00116745
  59	0.000126791	-0.000686918	-0.000517303
  60	0.000434431	-0.00104707	0.0005764
  61	0.000178162	-0.000490446	-0.00016447
  62	3.42519e-05	-0.00034165	-5.9797e-05
  63	-6.86468e-05	-0.000992622	0.000663037
  64	0.00107203	-0.000989762	0.00068884
  65	0.000415221	-0.00121284	0.0010375
  66	-4.44119e-05	-0.000180446	0.00162959
  67	-0.000329188	-0.000368849	0.00151814
  68	0.00079431	-0.000321981	0.00161637
  69	-0.000319434	2.87954e-05	0.000400257
  70	-0.000119989	2.44979e-05	0.000225536
  71	-0.000220268	0.000160822	0.000227617
  72	-0.000330173	0.000210889	0.000256113
  73	-4.58465e-05	0.000169278	9.63821e-05
  74	-9.50641e-05	8.18025e-05	0.000101834
  75	-0.000116624	6.70502e-05	0.000126034
  76	9.73271e-05	-0.000167756	5.42342e-06
  77	0.000280359	-0.000445549	-0.000146365
  78	0.000142191	-0.000314738	-7.31535e-06
  79	0.000233971	-0.00057708	-0.000241347
  80	0.000307125	-0.000367024	-0.000182904
  81	0.000288577	-0.000605471	-4.95518e-05
  82	0.000259358	-0.000444588	-0.000284507
  83	-0.000659425	0.000157028	0.000531773
  84	-0.000108071	0.000231137	0.00012768
  85	-0.00023749	-0.000378588	0.000616801
  86	0.000625492	0.000922157	-0.000673927
  87	0.000120196	0.000240291	-0.000593644
  88	-0.00016091	6.54485e-05	-0.000836401
  89	-0.000319853	2.7111e-05	-0.000819732
  90	9.21287e-05	0.000152674	-0.000642156
  91	0.000209576	0.000149623	-0.000398733
  92	0.000222955	4.67928e-05	-0.000320555
  93	0.000226266	0.000189673	-0.000300943
  94	0.000373819	0.000216574	-0.000310384
  95	0.000155217	0.000194842	-0.000292151
  96	0.000103172	0.000206812	-0.00016279
  97	-1.27905e-05	0.000108087	-0.000343941
  98	0.000549283	0.00023902	-0.000555809
  99	0.000574401	0.00029593	-1.16237e-05
 100	0.00119638	0.000931269	-0.000729948
 101	0.00054531	0.00144742	-0.000569408
 102	0.000313509	0.000743513	-0.000644668
 103	0.000117427	0.000620193	-2.44405e-05
 104	2.52273e-05	0.000652961	0.000288668
 105	-2.46251e-05	0.000717209	0.000495817
 106	-4.78893e-06	0.000591619	0.000372343
 107	1.50971e-06	0.000643754	0.000509511
 108	-3.28317e-05	0.000690289	0.000578332
 109	3.65784e-05	0.000564026	0.000507745
 110	-1.47688e-05	0.000617033	0.00039296
 111	-4.50957e-05	0.000601056	0.000405159
 112	9.74925e-05	0.000520345	3.76701e-05
 113	0.00016289	0.000405079	-0.000453611
 114	3.14924e-05	0.000867777	0.000504912
 115	-0.000363208	0.000382975	0.000645951
 116	0.000173917	0.00037929	-5.20759e-05
 117	7.28654e-05	0.000653927	-1.03271e-06
 118	-6.51915e-05	0.000534478	-0.000214409
 119	0.000386381	0.000443471	-8.3079e-05
 120	0.00237618	0.000432642	0.000566731
 121	-0.000935757	0.00113603	-0.000985967
 122	-0.00240779	0.00182784	-0.00231795
 123	-0.0023976	0.00184259	-0.00229294
 124	-0.00160085	0.00158046	-0.00115919
 125	-0.00120725	0.00132313	-0.000231654
 126	-0.000737772	0.00119932	0.00028311
 127	-0.00122314	0.000923927	-0.000133818
 128	-0.00150462	0.000141916	0.000958404
 129	-0.000702811	0.000752014	-0.000199235
 130	-2.66591e-05	0.000541407	0.000466183
 131	-0.00120837	-0.00062133	0.000901808
 132	-0.00159055	0.000292552	0.00152047
 133	-0.00159858	-4.17057e-05	0.000924827
 134	0.00387133	-0.00132063	0.00384448
 135	-0.000358419	0.00058311	0.000258836
 136	0.00537735	0.00122593	-0.00162564
 137	5.22392e-05	0.000417658	-0.000207156
 138	-0.000635019	-1.02529e-05	0.000239486
 139	-0.000696115	-0.000262517	0.000500219
 140	-0.000503141	-0.000236763	0.000418739
 141	-0.000585944	-0.000335134	0.000538497
 142	-0.00111395	-0.000155402	0.00059453
 143	-0.00104938	-6.43899e-05	0.000620428
 144	-0.000961606	4.92923e-05	0.000281837
 145	0.000189467	0.000236638	-0.000315465
 146	-0.000847109	0.000286097	0.000217788
 147	-0.000669785	0.000838268	-0.000183165
 148	0.000329734	-0.000266333	-0.000992724
 149	0.000669021	0.000496081	-0.000170922
 150	0.000415326	0.00037896	-0.000196239
 151	-0.000329124	0.000788193	-9.76532e-05
 152	0.00045417	0.000872131	-0.000482707
 153	0.000435384	-0.000110459	-0.000253604
 154	0.00116172	-0.00192758	0.000820632
 155	0.000665428	-0.000797176	0.000873943
 156	0.000565938	-0.00075257	0.00043019
 157	0.000464535	-0.000806234	0.000107347
 158	0.000403634	-0.00086458	0.000252601
 159	0.000523922	-0.00079972	0.000765284
 160	0.000415299	-0.00072207	0.000543552
 161	0.000663237	-0.000694046	0.00110054
 162	0.00151604	-0.000862594	0.000941205
 163	0.000429974	-0.000574862	0.00102039
 164	0.000224435	-0.000472446	0.000793851
 165	0.000725012	-0.000538143	0.000237387
 166	0.00174272	-0.000996062	0.00160901
 167	0.0024186	-0.000960186	0.000492387
 168	0.00173046	-0.00209325	0.000369453
 169	0.000796901	-0.00221	0.000819949
 170	0.00109891	-0.00201114	0.00101912
 171	-0.000390363	0.000691562	-0.00111484
 172	-0.000790089	-0.00086424	-0.00098521
 173	-0.000812982	-0.000877833	-0.000984432
 174	-0.000576673	-0.000411493	-0.00116068
 175	-0.00085614	-0.000900449	-0.000821255
 176	-0.000848874	-0.00114247	-0.0008833
 177	-0.000829744	-0.000819226	-0.000726307
 178	-0.000542027	-0.000649117	-0.0012499
 179	0.00044596	0.0014509	-0.0024105
 180	-0.000608295	-0.00104799	-0.00102275
 181	-0.000112189	-0.00122728	-0.000616398
 182	0.000201559	0.00147373	-0.0030854
 183	0.00119169	0.00249227	-0.00147316
 184	0.000514661	0.0014538	-0.00284737
 185	-1.70571e-05	0.00171281	-0.00126699
 186	-0.000718461	0.000630623	-0.00186675
 187	0.000149395	0.000683534	7.20777e-05
 188	-0.000264822	0.000216709	0.000467376
 189	-8.70951e-05	0.00019464	0.000216912
 190	0.000394278	4.02994e-05	0.000723315
 191	0.000980008	-0.000136076	0.000972636
 192	-0.000479579	0.000802707	0.000560479
 193	-0.0011963	0.00128443	-0.000135244
 194	-0.00115397	0.00125323	-0.000135574
 195	-0.000654902	0.000644261	5.41099e-05
 196	0.000980638	-0.000367557	0.00053471
 197	-0.000433973	0.000424598	-0.000118891
 198	-0.000365776	-0.000277096	-0.000499475
 199	0.00255283	-0.00361337	0.00168991
 200	0.00364114	0.00203557	-0.000348835
 201	-0.00190678	-0.000213251	0.000366308
 202	-0.000254737	-0.000152642	0.00135673
 203	-0.000945629	0.000809251	0.000385665
 204	0.000146521	-0.000116214	-0.000163466
 205	-2.93107e-05	-0.000304168	0.000634478
 206	0.000131142	-0.000539819	0.00155958
 207	0.000342828	-0.00182852	0.00204153
 208	0.000651354	-0.00211882	0.00164982
 209	0.000568055	-0.00178335	0.00270229
 210	0.000447408	-0.00116744	0.00304989
 211	0.000383776	-0.00124151	0.00281012
 212	7.77496e-05	4.60116e-05	0.00280672
 213	-0.000761374	0.00119578	0.00381103
 214	7.8007e-05	0.000581746	0.00174273
 215	-0.000454834	0.00157837	0.00106352
 216	-0.000923167	0.00164091	0.00304631
 217	-0.00118249	0.00104571	0.00371871
 218	-0.000629453	0.00134103	0.00428598
 219	0.000692816	0.000190388	0.000554563
 220	-0.000489393	-0.000320381	-0.000302072
 221	-0.000616393	-0.000512732	0.000925754
 222	-0.00118345	0.00195244	0.000697093
 223	0.000513187	0.000804916	0.00143455
 224	0.00124005	0.00140161	0.00130599
 225	0.00121489	0.00154237	0.00139501
 226	0.00143327	0.00199658	0.000188347
 227	0.00105996	0.0022168	-0.00109196
 228	0.00105696	0.00277911	-0.00175778
 229	0.00091931	0.000698024	-0.000544561
 230	0.000683469	-0.00040116	-0.00284455
 231	0.000832562	-0.000407501	0.00147058
 232	0.000314708	-0.00189664	0.00253672
 233	0.00146262	-0.000557215	-0.00323948
 234	-0.000655998	-0.00100446	-0.00327052
 235	0.000726166	-0.000466209	-0.00301961
 236	-0.000830159	0.00263946	0.000674341
 237	-0.00142599	0.00213338	0.000452003
 238	-0.00207011	0.00127986	-0.000108627
 239	-0.0016603	-0.00158525	-0.0019763
 240	-0.00139607	-0.00173635	-0.002426
 241	-0.00205914	-0.00271373	-0.00340129
 242	-0.00245331	-0.00314765	-0.0037836
 243	-0.000610122	-0.00114519	-0.00148053
 244	-0.000147653	-0.000311619	-0.000788238
 245	-2.87019e-05	2.09125e-06	-0.000423768
 246	-0.00033584	-0.000686559	-0.00119876
 247	-0.000938225	-0.00266658	-0.00267387
 248	0.000251133	0.000113578	-0.000653261
 249	0.00139345	0.00136663	0.000652587
 250	-0.00189452	-0.00273534	-0.0032217
 251	-0.00106693	-0.00237115	-0.00237169
 252	-8.156e-05	-0.00350348	-0.00286975
 253	-0.00140476	-0.00102039	-0.00135821
 254	-0.00138419	-0.0019323	-0.00172829
 255	-0.00181162	-0.00129414	-0.00188013
 256	0.00096422	-0.00137304	0.00118472
 257	5.52345e-05	0.00018845	-0.00117048
 258	-0.000130908	0.00074805	-0.00160995
 259	-0.000466741	0.00132806	-0.00256015
 260	-0.000109857	2.35381e-05	-0.000651957
 261	-0.000170136	-0.00103492	0.00040564
 262	-0.000103039	-0.000980429	0.000354341
 263	-0.000179236	-0.00136635	0.000499821