

################################################################################
##################################    Init    ##################################
################################################################################
units           real
atom_style      full
pair_style      lj/cut/coul/long 12.0  12.0
kspace_style    pppm 1e-4
bond_style      harmonic
angle_style     harmonic
dihedral_style  fourier
improper_style  cvff
special_bonds   amber
pair_modify     mix arithmetic
read_data       temp.lmps
  orthogonal box = (-62.9514 -62.9514 -62.9514) to (62.9514 62.9514 62.9514)
  1 by 1 by 1 MPI processor grid
  reading atoms ...
  34 atoms
  reading velocities ...
  34 velocities
  scanning bonds ...
  4 = max bonds/atom
  scanning angles ...
  6 = max angles/atom
  scanning dihedrals ...
  10 = max dihedrals/atom
  scanning impropers ...
  1 = max impropers/atom
  reading bonds ...
  35 bonds
  reading angles ...
  59 angles
  reading dihedrals ...
  72 dihedrals
  reading impropers ...
  8 impropers
  4 = max # of 1-2 neighbors
  7 = max # of 1-3 neighbors
  17 = max # of 1-4 neighbors
  19 = max # of special neighbors
  special bonds CPU = 0.000300884 secs
  read_data CPU = 0.00686002 secs
################################################################################

timestep        1
fix             pysimm_md all nve/limit 0.1
run             2000
PPPM initialization ...
  using 12-bit tables for long-range coulomb (../kspace.cpp:332)
  G vector (1/distance) = 0.0511455
  grid = 5 5 5
  stencil order = 5
  estimated absolute RMS force accuracy = 0.0382034
  estimated relative force accuracy = 0.000115048
  using double precision KISS FFT
  3d grid and FFT values/proc = 1000 125
Neighbor list info ...
  update every 1 steps, delay 10 steps, check yes
  max neighbors/atom: 2000, page size: 100000
  master list distance cutoff = 14
  ghost atom cutoff = 14
  binsize = 7, bins = 18 18 18
  1 neighbor lists, perpetual/occasional/extra = 1 0 0
  (1) pair lj/cut/coul/long, perpetual
      attributes: half, newton on
      pair build: half/bin/newton
      stencil: half/bin/3d/newton
      bin: standard
Per MPI rank memory allocation (min/avg/max) = 13.04 | 13.04 | 13.04 Mbytes
Step Temp E_pair E_mol TotEng Press 
       0    4.7445922   -69.611424    143.45046    74.305745   -7.0086723 
    2000    780.62131   -65.894889    62.037428    72.929705   0.79227863 
Loop time of 0.189534 on 1 procs for 2000 steps with 34 atoms

Performance: 911.710 ns/day, 0.026 hours/ns, 10552.199 timesteps/s
100.8% CPU use with 1 MPI tasks x no OpenMP threads

MPI task timing breakdown:
Section |  min time  |  avg time  |  max time  |%varavg| %total
---------------------------------------------------------------
Pair    | 0.03808    | 0.03808    | 0.03808    |   0.0 | 20.09
Bond    | 0.026754   | 0.026754   | 0.026754   |   0.0 | 14.12
Kspace  | 0.11809    | 0.11809    | 0.11809    |   0.0 | 62.30
Neigh   | 0.0025797  | 0.0025797  | 0.0025797  |   0.0 |  1.36
Comm    | 0.00059652 | 0.00059652 | 0.00059652 |   0.0 |  0.31
Output  | 1.3113e-05 | 1.3113e-05 | 1.3113e-05 |   0.0 |  0.01
Modify  | 0.0016375  | 0.0016375  | 0.0016375  |   0.0 |  0.86
Other   |            | 0.001788   |            |       |  0.94

Nlocal:    34 ave 34 max 34 min
Histogram: 1 0 0 0 0 0 0 0 0 0
Nghost:    0 ave 0 max 0 min
Histogram: 1 0 0 0 0 0 0 0 0 0
Neighs:    561 ave 561 max 561 min
Histogram: 1 0 0 0 0 0 0 0 0 0

Total # of neighbors = 561
Ave neighs/atom = 16.5
Ave special neighs/atom = 9.41176
Neighbor list builds = 69
Dangerous builds = 0
unfix pysimm_md
min_style cg
minimize 0.001 0.001 10000 100000
WARNING: Using 'neigh_modify every 1 delay 0 check yes' setting during minimization (../min.cpp:190)
PPPM initialization ...
  using 12-bit tables for long-range coulomb (../kspace.cpp:332)
  G vector (1/distance) = 0.0511455
  grid = 5 5 5
  stencil order = 5
  estimated absolute RMS force accuracy = 0.0382034
  estimated relative force accuracy = 0.000115048
  using double precision KISS FFT
  3d grid and FFT values/proc = 1000 125
Per MPI rank memory allocation (min/avg/max) = 14.17 | 14.17 | 14.17 Mbytes
Step Temp E_pair E_mol TotEng Press 
    2000    780.62131   -65.894889    62.037428    72.929705   0.79227863 
    2028    780.62131   -68.343033     6.486776     14.93091    1.8488946 
Loop time of 0.00617504 on 1 procs for 28 steps with 34 atoms

97.1% CPU use with 1 MPI tasks x no OpenMP threads

Minimization stats:
  Stopping criterion = energy tolerance
  Energy initial, next-to-last, final = 
        -3.85746152614     -61.8108185246     -61.8562568941
  Force two-norm initial, final = 272.459 9.96285
  Force max component initial, final = 87.0723 3.24198
  Final line search alpha, max atom move = 0.0180602 0.0585509
  Iterations, force evaluations = 28 56

MPI task timing breakdown:
Section |  min time  |  avg time  |  max time  |%varavg| %total
---------------------------------------------------------------
Pair    | 0.0017476  | 0.0017476  | 0.0017476  |   0.0 | 28.30
Bond    | 0.00081801 | 0.00081801 | 0.00081801 |   0.0 | 13.25
Kspace  | 0.0034339  | 0.0034339  | 0.0034339  |   0.0 | 55.61
Neigh   | 0          | 0          | 0          |   0.0 |  0.00
Comm    | 1.0729e-05 | 1.0729e-05 | 1.0729e-05 |   0.0 |  0.17
Output  | 0          | 0          | 0          |   0.0 |  0.00
Modify  | 0          | 0          | 0          |   0.0 |  0.00
Other   |            | 0.0001647  |            |       |  2.67

Nlocal:    34 ave 34 max 34 min
Histogram: 1 0 0 0 0 0 0 0 0 0
Nghost:    0 ave 0 max 0 min
Histogram: 1 0 0 0 0 0 0 0 0 0
Neighs:    561 ave 561 max 561 min
Histogram: 1 0 0 0 0 0 0 0 0 0

Total # of neighbors = 561
Ave neighs/atom = 16.5
Ave special neighs/atom = 9.41176
Neighbor list builds = 0
Dangerous builds = 0
write_dump all custom pysimm.dump.tmp id q x y z vx vy vz
quit


################################################################################
##################################    Init    ##################################
################################################################################
units           real
atom_style      full
pair_style      lj/cut/coul/long 12.0  12.0
kspace_style    pppm 1e-4
bond_style      harmonic
angle_style     harmonic
dihedral_style  fourier
improper_style  cvff
special_bonds   amber
pair_modify     mix arithmetic
read_data       temp.lmps
  orthogonal box = (-62.9514 -62.9514 -62.9514) to (62.9514 62.9514 62.9514)
  1 by 1 by 1 MPI processor grid
  reading atoms ...
  51 atoms
  reading velocities ...
  51 velocities
  scanning bonds ...
  4 = max bonds/atom
  scanning angles ...
  6 = max angles/atom
  scanning dihedrals ...
  10 = max dihedrals/atom
  scanning impropers ...
  1 = max impropers/atom
  reading bonds ...
  53 bonds
  reading angles ...
  90 angles
  reading dihedrals ...
  112 dihedrals
  reading impropers ...
  12 impropers
  4 = max # of 1-2 neighbors
  7 = max # of 1-3 neighbors
  17 = max # of 1-4 neighbors
  19 = max # of special neighbors
  special bonds CPU = 0.000255108 secs
  read_data CPU = 0.00680208 secs
################################################################################

timestep        1
fix             pysimm_md all nve/limit 0.1
run             2000
PPPM initialization ...
  using 12-bit tables for long-range coulomb (../kspace.cpp:332)
  G vector (1/distance) = 0.0758732
  grid = 8 8 8
  stencil order = 5
  estimated absolute RMS force accuracy = 0.0297619
  estimated relative force accuracy = 8.9627e-05
  using double precision KISS FFT
  3d grid and FFT values/proc = 2197 512
Neighbor list info ...
  update every 1 steps, delay 10 steps, check yes
  max neighbors/atom: 2000, page size: 100000
  master list distance cutoff = 14
  ghost atom cutoff = 14
  binsize = 7, bins = 18 18 18
  1 neighbor lists, perpetual/occasional/extra = 1 0 0
  (1) pair lj/cut/coul/long, perpetual
      attributes: half, newton on
      pair build: half/bin/newton
      stencil: half/bin/3d/newton
      bin: standard
Per MPI rank memory allocation (min/avg/max) = 13.12 | 13.12 | 13.12 Mbytes
Step Temp E_pair E_mol TotEng Press 
       0    516.77541   -103.40529    144.28598    117.90116   -5.1802605 
    2000    601.77224   -102.93829    127.53039    114.28053   -3.4885624 
Loop time of 0.46605 on 1 procs for 2000 steps with 51 atoms

Performance: 370.776 ns/day, 0.065 hours/ns, 4291.384 timesteps/s
99.8% CPU use with 1 MPI tasks x no OpenMP threads

MPI task timing breakdown:
Section |  min time  |  avg time  |  max time  |%varavg| %total
---------------------------------------------------------------
Pair    | 0.075835   | 0.075835   | 0.075835   |   0.0 | 16.27
Bond    | 0.039791   | 0.039791   | 0.039791   |   0.0 |  8.54
Kspace  | 0.34109    | 0.34109    | 0.34109    |   0.0 | 73.19
Neigh   | 0.0042315  | 0.0042315  | 0.0042315  |   0.0 |  0.91
Comm    | 0.00065446 | 0.00065446 | 0.00065446 |   0.0 |  0.14
Output  | 1.3828e-05 | 1.3828e-05 | 1.3828e-05 |   0.0 |  0.00
Modify  | 0.002357   | 0.002357   | 0.002357   |   0.0 |  0.51
Other   |            | 0.002079   |            |       |  0.45

Nlocal:    51 ave 51 max 51 min
Histogram: 1 0 0 0 0 0 0 0 0 0
Nghost:    0 ave 0 max 0 min
Histogram: 1 0 0 0 0 0 0 0 0 0
Neighs:    1271 ave 1271 max 1271 min
Histogram: 1 0 0 0 0 0 0 0 0 0

Total # of neighbors = 1271
Ave neighs/atom = 24.9216
Ave special neighs/atom = 9.64706
Neighbor list builds = 73
Dangerous builds = 0
unfix pysimm_md
min_style cg
minimize 0.001 0.001 10000 100000
WARNING: Using 'neigh_modify every 1 delay 0 check yes' setting during minimization (../min.cpp:190)
PPPM initialization ...
  using 12-bit tables for long-range coulomb (../kspace.cpp:332)
  G vector (1/distance) = 0.0758732
  grid = 8 8 8
  stencil order = 5
  estimated absolute RMS force accuracy = 0.0297619
  estimated relative force accuracy = 8.9627e-05
  using double precision KISS FFT
  3d grid and FFT values/proc = 2197 512
Per MPI rank memory allocation (min/avg/max) = 14.25 | 14.25 | 14.25 Mbytes
Step Temp E_pair E_mol TotEng Press 
    2000    601.77224   -102.93829    127.53039    114.28053   -3.4885624 
    2030    601.77224   -105.96341    19.372188    3.0972204    3.2519486 
Loop time of 0.0318871 on 1 procs for 30 steps with 51 atoms

100.3% CPU use with 1 MPI tasks x no OpenMP threads

Minimization stats:
  Stopping criterion = linesearch alpha is zero
  Energy initial, next-to-last, final = 
         24.5920967909     -86.5912167786     -86.5912167786
  Force two-norm initial, final = 375.101 19.6941
  Force max component initial, final = 140.718 5.35933
  Final line search alpha, max atom move = 2.09234e-11 1.12135e-10
  Iterations, force evaluations = 30 115

MPI task timing breakdown:
Section |  min time  |  avg time  |  max time  |%varavg| %total
---------------------------------------------------------------
Pair    | 0.0072384  | 0.0072384  | 0.0072384  |   0.0 | 22.70
Bond    | 0.0025351  | 0.0025351  | 0.0025351  |   0.0 |  7.95
Kspace  | 0.021784   | 0.021784   | 0.021784   |   0.0 | 68.32
Neigh   | 0          | 0          | 0          |   0.0 |  0.00
Comm    | 3.1471e-05 | 3.1471e-05 | 3.1471e-05 |   0.0 |  0.10
Output  | 0          | 0          | 0          |   0.0 |  0.00
Modify  | 0          | 0          | 0          |   0.0 |  0.00
Other   |            | 0.0002983  |            |       |  0.94

Nlocal:    51 ave 51 max 51 min
Histogram: 1 0 0 0 0 0 0 0 0 0
Nghost:    0 ave 0 max 0 min
Histogram: 1 0 0 0 0 0 0 0 0 0
Neighs:    1271 ave 1271 max 1271 min
Histogram: 1 0 0 0 0 0 0 0 0 0

Total # of neighbors = 1271
Ave neighs/atom = 24.9216
Ave special neighs/atom = 9.64706
Neighbor list builds = 0
Dangerous builds = 0
write_dump all custom pysimm.dump.tmp id q x y z vx vy vz
quit


################################################################################
##################################    Init    ##################################
################################################################################
units           real
atom_style      full
pair_style      lj/cut/coul/long 12.0  12.0
kspace_style    pppm 1e-4
bond_style      harmonic
angle_style     harmonic
dihedral_style  fourier
improper_style  cvff
special_bonds   amber
pair_modify     mix arithmetic
read_data       temp.lmps
  orthogonal box = (-62.9514 -62.9514 -62.9514) to (62.9514 62.9514 62.9514)
  1 by 1 by 1 MPI processor grid
  reading atoms ...
  68 atoms
  reading velocities ...
  68 velocities
  scanning bonds ...
  4 = max bonds/atom
  scanning angles ...
  6 = max angles/atom
  scanning dihedrals ...
  10 = max dihedrals/atom
  scanning impropers ...
  1 = max impropers/atom
  reading bonds ...
  71 bonds
  reading angles ...
  121 angles
  reading dihedrals ...
  152 dihedrals
  reading impropers ...
  16 impropers
  4 = max # of 1-2 neighbors
  7 = max # of 1-3 neighbors
  17 = max # of 1-4 neighbors
  19 = max # of special neighbors
  special bonds CPU = 0.000277042 secs
  read_data CPU = 0.00671196 secs
################################################################################

timestep        1
fix             pysimm_md all nve/limit 0.1
run             2000
PPPM initialization ...
  using 12-bit tables for long-range coulomb (../kspace.cpp:332)
  G vector (1/distance) = 0.0758735
  grid = 8 8 8
  stencil order = 5
  estimated absolute RMS force accuracy = 0.0343666
  estimated relative force accuracy = 0.000103494
  using double precision KISS FFT
  3d grid and FFT values/proc = 2197 512
Neighbor list info ...
  update every 1 steps, delay 10 steps, check yes
  max neighbors/atom: 2000, page size: 100000
  master list distance cutoff = 14
  ghost atom cutoff = 14
  binsize = 7, bins = 18 18 18
  1 neighbor lists, perpetual/occasional/extra = 1 0 0
  (1) pair lj/cut/coul/long, perpetual
      attributes: half, newton on
      pair build: half/bin/newton
      stencil: half/bin/3d/newton
      bin: standard
Per MPI rank memory allocation (min/avg/max) = 13.13 | 13.13 | 13.13 Mbytes
Step Temp E_pair E_mol TotEng Press 
       0     450.2525   -143.03046    161.95864    108.85003    -4.341463 
    2000    658.39359   -139.38985    111.48481    103.58556    3.9994242 
Loop time of 0.539061 on 1 procs for 2000 steps with 68 atoms

Performance: 320.557 ns/day, 0.075 hours/ns, 3710.155 timesteps/s
100.0% CPU use with 1 MPI tasks x no OpenMP threads

MPI task timing breakdown:
Section |  min time  |  avg time  |  max time  |%varavg| %total
---------------------------------------------------------------
Pair    | 0.11367    | 0.11367    | 0.11367    |   0.0 | 21.09
Bond    | 0.052437   | 0.052437   | 0.052437   |   0.0 |  9.73
Kspace  | 0.36104    | 0.36104    | 0.36104    |   0.0 | 66.98
Neigh   | 0.0062661  | 0.0062661  | 0.0062661  |   0.0 |  1.16
Comm    | 0.00072527 | 0.00072527 | 0.00072527 |   0.0 |  0.13
Output  | 1.4067e-05 | 1.4067e-05 | 1.4067e-05 |   0.0 |  0.00
Modify  | 0.0026903  | 0.0026903  | 0.0026903  |   0.0 |  0.50
Other   |            | 0.002225   |            |       |  0.41

Nlocal:    68 ave 68 max 68 min
Histogram: 1 0 0 0 0 0 0 0 0 0
Nghost:    0 ave 0 max 0 min
Histogram: 1 0 0 0 0 0 0 0 0 0
Neighs:    2149 ave 2149 max 2149 min
Histogram: 1 0 0 0 0 0 0 0 0 0

Total # of neighbors = 2149
Ave neighs/atom = 31.6029
Ave special neighs/atom = 9.76471
Neighbor list builds = 75
Dangerous builds = 0
unfix pysimm_md
min_style cg
minimize 0.001 0.001 10000 100000
WARNING: Using 'neigh_modify every 1 delay 0 check yes' setting during minimization (../min.cpp:190)
PPPM initialization ...
  using 12-bit tables for long-range coulomb (../kspace.cpp:332)
  G vector (1/distance) = 0.0758735
  grid = 8 8 8
  stencil order = 5
  estimated absolute RMS force accuracy = 0.0343666
  estimated relative force accuracy = 0.000103494
  using double precision KISS FFT
  3d grid and FFT values/proc = 2197 512
Per MPI rank memory allocation (min/avg/max) = 14.25 | 14.25 | 14.25 Mbytes
Step Temp E_pair E_mol TotEng Press 
    2000    658.39359   -139.38985    111.48481    103.58556    3.9994242 
    2025    658.39359   -141.64318    18.970471    8.8178906    3.8979257 
Loop time of 0.016551 on 1 procs for 25 steps with 68 atoms

96.7% CPU use with 1 MPI tasks x no OpenMP threads

Minimization stats:
  Stopping criterion = energy tolerance
  Energy initial, next-to-last, final = 
        -27.9050408267     -122.583313623     -122.672707835
  Force two-norm initial, final = 416.793 20.4274
  Force max component initial, final = 97.4384 5.2815
  Final line search alpha, max atom move = 0.00819088 0.0432602
  Iterations, force evaluations = 25 50

MPI task timing breakdown:
Section |  min time  |  avg time  |  max time  |%varavg| %total
---------------------------------------------------------------
Pair    | 0.0050354  | 0.0050354  | 0.0050354  |   0.0 | 30.42
Bond    | 0.0014386  | 0.0014386  | 0.0014386  |   0.0 |  8.69
Kspace  | 0.0098772  | 0.0098772  | 0.0098772  |   0.0 | 59.68
Neigh   | 0          | 0          | 0          |   0.0 |  0.00
Comm    | 1.3351e-05 | 1.3351e-05 | 1.3351e-05 |   0.0 |  0.08
Output  | 0          | 0          | 0          |   0.0 |  0.00
Modify  | 0          | 0          | 0          |   0.0 |  0.00
Other   |            | 0.0001864  |            |       |  1.13

Nlocal:    68 ave 68 max 68 min
Histogram: 1 0 0 0 0 0 0 0 0 0
Nghost:    0 ave 0 max 0 min
Histogram: 1 0 0 0 0 0 0 0 0 0
Neighs:    2156 ave 2156 max 2156 min
Histogram: 1 0 0 0 0 0 0 0 0 0

Total # of neighbors = 2156
Ave neighs/atom = 31.7059
Ave special neighs/atom = 9.76471
Neighbor list builds = 0
Dangerous builds = 0
write_dump all custom pysimm.dump.tmp id q x y z vx vy vz
quit


################################################################################
##################################    Init    ##################################
################################################################################
units           real
atom_style      full
pair_style      lj/cut/coul/long 12.0  12.0
kspace_style    pppm 1e-4
bond_style      harmonic
angle_style     harmonic
dihedral_style  fourier
improper_style  cvff
special_bonds   amber
pair_modify     mix arithmetic
read_data       temp.lmps
  orthogonal box = (-62.9514 -62.9514 -62.9514) to (62.9514 62.9514 62.9514)
  1 by 1 by 1 MPI processor grid
  reading atoms ...
  85 atoms
  reading velocities ...
  85 velocities
  scanning bonds ...
  4 = max bonds/atom
  scanning angles ...
  6 = max angles/atom
  scanning dihedrals ...
  10 = max dihedrals/atom
  scanning impropers ...
  1 = max impropers/atom
  reading bonds ...
  89 bonds
  reading angles ...
  152 angles
  reading dihedrals ...
  192 dihedrals
  reading impropers ...
  20 impropers
  4 = max # of 1-2 neighbors
  7 = max # of 1-3 neighbors
  17 = max # of 1-4 neighbors
  19 = max # of special neighbors
  special bonds CPU = 0.00049305 secs
  read_data CPU = 0.00486708 secs
################################################################################

timestep        1
fix             pysimm_md all nve/limit 0.1
run             2000
PPPM initialization ...
  using 12-bit tables for long-range coulomb (../kspace.cpp:332)
  G vector (1/distance) = 0.0832364
  grid = 9 9 9
  stencil order = 5
  estimated absolute RMS force accuracy = 0.0324576
  estimated relative force accuracy = 9.77452e-05
  using double precision KISS FFT
  3d grid and FFT values/proc = 2744 729
Neighbor list info ...
  update every 1 steps, delay 10 steps, check yes
  max neighbors/atom: 2000, page size: 100000
  master list distance cutoff = 14
  ghost atom cutoff = 14
  binsize = 7, bins = 18 18 18
  1 neighbor lists, perpetual/occasional/extra = 1 0 0
  (1) pair lj/cut/coul/long, perpetual
      attributes: half, newton on
      pair build: half/bin/newton
      stencil: half/bin/3d/newton
      bin: standard
Per MPI rank memory allocation (min/avg/max) = 13.17 | 13.17 | 13.17 Mbytes
Step Temp E_pair E_mol TotEng Press 
       0    526.07935   -176.62636     161.5325    116.63012   -3.2198815 
    2000    573.32575   -170.50685    143.18649    116.23355    7.6179559 
Loop time of 1.08207 on 1 procs for 2000 steps with 85 atoms

Performance: 159.694 ns/day, 0.150 hours/ns, 1848.313 timesteps/s
100.0% CPU use with 1 MPI tasks x no OpenMP threads

MPI task timing breakdown:
Section |  min time  |  avg time  |  max time  |%varavg| %total
---------------------------------------------------------------
Pair    | 0.23788    | 0.23788    | 0.23788    |   0.0 | 21.98
Bond    | 0.098889   | 0.098889   | 0.098889   |   0.0 |  9.14
Kspace  | 0.72219    | 0.72219    | 0.72219    |   0.0 | 66.74
Neigh   | 0.013524   | 0.013524   | 0.013524   |   0.0 |  1.25
Comm    | 0.0011284  | 0.0011284  | 0.0011284  |   0.0 |  0.10
Output  | 1.5974e-05 | 1.5974e-05 | 1.5974e-05 |   0.0 |  0.00
Modify  | 0.0047185  | 0.0047185  | 0.0047185  |   0.0 |  0.44
Other   |            | 0.00372    |            |       |  0.34

Nlocal:    85 ave 85 max 85 min
Histogram: 1 0 0 0 0 0 0 0 0 0
Nghost:    0 ave 0 max 0 min
Histogram: 1 0 0 0 0 0 0 0 0 0
Neighs:    3264 ave 3264 max 3264 min
Histogram: 1 0 0 0 0 0 0 0 0 0

Total # of neighbors = 3264
Ave neighs/atom = 38.4
Ave special neighs/atom = 9.83529
Neighbor list builds = 79
Dangerous builds = 0
unfix pysimm_md
min_style cg
minimize 0.001 0.001 10000 100000
WARNING: Using 'neigh_modify every 1 delay 0 check yes' setting during minimization (../min.cpp:190)
PPPM initialization ...
  using 12-bit tables for long-range coulomb (../kspace.cpp:332)
  G vector (1/distance) = 0.0832364
  grid = 9 9 9
  stencil order = 5
  estimated absolute RMS force accuracy = 0.0324576
  estimated relative force accuracy = 9.77452e-05
  using double precision KISS FFT
  3d grid and FFT values/proc = 2744 729
Per MPI rank memory allocation (min/avg/max) = 14.29 | 14.29 | 14.29 Mbytes
Step Temp E_pair E_mol TotEng Press 
    2000    573.32575   -170.50685    143.18649    116.23355    7.6179559 
    2034    573.32575   -180.55447    27.576568   -9.4239852    3.0903962 
Loop time of 0.0309021 on 1 procs for 34 steps with 85 atoms

103.5% CPU use with 1 MPI tasks x no OpenMP threads

Minimization stats:
  Stopping criterion = energy tolerance
  Energy initial, next-to-last, final = 
        -27.3203580232     -152.836805903     -152.977897764
  Force two-norm initial, final = 409.941 15.838
  Force max component initial, final = 102.447 3.6832
  Final line search alpha, max atom move = 0.00992411 0.0365524
  Iterations, force evaluations = 34 68

MPI task timing breakdown:
Section |  min time  |  avg time  |  max time  |%varavg| %total
---------------------------------------------------------------
Pair    | 0.0097191  | 0.0097191  | 0.0097191  |   0.0 | 31.45
Bond    | 0.0026248  | 0.0026248  | 0.0026248  |   0.0 |  8.49
Kspace  | 0.018245   | 0.018245   | 0.018245   |   0.0 | 59.04
Neigh   | 0          | 0          | 0          |   0.0 |  0.00
Comm    | 2.265e-05  | 2.265e-05  | 2.265e-05  |   0.0 |  0.07
Output  | 0          | 0          | 0          |   0.0 |  0.00
Modify  | 0          | 0          | 0          |   0.0 |  0.00
Other   |            | 0.0002904  |            |       |  0.94

Nlocal:    85 ave 85 max 85 min
Histogram: 1 0 0 0 0 0 0 0 0 0
Nghost:    0 ave 0 max 0 min
Histogram: 1 0 0 0 0 0 0 0 0 0
Neighs:    3268 ave 3268 max 3268 min
Histogram: 1 0 0 0 0 0 0 0 0 0

Total # of neighbors = 3268
Ave neighs/atom = 38.4471
Ave special neighs/atom = 9.83529
Neighbor list builds = 0
Dangerous builds = 0
write_dump all custom pysimm.dump.tmp id q x y z vx vy vz
quit


################################################################################
##################################    Init    ##################################
################################################################################
units           real
atom_style      full
pair_style      lj/cut/coul/long 12.0  12.0
kspace_style    pppm 1e-4
bond_style      harmonic
angle_style     harmonic
dihedral_style  fourier
improper_style  cvff
special_bonds   amber
pair_modify     mix arithmetic
read_data       temp.lmps
  orthogonal box = (-62.9514 -62.9514 -62.9514) to (62.9514 62.9514 62.9514)
  1 by 1 by 1 MPI processor grid
  reading atoms ...
  102 atoms
  reading velocities ...
  102 velocities
  scanning bonds ...
  4 = max bonds/atom
  scanning angles ...
  6 = max angles/atom
  scanning dihedrals ...
  10 = max dihedrals/atom
  scanning impropers ...
  1 = max impropers/atom
  reading bonds ...
  107 bonds
  reading angles ...
  183 angles
  reading dihedrals ...
  232 dihedrals
  reading impropers ...
  24 impropers
  4 = max # of 1-2 neighbors
  7 = max # of 1-3 neighbors
  17 = max # of 1-4 neighbors
  19 = max # of special neighbors
  special bonds CPU = 0.000303984 secs
  read_data CPU = 0.00727797 secs
################################################################################

timestep        1
fix             pysimm_md all nve/limit 0.1
run             2000
PPPM initialization ...
  using 12-bit tables for long-range coulomb (../kspace.cpp:332)
  G vector (1/distance) = 0.0832368
  grid = 9 9 9
  stencil order = 5
  estimated absolute RMS force accuracy = 0.0355561
  estimated relative force accuracy = 0.000107076
  using double precision KISS FFT
  3d grid and FFT values/proc = 2744 729
Neighbor list info ...
  update every 1 steps, delay 10 steps, check yes
  max neighbors/atom: 2000, page size: 100000
  master list distance cutoff = 14
  ghost atom cutoff = 14
  binsize = 7, bins = 18 18 18
  1 neighbor lists, perpetual/occasional/extra = 1 0 0
  (1) pair lj/cut/coul/long, perpetual
      attributes: half, newton on
      pair build: half/bin/newton
      stencil: half/bin/3d/newton
      bin: standard
Per MPI rank memory allocation (min/avg/max) = 13.17 | 13.17 | 13.17 Mbytes
Step Temp E_pair E_mol TotEng Press 
       0    477.60062   -214.95359    177.13383    105.96754     -4.02149 
    2000     578.6298   -216.07359    143.07544    101.20519   -6.7064858 
Loop time of 0.867451 on 1 procs for 2000 steps with 102 atoms

Performance: 199.204 ns/day, 0.120 hours/ns, 2305.606 timesteps/s
99.9% CPU use with 1 MPI tasks x no OpenMP threads

MPI task timing breakdown:
Section |  min time  |  avg time  |  max time  |%varavg| %total
---------------------------------------------------------------
Pair    | 0.22597    | 0.22597    | 0.22597    |   0.0 | 26.05
Bond    | 0.077737   | 0.077737   | 0.077737   |   0.0 |  8.96
Kspace  | 0.5463     | 0.5463     | 0.5463     |   0.0 | 62.98
Neigh   | 0.010287   | 0.010287   | 0.010287   |   0.0 |  1.19
Comm    | 0.00079846 | 0.00079846 | 0.00079846 |   0.0 |  0.09
Output  | 1.4067e-05 | 1.4067e-05 | 1.4067e-05 |   0.0 |  0.00
Modify  | 0.0037997  | 0.0037997  | 0.0037997  |   0.0 |  0.44
Other   |            | 0.002542   |            |       |  0.29

Nlocal:    102 ave 102 max 102 min
Histogram: 1 0 0 0 0 0 0 0 0 0
Nghost:    0 ave 0 max 0 min
Histogram: 1 0 0 0 0 0 0 0 0 0
Neighs:    3929 ave 3929 max 3929 min
Histogram: 1 0 0 0 0 0 0 0 0 0

Total # of neighbors = 3929
Ave neighs/atom = 38.5196
Ave special neighs/atom = 9.88235
Neighbor list builds = 68
Dangerous builds = 0
unfix pysimm_md
min_style cg
minimize 0.001 0.001 10000 100000
WARNING: Using 'neigh_modify every 1 delay 0 check yes' setting during minimization (../min.cpp:190)
PPPM initialization ...
  using 12-bit tables for long-range coulomb (../kspace.cpp:332)
  G vector (1/distance) = 0.0832368
  grid = 9 9 9
  stencil order = 5
  estimated absolute RMS force accuracy = 0.0355561
  estimated relative force accuracy = 0.000107076
  using double precision KISS FFT
  3d grid and FFT values/proc = 2744 729
Per MPI rank memory allocation (min/avg/max) = 14.29 | 14.29 | 14.29 Mbytes
Step Temp E_pair E_mol TotEng Press 
    2000     578.6298   -216.07359    143.07544    101.20519   -6.7064858 
    2023     578.6298   -221.24667    39.853558    -7.189774    1.6573657 
Loop time of 0.0439861 on 1 procs for 23 steps with 102 atoms

100.0% CPU use with 1 MPI tasks x no OpenMP threads

Minimization stats:
  Stopping criterion = linesearch alpha is zero
  Energy initial, next-to-last, final = 
        -72.9981511128     -181.393111104     -181.393111104
  Force two-norm initial, final = 392.253 28.8067
  Force max component initial, final = 87.0598 6.4204
  Final line search alpha, max atom move = 1.12986e-11 7.25415e-11
  Iterations, force evaluations = 23 103

MPI task timing breakdown:
Section |  min time  |  avg time  |  max time  |%varavg| %total
---------------------------------------------------------------
Pair    | 0.015555   | 0.015555   | 0.015555   |   0.0 | 35.36
Bond    | 0.004041   | 0.004041   | 0.004041   |   0.0 |  9.19
Kspace  | 0.024046   | 0.024046   | 0.024046   |   0.0 | 54.67
Neigh   | 0          | 0          | 0          |   0.0 |  0.00
Comm    | 2.1696e-05 | 2.1696e-05 | 2.1696e-05 |   0.0 |  0.05
Output  | 0          | 0          | 0          |   0.0 |  0.00
Modify  | 0          | 0          | 0          |   0.0 |  0.00
Other   |            | 0.0003216  |            |       |  0.73

Nlocal:    102 ave 102 max 102 min
Histogram: 1 0 0 0 0 0 0 0 0 0
Nghost:    0 ave 0 max 0 min
Histogram: 1 0 0 0 0 0 0 0 0 0
Neighs:    3932 ave 3932 max 3932 min
Histogram: 1 0 0 0 0 0 0 0 0 0

Total # of neighbors = 3932
Ave neighs/atom = 38.549
Ave special neighs/atom = 9.88235
Neighbor list builds = 0
Dangerous builds = 0
write_dump all custom pysimm.dump.tmp id q x y z vx vy vz
quit


################################################################################
##################################    Init    ##################################
################################################################################
units           real
atom_style      full
pair_style      lj/cut/coul/long 12.0  12.0
kspace_style    pppm 1e-4
bond_style      harmonic
angle_style     harmonic
dihedral_style  fourier
improper_style  cvff
special_bonds   amber
pair_modify     mix arithmetic
read_data       temp.lmps
  orthogonal box = (-62.9514 -62.9514 -62.9514) to (62.9514 62.9514 62.9514)
  1 by 1 by 1 MPI processor grid
  reading atoms ...
  119 atoms
  reading velocities ...
  119 velocities
  scanning bonds ...
  4 = max bonds/atom
  scanning angles ...
  6 = max angles/atom
  scanning dihedrals ...
  10 = max dihedrals/atom
  scanning impropers ...
  1 = max impropers/atom
  reading bonds ...
  125 bonds
  reading angles ...
  214 angles
  reading dihedrals ...
  272 dihedrals
  reading impropers ...
  28 impropers
  4 = max # of 1-2 neighbors
  7 = max # of 1-3 neighbors
  17 = max # of 1-4 neighbors
  19 = max # of special neighbors
  special bonds CPU = 0.000533819 secs
  read_data CPU = 0.00558901 secs
################################################################################

timestep        1
fix             pysimm_md all nve/limit 0.1
run             2000
PPPM initialization ...
  using 12-bit tables for long-range coulomb (../kspace.cpp:332)
  G vector (1/distance) = 0.0901932
  grid = 10 10 10
  stencil order = 5
  estimated absolute RMS force accuracy = 0.0322812
  estimated relative force accuracy = 9.72139e-05
  using double precision KISS FFT
  3d grid and FFT values/proc = 3375 1000
Neighbor list info ...
  update every 1 steps, delay 10 steps, check yes
  max neighbors/atom: 2000, page size: 100000
  master list distance cutoff = 14
  ghost atom cutoff = 14
  binsize = 7, bins = 18 18 18
  1 neighbor lists, perpetual/occasional/extra = 1 0 0
  (1) pair lj/cut/coul/long, perpetual
      attributes: half, newton on
      pair build: half/bin/newton
      stencil: half/bin/3d/newton
      bin: standard
Per MPI rank memory allocation (min/avg/max) = 13.22 | 13.22 | 13.22 Mbytes
Step Temp E_pair E_mol TotEng Press 
       0     495.9315   -255.77441    178.74876    97.411107   -5.5999222 
    2000    426.31108   -237.03364    181.93062    94.845763    13.921864 
Loop time of 1.55012 on 1 procs for 2000 steps with 119 atoms

Performance: 111.475 ns/day, 0.215 hours/ns, 1290.222 timesteps/s
100.0% CPU use with 1 MPI tasks x no OpenMP threads

MPI task timing breakdown:
Section |  min time  |  avg time  |  max time  |%varavg| %total
---------------------------------------------------------------
Pair    | 0.34647    | 0.34647    | 0.34647    |   0.0 | 22.35
Bond    | 0.13547    | 0.13547    | 0.13547    |   0.0 |  8.74
Kspace  | 1.0407     | 1.0407     | 1.0407     |   0.0 | 67.14
Neigh   | 0.015788   | 0.015788   | 0.015788   |   0.0 |  1.02
Comm    | 0.001236   | 0.001236   | 0.001236   |   0.0 |  0.08
Output  | 1.6212e-05 | 1.6212e-05 | 1.6212e-05 |   0.0 |  0.00
Modify  | 0.0063443  | 0.0063443  | 0.0063443  |   0.0 |  0.41
Other   |            | 0.004107   |            |       |  0.26

Nlocal:    119 ave 119 max 119 min
Histogram: 1 0 0 0 0 0 0 0 0 0
Nghost:    0 ave 0 max 0 min
Histogram: 1 0 0 0 0 0 0 0 0 0
Neighs:    4498 ave 4498 max 4498 min
Histogram: 1 0 0 0 0 0 0 0 0 0

Total # of neighbors = 4498
Ave neighs/atom = 37.7983
Ave special neighs/atom = 9.91597
Neighbor list builds = 63
Dangerous builds = 0
unfix pysimm_md
min_style cg
minimize 0.001 0.001 10000 100000
WARNING: Using 'neigh_modify every 1 delay 0 check yes' setting during minimization (../min.cpp:190)
PPPM initialization ...
  using 12-bit tables for long-range coulomb (../kspace.cpp:332)
  G vector (1/distance) = 0.0901932
  grid = 10 10 10
  stencil order = 5
  estimated absolute RMS force accuracy = 0.0322812
  estimated relative force accuracy = 9.72139e-05
  using double precision KISS FFT
  3d grid and FFT values/proc = 3375 1000
Per MPI rank memory allocation (min/avg/max) = 14.34 | 14.34 | 14.34 Mbytes
Step Temp E_pair E_mol TotEng Press 
    2000    426.31108   -237.03364    181.93062    94.845763    13.921864 
    2039    426.31108   -253.34946    48.894013   -54.506671    1.7212732 
Loop time of 0.0822308 on 1 procs for 39 steps with 119 atoms

99.7% CPU use with 1 MPI tasks x no OpenMP threads

Minimization stats:
  Stopping criterion = linesearch alpha is zero
  Energy initial, next-to-last, final = 
        -55.1030133045     -204.455447149     -204.455447149
  Force two-norm initial, final = 402.124 23.7144
  Force max component initial, final = 105.486 4.55805
  Final line search alpha, max atom move = 1.61194e-11 7.34731e-11
  Iterations, force evaluations = 39 133

MPI task timing breakdown:
Section |  min time  |  avg time  |  max time  |%varavg| %total
---------------------------------------------------------------
Pair    | 0.026925   | 0.026925   | 0.026925   |   0.0 | 32.74
Bond    | 0.0067847  | 0.0067847  | 0.0067847  |   0.0 |  8.25
Kspace  | 0.04776    | 0.04776    | 0.04776    |   0.0 | 58.08
Neigh   | 0.00017691 | 0.00017691 | 0.00017691 |   0.0 |  0.22
Comm    | 3.5524e-05 | 3.5524e-05 | 3.5524e-05 |   0.0 |  0.04
Output  | 0          | 0          | 0          |   0.0 |  0.00
Modify  | 0          | 0          | 0          |   0.0 |  0.00
Other   |            | 0.0005486  |            |       |  0.67

Nlocal:    119 ave 119 max 119 min
Histogram: 1 0 0 0 0 0 0 0 0 0
Nghost:    0 ave 0 max 0 min
Histogram: 1 0 0 0 0 0 0 0 0 0
Neighs:    4517 ave 4517 max 4517 min
Histogram: 1 0 0 0 0 0 0 0 0 0

Total # of neighbors = 4517
Ave neighs/atom = 37.958
Ave special neighs/atom = 9.91597
Neighbor list builds = 1
Dangerous builds = 0
write_dump all custom pysimm.dump.tmp id q x y z vx vy vz
quit


################################################################################
##################################    Init    ##################################
################################################################################
units           real
atom_style      full
pair_style      lj/cut/coul/long 12.0  12.0
kspace_style    pppm 1e-4
bond_style      harmonic
angle_style     harmonic
dihedral_style  fourier
improper_style  cvff
special_bonds   amber
pair_modify     mix arithmetic
read_data       temp.lmps
  orthogonal box = (-62.9514 -62.9514 -62.9514) to (62.9514 62.9514 62.9514)
  1 by 1 by 1 MPI processor grid
  reading atoms ...
  136 atoms
  reading velocities ...
  136 velocities
  scanning bonds ...
  4 = max bonds/atom
  scanning angles ...
  6 = max angles/atom
  scanning dihedrals ...
  10 = max dihedrals/atom
  scanning impropers ...
  1 = max impropers/atom
  reading bonds ...
  143 bonds
  reading angles ...
  245 angles
  reading dihedrals ...
  312 dihedrals
  reading impropers ...
  32 impropers
  4 = max # of 1-2 neighbors
  7 = max # of 1-3 neighbors
  17 = max # of 1-4 neighbors
  19 = max # of special neighbors
  special bonds CPU = 0.000334024 secs
  read_data CPU = 0.00790596 secs
################################################################################

timestep        1
fix             pysimm_md all nve/limit 0.1
run             2000
PPPM initialization ...
  using 12-bit tables for long-range coulomb (../kspace.cpp:332)
  G vector (1/distance) = 0.0901924
  grid = 10 10 10
  stencil order = 5
  estimated absolute RMS force accuracy = 0.0345091
  estimated relative force accuracy = 0.000103923
  using double precision KISS FFT
  3d grid and FFT values/proc = 3375 1000
Neighbor list info ...
  update every 1 steps, delay 10 steps, check yes
  max neighbors/atom: 2000, page size: 100000
  master list distance cutoff = 14
  ghost atom cutoff = 14
  binsize = 7, bins = 18 18 18
  1 neighbor lists, perpetual/occasional/extra = 1 0 0
  (1) pair lj/cut/coul/long, perpetual
      attributes: half, newton on
      pair build: half/bin/newton
      stencil: half/bin/3d/newton
      bin: standard
Per MPI rank memory allocation (min/avg/max) = 13.22 | 13.22 | 13.22 Mbytes
Step Temp E_pair E_mol TotEng Press 
       0    373.20719   -289.34013    189.82031    50.662251   -5.6703789 
    2000    425.49197   -287.76971    167.07753    50.529772   -5.7968767 
Loop time of 1.10045 on 1 procs for 2000 steps with 136 atoms

Performance: 157.027 ns/day, 0.153 hours/ns, 1817.443 timesteps/s
100.0% CPU use with 1 MPI tasks x no OpenMP threads

MPI task timing breakdown:
Section |  min time  |  avg time  |  max time  |%varavg| %total
---------------------------------------------------------------
Pair    | 0.29217    | 0.29217    | 0.29217    |   0.0 | 26.55
Bond    | 0.099289   | 0.099289   | 0.099289   |   0.0 |  9.02
Kspace  | 0.68717    | 0.68717    | 0.68717    |   0.0 | 62.44
Neigh   | 0.013653   | 0.013653   | 0.013653   |   0.0 |  1.24
Comm    | 0.00081253 | 0.00081253 | 0.00081253 |   0.0 |  0.07
Output  | 1.3113e-05 | 1.3113e-05 | 1.3113e-05 |   0.0 |  0.00
Modify  | 0.0045376  | 0.0045376  | 0.0045376  |   0.0 |  0.41
Other   |            | 0.002805   |            |       |  0.25

Nlocal:    136 ave 136 max 136 min
Histogram: 1 0 0 0 0 0 0 0 0 0
Nghost:    0 ave 0 max 0 min
Histogram: 1 0 0 0 0 0 0 0 0 0
Neighs:    6245 ave 6245 max 6245 min
Histogram: 1 0 0 0 0 0 0 0 0 0

Total # of neighbors = 6245
Ave neighs/atom = 45.9191
Ave special neighs/atom = 9.94118
Neighbor list builds = 65
Dangerous builds = 0
unfix pysimm_md
min_style cg
minimize 0.001 0.001 10000 100000
WARNING: Using 'neigh_modify every 1 delay 0 check yes' setting during minimization (../min.cpp:190)
PPPM initialization ...
  using 12-bit tables for long-range coulomb (../kspace.cpp:332)
  G vector (1/distance) = 0.0901924
  grid = 10 10 10
  stencil order = 5
  estimated absolute RMS force accuracy = 0.0345091
  estimated relative force accuracy = 0.000103923
  using double precision KISS FFT
  3d grid and FFT values/proc = 3375 1000
Per MPI rank memory allocation (min/avg/max) = 14.35 | 14.35 | 14.35 Mbytes
Step Temp E_pair E_mol TotEng Press 
    2000    425.49197   -287.76971    167.07753    50.529772   -5.7968767 
    2034    425.49197   -287.97741    48.269657   -68.485802    5.6389446 
Loop time of 0.0392079 on 1 procs for 34 steps with 136 atoms

99.5% CPU use with 1 MPI tasks x no OpenMP threads

Minimization stats:
  Stopping criterion = energy tolerance
  Energy initial, next-to-last, final = 
        -120.692178558     -239.651811383     -239.707752213
  Force two-norm initial, final = 412.734 27.9368
  Force max component initial, final = 88.9639 5.5513
  Final line search alpha, max atom move = 0.00252286 0.0140052
  Iterations, force evaluations = 34 70

MPI task timing breakdown:
Section |  min time  |  avg time  |  max time  |%varavg| %total
---------------------------------------------------------------
Pair    | 0.015136   | 0.015136   | 0.015136   |   0.0 | 38.61
Bond    | 0.0032694  | 0.0032694  | 0.0032694  |   0.0 |  8.34
Kspace  | 0.02048    | 0.02048    | 0.02048    |   0.0 | 52.23
Neigh   | 0          | 0          | 0          |   0.0 |  0.00
Comm    | 1.0729e-05 | 1.0729e-05 | 1.0729e-05 |   0.0 |  0.03
Output  | 0          | 0          | 0          |   0.0 |  0.00
Modify  | 0          | 0          | 0          |   0.0 |  0.00
Other   |            | 0.0003114  |            |       |  0.79

Nlocal:    136 ave 136 max 136 min
Histogram: 1 0 0 0 0 0 0 0 0 0
Nghost:    0 ave 0 max 0 min
Histogram: 1 0 0 0 0 0 0 0 0 0
Neighs:    6245 ave 6245 max 6245 min
Histogram: 1 0 0 0 0 0 0 0 0 0

Total # of neighbors = 6245
Ave neighs/atom = 45.9191
Ave special neighs/atom = 9.94118
Neighbor list builds = 0
Dangerous builds = 0
write_dump all custom pysimm.dump.tmp id q x y z vx vy vz
quit


################################################################################
##################################    Init    ##################################
################################################################################
units           real
atom_style      full
pair_style      lj/cut/coul/long 12.0  12.0
kspace_style    pppm 1e-4
bond_style      harmonic
angle_style     harmonic
dihedral_style  fourier
improper_style  cvff
special_bonds   amber
pair_modify     mix arithmetic
read_data       temp.lmps
  orthogonal box = (-62.9514 -62.9514 -62.9514) to (62.9514 62.9514 62.9514)
  1 by 1 by 1 MPI processor grid
  reading atoms ...
  153 atoms
  reading velocities ...
  153 velocities
  scanning bonds ...
  4 = max bonds/atom
  scanning angles ...
  6 = max angles/atom
  scanning dihedrals ...
  10 = max dihedrals/atom
  scanning impropers ...
  1 = max impropers/atom
  reading bonds ...
  161 bonds
  reading angles ...
  276 angles
  reading dihedrals ...
  352 dihedrals
  reading impropers ...
  36 impropers
  4 = max # of 1-2 neighbors
  7 = max # of 1-3 neighbors
  17 = max # of 1-4 neighbors
  19 = max # of special neighbors
  special bonds CPU = 0.000585079 secs
  read_data CPU = 0.00884914 secs
################################################################################

timestep        1
fix             pysimm_md all nve/limit 0.1
run             2000
PPPM initialization ...
  using 12-bit tables for long-range coulomb (../kspace.cpp:332)
  G vector (1/distance) = 0.102977
  grid = 12 12 12
  stencil order = 5
  estimated absolute RMS force accuracy = 0.025649
  estimated relative force accuracy = 7.72413e-05
  using double precision KISS FFT
  3d grid and FFT values/proc = 4913 1728
Neighbor list info ...
  update every 1 steps, delay 10 steps, check yes
  max neighbors/atom: 2000, page size: 100000
  master list distance cutoff = 14
  ghost atom cutoff = 14
  binsize = 7, bins = 18 18 18
  1 neighbor lists, perpetual/occasional/extra = 1 0 0
  (1) pair lj/cut/coul/long, perpetual
      attributes: half, newton on
      pair build: half/bin/newton
      stencil: half/bin/3d/newton
      bin: standard
Per MPI rank memory allocation (min/avg/max) = 13.35 | 13.35 | 13.35 Mbytes
Step Temp E_pair E_mol TotEng Press 
       0    378.41892   -325.08782    186.80697    33.174372   -1.5424602 
    2000    367.10544   -317.56061    175.79582    24.564495   -6.0671807 
Loop time of 2.02956 on 1 procs for 2000 steps with 153 atoms

Performance: 85.142 ns/day, 0.282 hours/ns, 985.437 timesteps/s
100.1% CPU use with 1 MPI tasks x no OpenMP threads

MPI task timing breakdown:
Section |  min time  |  avg time  |  max time  |%varavg| %total
---------------------------------------------------------------
Pair    | 0.46796    | 0.46796    | 0.46796    |   0.0 | 23.06
Bond    | 0.15565    | 0.15565    | 0.15565    |   0.0 |  7.67
Kspace  | 1.3716     | 1.3716     | 1.3716     |   0.0 | 67.58
Neigh   | 0.021763   | 0.021763   | 0.021763   |   0.0 |  1.07
Comm    | 0.0012932  | 0.0012932  | 0.0012932  |   0.0 |  0.06
Output  | 1.5974e-05 | 1.5974e-05 | 1.5974e-05 |   0.0 |  0.00
Modify  | 0.0069048  | 0.0069048  | 0.0069048  |   0.0 |  0.34
Other   |            | 0.004341   |            |       |  0.21

Nlocal:    153 ave 153 max 153 min
Histogram: 1 0 0 0 0 0 0 0 0 0
Nghost:    0 ave 0 max 0 min
Histogram: 1 0 0 0 0 0 0 0 0 0
Neighs:    6742 ave 6742 max 6742 min
Histogram: 1 0 0 0 0 0 0 0 0 0

Total # of neighbors = 6742
Ave neighs/atom = 44.0654
Ave special neighs/atom = 9.96078
Neighbor list builds = 65
Dangerous builds = 0
unfix pysimm_md
min_style cg
minimize 0.001 0.001 10000 100000
WARNING: Using 'neigh_modify every 1 delay 0 check yes' setting during minimization (../min.cpp:190)
PPPM initialization ...
  using 12-bit tables for long-range coulomb (../kspace.cpp:332)
  G vector (1/distance) = 0.102977
  grid = 12 12 12
  stencil order = 5
  estimated absolute RMS force accuracy = 0.025649
  estimated relative force accuracy = 7.72413e-05
  using double precision KISS FFT
  3d grid and FFT values/proc = 4913 1728
Per MPI rank memory allocation (min/avg/max) = 14.47 | 14.47 | 14.47 Mbytes
Step Temp E_pair E_mol TotEng Press 
    2000    367.10544   -317.56061    175.79582    24.564495   -6.0671807 
    2024    367.10544   -330.73349    58.096517   -106.30769     2.587127 
Loop time of 0.0924139 on 1 procs for 24 steps with 153 atoms

99.5% CPU use with 1 MPI tasks x no OpenMP threads

Minimization stats:
  Stopping criterion = linesearch alpha is zero
  Energy initial, next-to-last, final = 
         -141.76478684     -272.636976042     -272.636976042
  Force two-norm initial, final = 434.636 22.1419
  Force max component initial, final = 81.9319 3.98856
  Final line search alpha, max atom move = 1.70442e-11 6.79817e-11
  Iterations, force evaluations = 24 105

MPI task timing breakdown:
Section |  min time  |  avg time  |  max time  |%varavg| %total
---------------------------------------------------------------
Pair    | 0.029821   | 0.029821   | 0.029821   |   0.0 | 32.27
Bond    | 0.0068882  | 0.0068882  | 0.0068882  |   0.0 |  7.45
Kspace  | 0.055207   | 0.055207   | 0.055207   |   0.0 | 59.74
Neigh   | 0          | 0          | 0          |   0.0 |  0.00
Comm    | 2.7418e-05 | 2.7418e-05 | 2.7418e-05 |   0.0 |  0.03
Output  | 0          | 0          | 0          |   0.0 |  0.00
Modify  | 0          | 0          | 0          |   0.0 |  0.00
Other   |            | 0.0004699  |            |       |  0.51

Nlocal:    153 ave 153 max 153 min
Histogram: 1 0 0 0 0 0 0 0 0 0
Nghost:    0 ave 0 max 0 min
Histogram: 1 0 0 0 0 0 0 0 0 0
Neighs:    6750 ave 6750 max 6750 min
Histogram: 1 0 0 0 0 0 0 0 0 0

Total # of neighbors = 6750
Ave neighs/atom = 44.1176
Ave special neighs/atom = 9.96078
Neighbor list builds = 0
Dangerous builds = 0
write_dump all custom pysimm.dump.tmp id q x y z vx vy vz
quit


################################################################################
##################################    Init    ##################################
################################################################################
units           real
atom_style      full
pair_style      lj/cut/coul/long 12.0  12.0
kspace_style    pppm 1e-4
bond_style      harmonic
angle_style     harmonic
dihedral_style  fourier
improper_style  cvff
special_bonds   amber
pair_modify     mix arithmetic
read_data       temp.lmps
  orthogonal box = (-62.9514 -62.9514 -62.9514) to (62.9514 62.9514 62.9514)
  1 by 1 by 1 MPI processor grid
  reading atoms ...
  170 atoms
  reading velocities ...
  170 velocities
  scanning bonds ...
  4 = max bonds/atom
  scanning angles ...
  6 = max angles/atom
  scanning dihedrals ...
  10 = max dihedrals/atom
  scanning impropers ...
  1 = max impropers/atom
  reading bonds ...
  179 bonds
  reading angles ...
  307 angles
  reading dihedrals ...
  392 dihedrals
  reading impropers ...
  40 impropers
  4 = max # of 1-2 neighbors
  7 = max # of 1-3 neighbors
  17 = max # of 1-4 neighbors
  19 = max # of special neighbors
  special bonds CPU = 0.000648975 secs
  read_data CPU = 0.00960517 secs
################################################################################

timestep        1
fix             pysimm_md all nve/limit 0.1
run             2000
PPPM initialization ...
  using 12-bit tables for long-range coulomb (../kspace.cpp:332)
  G vector (1/distance) = 0.102977
  grid = 12 12 12
  stencil order = 5
  estimated absolute RMS force accuracy = 0.0270363
  estimated relative force accuracy = 8.1419e-05
  using double precision KISS FFT
  3d grid and FFT values/proc = 4913 1728
Neighbor list info ...
  update every 1 steps, delay 10 steps, check yes
  max neighbors/atom: 2000, page size: 100000
  master list distance cutoff = 14
  ghost atom cutoff = 14
  binsize = 7, bins = 18 18 18
  1 neighbor lists, perpetual/occasional/extra = 1 0 0
  (1) pair lj/cut/coul/long, perpetual
      attributes: half, newton on
      pair build: half/bin/newton
      stencil: half/bin/3d/newton
      bin: standard
Per MPI rank memory allocation (min/avg/max) = 13.35 | 13.35 | 13.35 Mbytes
Step Temp E_pair E_mol TotEng Press 
       0    330.64083   -368.41693    203.33677    1.4824441   -4.6858491 
    2000    301.71828   -348.67775    199.25587    2.5707842    12.236039 
Loop time of 2.02518 on 1 procs for 2000 steps with 170 atoms

Performance: 85.326 ns/day, 0.281 hours/ns, 987.564 timesteps/s
100.1% CPU use with 1 MPI tasks x no OpenMP threads

MPI task timing breakdown:
Section |  min time  |  avg time  |  max time  |%varavg| %total
---------------------------------------------------------------
Pair    | 0.51271    | 0.51271    | 0.51271    |   0.0 | 25.32
Bond    | 0.16509    | 0.16509    | 0.16509    |   0.0 |  8.15
Kspace  | 1.3098     | 1.3098     | 1.3098     |   0.0 | 64.68
Neigh   | 0.025286   | 0.025286   | 0.025286   |   0.0 |  1.25
Comm    | 0.0011241  | 0.0011241  | 0.0011241  |   0.0 |  0.06
Output  | 1.5974e-05 | 1.5974e-05 | 1.5974e-05 |   0.0 |  0.00
Modify  | 0.007107   | 0.007107   | 0.007107   |   0.0 |  0.35
Other   |            | 0.004018   |            |       |  0.20

Nlocal:    170 ave 170 max 170 min
Histogram: 1 0 0 0 0 0 0 0 0 0
Nghost:    0 ave 0 max 0 min
Histogram: 1 0 0 0 0 0 0 0 0 0
Neighs:    8306 ave 8306 max 8306 min
Histogram: 1 0 0 0 0 0 0 0 0 0

Total # of neighbors = 8306
Ave neighs/atom = 48.8588
Ave special neighs/atom = 9.97647
Neighbor list builds = 65
Dangerous builds = 0
unfix pysimm_md
min_style cg
minimize 0.001 0.001 10000 100000
WARNING: Using 'neigh_modify every 1 delay 0 check yes' setting during minimization (../min.cpp:190)
PPPM initialization ...
  using 12-bit tables for long-range coulomb (../kspace.cpp:332)
  G vector (1/distance) = 0.102977
  grid = 12 12 12
  stencil order = 5
  estimated absolute RMS force accuracy = 0.0270363
  estimated relative force accuracy = 8.1419e-05
  using double precision KISS FFT
  3d grid and FFT values/proc = 4913 1728
Per MPI rank memory allocation (min/avg/max) = 14.47 | 14.47 | 14.47 Mbytes
Step Temp E_pair E_mol TotEng Press 
    2000    301.71828   -348.67775    199.25587    2.5707842    12.236039 
    2033    301.71828   -361.29544    55.660298   -153.64248    3.7888105 
Loop time of 0.0625432 on 1 procs for 33 steps with 170 atoms

99.1% CPU use with 1 MPI tasks x no OpenMP threads

Minimization stats:
  Stopping criterion = energy tolerance
  Energy initial, next-to-last, final = 
        -149.421881612     -305.373804744     -305.635144258
  Force two-norm initial, final = 496.741 23.8782
  Force max component initial, final = 92.3215 3.97482
  Final line search alpha, max atom move = 0.00562609 0.0223627
  Iterations, force evaluations = 33 66

MPI task timing breakdown:
Section |  min time  |  avg time  |  max time  |%varavg| %total
---------------------------------------------------------------
Pair    | 0.021893   | 0.021893   | 0.021893   |   0.0 | 35.00
Bond    | 0.0049129  | 0.0049129  | 0.0049129  |   0.0 |  7.86
Kspace  | 0.035294   | 0.035294   | 0.035294   |   0.0 | 56.43
Neigh   | 0          | 0          | 0          |   0.0 |  0.00
Comm    | 1.7166e-05 | 1.7166e-05 | 1.7166e-05 |   0.0 |  0.03
Output  | 0          | 0          | 0          |   0.0 |  0.00
Modify  | 0          | 0          | 0          |   0.0 |  0.00
Other   |            | 0.0004265  |            |       |  0.68

Nlocal:    170 ave 170 max 170 min
Histogram: 1 0 0 0 0 0 0 0 0 0
Nghost:    0 ave 0 max 0 min
Histogram: 1 0 0 0 0 0 0 0 0 0
Neighs:    8215 ave 8215 max 8215 min
Histogram: 1 0 0 0 0 0 0 0 0 0

Total # of neighbors = 8215
Ave neighs/atom = 48.3235
Ave special neighs/atom = 9.97647
Neighbor list builds = 0
Dangerous builds = 0
write_dump all custom pysimm.dump.tmp id q x y z vx vy vz
quit


################################################################################
##################################    Init    ##################################
################################################################################
units           real
atom_style      full
pair_style      lj/cut/coul/long 12.0  12.0
kspace_style    pppm 1e-4
bond_style      harmonic
angle_style     harmonic
dihedral_style  fourier
improper_style  cvff
special_bonds   amber
pair_modify     mix arithmetic
read_data       temp.lmps
  orthogonal box = (-79.3138 -79.3138 -79.3138) to (79.3138 79.3138 79.3138)
  1 by 1 by 1 MPI processor grid
  reading atoms ...
  187 atoms
  reading velocities ...
  187 velocities
  scanning bonds ...
  4 = max bonds/atom
  scanning angles ...
  6 = max angles/atom
  scanning dihedrals ...
  10 = max dihedrals/atom
  scanning impropers ...
  1 = max impropers/atom
  reading bonds ...
  197 bonds
  reading angles ...
  338 angles
  reading dihedrals ...
  432 dihedrals
  reading impropers ...
  44 impropers
  4 = max # of 1-2 neighbors
  7 = max # of 1-3 neighbors
  17 = max # of 1-4 neighbors
  19 = max # of special neighbors
  special bonds CPU = 0.00036788 secs
  read_data CPU = 0.0087111 secs
################################################################################

timestep        1
fix             pysimm_md all nve/limit 0.1
run             2000
PPPM initialization ...
  using 12-bit tables for long-range coulomb (../kspace.cpp:332)
  G vector (1/distance) = 0.0869335
  grid = 12 12 12
  stencil order = 5
  estimated absolute RMS force accuracy = 0.0310934
  estimated relative force accuracy = 9.36368e-05
  using double precision KISS FFT
  3d grid and FFT values/proc = 4913 1728
Neighbor list info ...
  update every 1 steps, delay 10 steps, check yes
  max neighbors/atom: 2000, page size: 100000
  master list distance cutoff = 14
  ghost atom cutoff = 14
  binsize = 7, bins = 23 23 23
  1 neighbor lists, perpetual/occasional/extra = 1 0 0
  (1) pair lj/cut/coul/long, perpetual
      attributes: half, newton on
      pair build: half/bin/newton
      stencil: half/bin/3d/newton
      bin: standard
Per MPI rank memory allocation (min/avg/max) = 13.39 | 13.39 | 13.39 Mbytes
Step Temp E_pair E_mol TotEng Press 
       0    274.56278   -397.15262    19174.206    18929.279   -258.53199 
    2000    863.21802   -392.17717    388.06157    474.47894   -4.0715587 
Loop time of 1.6872 on 1 procs for 2000 steps with 187 atoms

Performance: 102.418 ns/day, 0.234 hours/ns, 1185.399 timesteps/s
100.0% CPU use with 1 MPI tasks x no OpenMP threads

MPI task timing breakdown:
Section |  min time  |  avg time  |  max time  |%varavg| %total
---------------------------------------------------------------
Pair    | 0.46763    | 0.46763    | 0.46763    |   0.0 | 27.72
Bond    | 0.13146    | 0.13146    | 0.13146    |   0.0 |  7.79
Kspace  | 1.0338     | 1.0338     | 1.0338     |   0.0 | 61.27
Neigh   | 0.044381   | 0.044381   | 0.044381   |   0.0 |  2.63
Comm    | 0.0018008  | 0.0018008  | 0.0018008  |   0.0 |  0.11
Output  | 1.3828e-05 | 1.3828e-05 | 1.3828e-05 |   0.0 |  0.00
Modify  | 0.0058277  | 0.0058277  | 0.0058277  |   0.0 |  0.35
Other   |            | 0.002334   |            |       |  0.14

Nlocal:    187 ave 187 max 187 min
Histogram: 1 0 0 0 0 0 0 0 0 0
Nghost:    31 ave 31 max 31 min
Histogram: 1 0 0 0 0 0 0 0 0 0
Neighs:    9862 ave 9862 max 9862 min
Histogram: 1 0 0 0 0 0 0 0 0 0

Total # of neighbors = 9862
Ave neighs/atom = 52.738
Ave special neighs/atom = 9.9893
Neighbor list builds = 131
Dangerous builds = 0
unfix pysimm_md
min_style cg
minimize 0.001 0.001 10000 100000
WARNING: Using 'neigh_modify every 1 delay 0 check yes' setting during minimization (../min.cpp:190)
PPPM initialization ...
  using 12-bit tables for long-range coulomb (../kspace.cpp:332)
  G vector (1/distance) = 0.0869335
  grid = 12 12 12
  stencil order = 5
  estimated absolute RMS force accuracy = 0.0310934
  estimated relative force accuracy = 9.36368e-05
  using double precision KISS FFT
  3d grid and FFT values/proc = 4913 1728
Per MPI rank memory allocation (min/avg/max) = 14.51 | 14.51 | 14.51 Mbytes
Step Temp E_pair E_mol TotEng Press 
    2000    863.21802   -392.17717    388.06157    474.47894   -4.0715587 
    2029    863.21802   -395.63202     79.55732    162.51984    4.8185245 
Loop time of 0.0489371 on 1 procs for 29 steps with 187 atoms

100.1% CPU use with 1 MPI tasks x no OpenMP threads

Minimization stats:
  Stopping criterion = energy tolerance
  Energy initial, next-to-last, final = 
        -4.11560452022     -315.762878536     -316.074704635
  Force two-norm initial, final = 682.195 35.2313
  Force max component initial, final = 137.936 6.42033
  Final line search alpha, max atom move = 0.00461698 0.0296426
  Iterations, force evaluations = 29 59

MPI task timing breakdown:
Section |  min time  |  avg time  |  max time  |%varavg| %total
---------------------------------------------------------------
Pair    | 0.018632   | 0.018632   | 0.018632   |   0.0 | 38.07
Bond    | 0.0038555  | 0.0038555  | 0.0038555  |   0.0 |  7.88
Kspace  | 0.0261     | 0.0261     | 0.0261     |   0.0 | 53.33
Neigh   | 0          | 0          | 0          |   0.0 |  0.00
Comm    | 2.3127e-05 | 2.3127e-05 | 2.3127e-05 |   0.0 |  0.05
Output  | 0          | 0          | 0          |   0.0 |  0.00
Modify  | 0          | 0          | 0          |   0.0 |  0.00
Other   |            | 0.0003266  |            |       |  0.67

Nlocal:    187 ave 187 max 187 min
Histogram: 1 0 0 0 0 0 0 0 0 0
Nghost:    30 ave 30 max 30 min
Histogram: 1 0 0 0 0 0 0 0 0 0
Neighs:    9877 ave 9877 max 9877 min
Histogram: 1 0 0 0 0 0 0 0 0 0

Total # of neighbors = 9877
Ave neighs/atom = 52.8182
Ave special neighs/atom = 9.9893
Neighbor list builds = 0
Dangerous builds = 0
write_dump all custom pysimm.dump.tmp id q x y z vx vy vz
quit


################################################################################
##################################    Init    ##################################
################################################################################
units           real
atom_style      full
pair_style      lj/cut/coul/long 12.0  12.0
kspace_style    pppm 1e-4
bond_style      harmonic
angle_style     harmonic
dihedral_style  fourier
improper_style  cvff
special_bonds   amber
pair_modify     mix arithmetic
read_data       temp.lmps
  orthogonal box = (-81.874 -81.874 -81.874) to (81.874 81.874 81.874)
  1 by 1 by 1 MPI processor grid
  reading atoms ...
  204 atoms
  reading velocities ...
  204 velocities
  scanning bonds ...
  4 = max bonds/atom
  scanning angles ...
  6 = max angles/atom
  scanning dihedrals ...
  10 = max dihedrals/atom
  scanning impropers ...
  1 = max impropers/atom
  reading bonds ...
  215 bonds
  reading angles ...
  369 angles
  reading dihedrals ...
  472 dihedrals
  reading impropers ...
  48 impropers
  4 = max # of 1-2 neighbors
  7 = max # of 1-3 neighbors
  17 = max # of 1-4 neighbors
  19 = max # of special neighbors
  special bonds CPU = 0.000396013 secs
  read_data CPU = 0.00927401 secs
################################################################################

timestep        1
fix             pysimm_md all nve/limit 0.1
run             2000
PPPM initialization ...
  using 12-bit tables for long-range coulomb (../kspace.cpp:332)
  G vector (1/distance) = 0.0848473
  grid = 12 12 12
  stencil order = 5
  estimated absolute RMS force accuracy = 0.0326045
  estimated relative force accuracy = 9.81875e-05
  using double precision KISS FFT
  3d grid and FFT values/proc = 4913 1728
Neighbor list info ...
  update every 1 steps, delay 10 steps, check yes
  max neighbors/atom: 2000, page size: 100000
  master list distance cutoff = 14
  ghost atom cutoff = 14
  binsize = 7, bins = 24 24 24
  1 neighbor lists, perpetual/occasional/extra = 1 0 0
  (1) pair lj/cut/coul/long, perpetual
      attributes: half, newton on
      pair build: half/bin/newton
      stencil: half/bin/3d/newton
      bin: standard
Per MPI rank memory allocation (min/avg/max) = 13.4 | 13.4 | 13.4 Mbytes
Step Temp E_pair E_mol TotEng Press 
       0    791.31427    -430.6769    19051.118    19099.268   -230.66801 
    2000     953.9482   -419.60768     480.4657    638.09631   -7.1256266 
Loop time of 1.67518 on 1 procs for 2000 steps with 204 atoms

Performance: 103.153 ns/day, 0.233 hours/ns, 1193.899 timesteps/s
100.0% CPU use with 1 MPI tasks x no OpenMP threads

MPI task timing breakdown:
Section |  min time  |  avg time  |  max time  |%varavg| %total
---------------------------------------------------------------
Pair    | 0.4724     | 0.4724     | 0.4724     |   0.0 | 28.20
Bond    | 0.14622    | 0.14622    | 0.14622    |   0.0 |  8.73
Kspace  | 0.99878    | 0.99878    | 0.99878    |   0.0 | 59.62
Neigh   | 0.046876   | 0.046876   | 0.046876   |   0.0 |  2.80
Comm    | 0.0017922  | 0.0017922  | 0.0017922  |   0.0 |  0.11
Output  | 1.3113e-05 | 1.3113e-05 | 1.3113e-05 |   0.0 |  0.00
Modify  | 0.0065839  | 0.0065839  | 0.0065839  |   0.0 |  0.39
Other   |            | 0.002512   |            |       |  0.15

Nlocal:    204 ave 204 max 204 min
Histogram: 1 0 0 0 0 0 0 0 0 0
Nghost:    7 ave 7 max 7 min
Histogram: 1 0 0 0 0 0 0 0 0 0
Neighs:    8893 ave 8893 max 8893 min
Histogram: 1 0 0 0 0 0 0 0 0 0

Total # of neighbors = 8893
Ave neighs/atom = 43.5931
Ave special neighs/atom = 10
Neighbor list builds = 136
Dangerous builds = 0
unfix pysimm_md
min_style cg
minimize 0.001 0.001 10000 100000
WARNING: Using 'neigh_modify every 1 delay 0 check yes' setting during minimization (../min.cpp:190)
PPPM initialization ...
  using 12-bit tables for long-range coulomb (../kspace.cpp:332)
  G vector (1/distance) = 0.0848473
  grid = 12 12 12
  stencil order = 5
  estimated absolute RMS force accuracy = 0.0326045
  estimated relative force accuracy = 9.81875e-05
  using double precision KISS FFT
  3d grid and FFT values/proc = 4913 1728
Per MPI rank memory allocation (min/avg/max) = 14.52 | 14.52 | 14.52 Mbytes
Step Temp E_pair E_mol TotEng Press 
    2000     953.9482   -419.60768     480.4657    638.09631   -7.1256266 
    2029     953.9482   -441.62917    103.35217    238.96129      4.33348 
Loop time of 0.0484259 on 1 procs for 29 steps with 204 atoms

101.2% CPU use with 1 MPI tasks x no OpenMP threads

Minimization stats:
  Stopping criterion = energy tolerance
  Energy initial, next-to-last, final = 
         60.8580193517     -338.009911276     -338.276998892
  Force two-norm initial, final = 800.338 33.8744
  Force max component initial, final = 146.807 6.555
  Final line search alpha, max atom move = 0.00709101 0.0464815
  Iterations, force evaluations = 29 58

MPI task timing breakdown:
Section |  min time  |  avg time  |  max time  |%varavg| %total
---------------------------------------------------------------
Pair    | 0.018101   | 0.018101   | 0.018101   |   0.0 | 37.38
Bond    | 0.0041711  | 0.0041711  | 0.0041711  |   0.0 |  8.61
Kspace  | 0.025798   | 0.025798   | 0.025798   |   0.0 | 53.27
Neigh   | 0          | 0          | 0          |   0.0 |  0.00
Comm    | 1.8358e-05 | 1.8358e-05 | 1.8358e-05 |   0.0 |  0.04
Output  | 0          | 0          | 0          |   0.0 |  0.00
Modify  | 0          | 0          | 0          |   0.0 |  0.00
Other   |            | 0.0003376  |            |       |  0.70

Nlocal:    204 ave 204 max 204 min
Histogram: 1 0 0 0 0 0 0 0 0 0
Nghost:    7 ave 7 max 7 min
Histogram: 1 0 0 0 0 0 0 0 0 0
Neighs:    8894 ave 8894 max 8894 min
Histogram: 1 0 0 0 0 0 0 0 0 0

Total # of neighbors = 8894
Ave neighs/atom = 43.598
Ave special neighs/atom = 10
Neighbor list builds = 0
Dangerous builds = 0
write_dump all custom pysimm.dump.tmp id q x y z vx vy vz
quit


################################################################################
##################################    Init    ##################################
################################################################################
units           real
atom_style      full
pair_style      lj/cut/coul/long 12.0  12.0
kspace_style    pppm 1e-4
bond_style      harmonic
angle_style     harmonic
dihedral_style  fourier
improper_style  cvff
special_bonds   amber
pair_modify     mix arithmetic
read_data       temp.lmps
  orthogonal box = (-62.9514 -62.9514 -62.9514) to (62.9514 62.9514 62.9514)
  1 by 1 by 1 MPI processor grid
  reading atoms ...
  34 atoms
  reading velocities ...
  34 velocities
  scanning bonds ...
  4 = max bonds/atom
  scanning angles ...
  6 = max angles/atom
  scanning dihedrals ...
  10 = max dihedrals/atom
  scanning impropers ...
  1 = max impropers/atom
  reading bonds ...
  35 bonds
  reading angles ...
  59 angles
  reading dihedrals ...
  72 dihedrals
  reading impropers ...
  8 impropers
  4 = max # of 1-2 neighbors
  7 = max # of 1-3 neighbors
  17 = max # of 1-4 neighbors
  19 = max # of special neighbors
  special bonds CPU = 0.00030303 secs
  read_data CPU = 0.00581908 secs
################################################################################

timestep        1
fix             pysimm_md all nve/limit 0.1
run             2000
PPPM initialization ...
  using 12-bit tables for long-range coulomb (../kspace.cpp:332)
  G vector (1/distance) = 0.0511455
  grid = 5 5 5
  stencil order = 5
  estimated absolute RMS force accuracy = 0.0382034
  estimated relative force accuracy = 0.000115048
  using double precision KISS FFT
  3d grid and FFT values/proc = 1000 125
Neighbor list info ...
  update every 1 steps, delay 10 steps, check yes
  max neighbors/atom: 2000, page size: 100000
  master list distance cutoff = 14
  ghost atom cutoff = 14
  binsize = 7, bins = 18 18 18
  1 neighbor lists, perpetual/occasional/extra = 1 0 0
  (1) pair lj/cut/coul/long, perpetual
      attributes: half, newton on
      pair build: half/bin/newton
      stencil: half/bin/3d/newton
      bin: standard
Per MPI rank memory allocation (min/avg/max) = 13.04 | 13.04 | 13.04 Mbytes
Step Temp E_pair E_mol TotEng Press 
       0    4.7445922   -69.611794    143.45046    74.305375   -7.0086646 
    2000     815.3794   -66.247367    67.840494    81.799334    4.0667498 
Loop time of 0.188865 on 1 procs for 2000 steps with 34 atoms

Performance: 914.940 ns/day, 0.026 hours/ns, 10589.578 timesteps/s
99.5% CPU use with 1 MPI tasks x no OpenMP threads

MPI task timing breakdown:
Section |  min time  |  avg time  |  max time  |%varavg| %total
---------------------------------------------------------------
Pair    | 0.036099   | 0.036099   | 0.036099   |   0.0 | 19.11
Bond    | 0.027318   | 0.027318   | 0.027318   |   0.0 | 14.46
Kspace  | 0.11822    | 0.11822    | 0.11822    |   0.0 | 62.59
Neigh   | 0.0026116  | 0.0026116  | 0.0026116  |   0.0 |  1.38
Comm    | 0.00068235 | 0.00068235 | 0.00068235 |   0.0 |  0.36
Output  | 1.3113e-05 | 1.3113e-05 | 1.3113e-05 |   0.0 |  0.01
Modify  | 0.0016904  | 0.0016904  | 0.0016904  |   0.0 |  0.90
Other   |            | 0.002233   |            |       |  1.18

Nlocal:    34 ave 34 max 34 min
Histogram: 1 0 0 0 0 0 0 0 0 0
Nghost:    0 ave 0 max 0 min
Histogram: 1 0 0 0 0 0 0 0 0 0
Neighs:    561 ave 561 max 561 min
Histogram: 1 0 0 0 0 0 0 0 0 0

Total # of neighbors = 561
Ave neighs/atom = 16.5
Ave special neighs/atom = 9.41176
Neighbor list builds = 72
Dangerous builds = 0
unfix pysimm_md
min_style cg
minimize 0.001 0.001 10000 100000
WARNING: Using 'neigh_modify every 1 delay 0 check yes' setting during minimization (../min.cpp:190)
PPPM initialization ...
  using 12-bit tables for long-range coulomb (../kspace.cpp:332)
  G vector (1/distance) = 0.0511455
  grid = 5 5 5
  stencil order = 5
  estimated absolute RMS force accuracy = 0.0382034
  estimated relative force accuracy = 0.000115048
  using double precision KISS FFT
  3d grid and FFT values/proc = 1000 125
Per MPI rank memory allocation (min/avg/max) = 14.17 | 14.17 | 14.17 Mbytes
Step Temp E_pair E_mol TotEng Press 
    2000     815.3794   -66.247367    67.840494    81.799334    4.0667498 
    2022     815.3794   -69.995654    8.0221317    18.232685    1.8783738 
Loop time of 0.0049789 on 1 procs for 22 steps with 34 atoms

100.4% CPU use with 1 MPI tasks x no OpenMP threads

Minimization stats:
  Stopping criterion = energy tolerance
  Energy initial, next-to-last, final = 
         1.59312718091     -61.9267702768     -61.9735223007
  Force two-norm initial, final = 271.788 8.83084
  Force max component initial, final = 75.0143 2.37961
  Final line search alpha, max atom move = 0.0194578 0.0463018
  Iterations, force evaluations = 22 45

MPI task timing breakdown:
Section |  min time  |  avg time  |  max time  |%varavg| %total
---------------------------------------------------------------
Pair    | 0.0013492  | 0.0013492  | 0.0013492  |   0.0 | 27.10
Bond    | 0.00067806 | 0.00067806 | 0.00067806 |   0.0 | 13.62
Kspace  | 0.0027976  | 0.0027976  | 0.0027976  |   0.0 | 56.19
Neigh   | 0          | 0          | 0          |   0.0 |  0.00
Comm    | 1.5736e-05 | 1.5736e-05 | 1.5736e-05 |   0.0 |  0.32
Output  | 0          | 0          | 0          |   0.0 |  0.00
Modify  | 0          | 0          | 0          |   0.0 |  0.00
Other   |            | 0.0001383  |            |       |  2.78

Nlocal:    34 ave 34 max 34 min
Histogram: 1 0 0 0 0 0 0 0 0 0
Nghost:    0 ave 0 max 0 min
Histogram: 1 0 0 0 0 0 0 0 0 0
Neighs:    561 ave 561 max 561 min
Histogram: 1 0 0 0 0 0 0 0 0 0

Total # of neighbors = 561
Ave neighs/atom = 16.5
Ave special neighs/atom = 9.41176
Neighbor list builds = 0
Dangerous builds = 0
write_dump all custom pysimm.dump.tmp id q x y z vx vy vz
quit


################################################################################
##################################    Init    ##################################
################################################################################
units           real
atom_style      full
pair_style      lj/cut/coul/long 12.0  12.0
kspace_style    pppm 1e-4
bond_style      harmonic
angle_style     harmonic
dihedral_style  fourier
improper_style  cvff
special_bonds   amber
pair_modify     mix arithmetic
read_data       temp.lmps
  orthogonal box = (-62.9514 -62.9514 -62.9514) to (62.9514 62.9514 62.9514)
  1 by 1 by 1 MPI processor grid
  reading atoms ...
  51 atoms
  reading velocities ...
  51 velocities
  scanning bonds ...
  4 = max bonds/atom
  scanning angles ...
  6 = max angles/atom
  scanning dihedrals ...
  10 = max dihedrals/atom
  scanning impropers ...
  1 = max impropers/atom
  reading bonds ...
  53 bonds
  reading angles ...
  90 angles
  reading dihedrals ...
  112 dihedrals
  reading impropers ...
  12 impropers
  4 = max # of 1-2 neighbors
  7 = max # of 1-3 neighbors
  17 = max # of 1-4 neighbors
  19 = max # of special neighbors
  special bonds CPU = 0.000302076 secs
  read_data CPU = 0.00668693 secs
################################################################################

timestep        1
fix             pysimm_md all nve/limit 0.1
run             2000
PPPM initialization ...
  using 12-bit tables for long-range coulomb (../kspace.cpp:332)
  G vector (1/distance) = 0.0758732
  grid = 8 8 8
  stencil order = 5
  estimated absolute RMS force accuracy = 0.0297619
  estimated relative force accuracy = 8.9627e-05
  using double precision KISS FFT
  3d grid and FFT values/proc = 2197 512
Neighbor list info ...
  update every 1 steps, delay 10 steps, check yes
  max neighbors/atom: 2000, page size: 100000
  master list distance cutoff = 14
  ghost atom cutoff = 14
  binsize = 7, bins = 18 18 18
  1 neighbor lists, perpetual/occasional/extra = 1 0 0
  (1) pair lj/cut/coul/long, perpetual
      attributes: half, newton on
      pair build: half/bin/newton
      stencil: half/bin/3d/newton
      bin: standard
Per MPI rank memory allocation (min/avg/max) = 13.12 | 13.12 | 13.12 Mbytes
Step Temp E_pair E_mol TotEng Press 
       0    539.71589    -108.4041    153.02491    125.06033   -5.3318427 
    2000    720.09202   -103.99019    110.56663    113.89932    2.3639635 
Loop time of 0.527266 on 1 procs for 2000 steps with 51 atoms

Performance: 327.728 ns/day, 0.073 hours/ns, 3793.152 timesteps/s
99.7% CPU use with 1 MPI tasks x no OpenMP threads

MPI task timing breakdown:
Section |  min time  |  avg time  |  max time  |%varavg| %total
---------------------------------------------------------------
Pair    | 0.088545   | 0.088545   | 0.088545   |   0.0 | 16.79
Bond    | 0.044878   | 0.044878   | 0.044878   |   0.0 |  8.51
Kspace  | 0.38287    | 0.38287    | 0.38287    |   0.0 | 72.61
Neigh   | 0.0050442  | 0.0050442  | 0.0050442  |   0.0 |  0.96
Comm    | 0.00079298 | 0.00079298 | 0.00079298 |   0.0 |  0.15
Output  | 1.502e-05  | 1.502e-05  | 1.502e-05  |   0.0 |  0.00
Modify  | 0.002635   | 0.002635   | 0.002635   |   0.0 |  0.50
Other   |            | 0.00249    |            |       |  0.47

Nlocal:    51 ave 51 max 51 min
Histogram: 1 0 0 0 0 0 0 0 0 0
Nghost:    0 ave 0 max 0 min
Histogram: 1 0 0 0 0 0 0 0 0 0
Neighs:    1271 ave 1271 max 1271 min
Histogram: 1 0 0 0 0 0 0 0 0 0

Total # of neighbors = 1271
Ave neighs/atom = 24.9216
Ave special neighs/atom = 9.64706
Neighbor list builds = 74
Dangerous builds = 0
unfix pysimm_md
min_style cg
minimize 0.001 0.001 10000 100000
WARNING: Using 'neigh_modify every 1 delay 0 check yes' setting during minimization (../min.cpp:190)
PPPM initialization ...
  using 12-bit tables for long-range coulomb (../kspace.cpp:332)
  G vector (1/distance) = 0.0758732
  grid = 8 8 8
  stencil order = 5
  estimated absolute RMS force accuracy = 0.0297619
  estimated relative force accuracy = 8.9627e-05
  using double precision KISS FFT
  3d grid and FFT values/proc = 2197 512
Per MPI rank memory allocation (min/avg/max) = 14.25 | 14.25 | 14.25 Mbytes
Step Temp E_pair E_mol TotEng Press 
    2000    720.09202   -103.99019    110.56663    113.89932    2.3639635 
    2017    720.09202   -105.98968    18.106428    19.439627    2.0159596 
Loop time of 0.0097661 on 1 procs for 17 steps with 51 atoms

102.4% CPU use with 1 MPI tasks x no OpenMP threads

Minimization stats:
  Stopping criterion = energy tolerance
  Energy initial, next-to-last, final = 
          6.5764444126     -87.8030440556     -87.8832494653
  Force two-norm initial, final = 360.712 19.4191
  Force max component initial, final = 104.973 6.29835
  Final line search alpha, max atom move = 0.00794258 0.0500252
  Iterations, force evaluations = 17 34

MPI task timing breakdown:
Section |  min time  |  avg time  |  max time  |%varavg| %total
---------------------------------------------------------------
Pair    | 0.0022576  | 0.0022576  | 0.0022576  |   0.0 | 23.12
Bond    | 0.00076771 | 0.00076771 | 0.00076771 |   0.0 |  7.86
Kspace  | 0.0066085  | 0.0066085  | 0.0066085  |   0.0 | 67.67
Neigh   | 0          | 0          | 0          |   0.0 |  0.00
Comm    | 2.1458e-06 | 2.1458e-06 | 2.1458e-06 |   0.0 |  0.02
Output  | 0          | 0          | 0          |   0.0 |  0.00
Modify  | 0          | 0          | 0          |   0.0 |  0.00
Other   |            | 0.0001302  |            |       |  1.33

Nlocal:    51 ave 51 max 51 min
Histogram: 1 0 0 0 0 0 0 0 0 0
Nghost:    0 ave 0 max 0 min
Histogram: 1 0 0 0 0 0 0 0 0 0
Neighs:    1273 ave 1273 max 1273 min
Histogram: 1 0 0 0 0 0 0 0 0 0

Total # of neighbors = 1273
Ave neighs/atom = 24.9608
Ave special neighs/atom = 9.64706
Neighbor list builds = 0
Dangerous builds = 0
write_dump all custom pysimm.dump.tmp id q x y z vx vy vz
quit


################################################################################
##################################    Init    ##################################
################################################################################
units           real
atom_style      full
pair_style      lj/cut/coul/long 12.0  12.0
kspace_style    pppm 1e-4
bond_style      harmonic
angle_style     harmonic
dihedral_style  fourier
improper_style  cvff
special_bonds   amber
pair_modify     mix arithmetic
read_data       temp.lmps
  orthogonal box = (-62.9514 -62.9514 -62.9514) to (62.9514 62.9514 62.9514)
  1 by 1 by 1 MPI processor grid
  reading atoms ...
  68 atoms
  reading velocities ...
  68 velocities
  scanning bonds ...
  4 = max bonds/atom
  scanning angles ...
  6 = max angles/atom
  scanning dihedrals ...
  10 = max dihedrals/atom
  scanning impropers ...
  1 = max impropers/atom
  reading bonds ...
  71 bonds
  reading angles ...
  121 angles
  reading dihedrals ...
  152 dihedrals
  reading impropers ...
  16 impropers
  4 = max # of 1-2 neighbors
  7 = max # of 1-3 neighbors
  17 = max # of 1-4 neighbors
  19 = max # of special neighbors
  special bonds CPU = 0.000306845 secs
  read_data CPU = 0.00697017 secs
################################################################################

timestep        1
fix             pysimm_md all nve/limit 0.1
run             2000
PPPM initialization ...
  using 12-bit tables for long-range coulomb (../kspace.cpp:332)
  G vector (1/distance) = 0.0758735
  grid = 8 8 8
  stencil order = 5
  estimated absolute RMS force accuracy = 0.0343666
  estimated relative force accuracy = 0.000103494
  using double precision KISS FFT
  3d grid and FFT values/proc = 2197 512
Neighbor list info ...
  update every 1 steps, delay 10 steps, check yes
  max neighbors/atom: 2000, page size: 100000
  master list distance cutoff = 14
  ghost atom cutoff = 14
  binsize = 7, bins = 18 18 18
  1 neighbor lists, perpetual/occasional/extra = 1 0 0
  (1) pair lj/cut/coul/long, perpetual
      attributes: half, newton on
      pair build: half/bin/newton
      stencil: half/bin/3d/newton
      bin: standard
Per MPI rank memory allocation (min/avg/max) = 13.13 | 13.13 | 13.13 Mbytes
Step Temp E_pair E_mol TotEng Press 
       0    538.55095    -141.0737    165.73042    132.21304   -5.0085291 
    2000    649.10606   -137.95213     132.2012    123.88481    4.6683466 
Loop time of 0.543299 on 1 procs for 2000 steps with 68 atoms

Performance: 318.057 ns/day, 0.075 hours/ns, 3681.214 timesteps/s
100.1% CPU use with 1 MPI tasks x no OpenMP threads

MPI task timing breakdown:
Section |  min time  |  avg time  |  max time  |%varavg| %total
---------------------------------------------------------------
Pair    | 0.11559    | 0.11559    | 0.11559    |   0.0 | 21.28
Bond    | 0.052973   | 0.052973   | 0.052973   |   0.0 |  9.75
Kspace  | 0.36222    | 0.36222    | 0.36222    |   0.0 | 66.67
Neigh   | 0.0068073  | 0.0068073  | 0.0068073  |   0.0 |  1.25
Comm    | 0.00074077 | 0.00074077 | 0.00074077 |   0.0 |  0.14
Output  | 1.502e-05  | 1.502e-05  | 1.502e-05  |   0.0 |  0.00
Modify  | 0.0026944  | 0.0026944  | 0.0026944  |   0.0 |  0.50
[...]
PPPM initialization ...
  using 12-bit tables for long-range coulomb (../kspace.cpp:332)
  G vector (1/distance) = 0.0802704
  grid = 18 18 18
  stencil order = 5
  estimated absolute RMS force accuracy = 0.0351816
  estimated relative force accuracy = 0.000105948
  using double precision KISS FFT
  3d grid and FFT values/proc = 12167 5832
Per MPI rank memory allocation (min/avg/max) = 15.42 | 15.42 | 15.42 Mbytes
Step Temp E_pair E_mol TotEng Press 
    2000    291.79588   -1790.3529    811.15334   -285.10866    1.1866738 
    2023    291.79588   -1841.5323    320.38767    -827.0537    1.7616605 
Loop time of 0.395596 on 1 procs for 23 steps with 799 atoms

99.8% CPU use with 1 MPI tasks x no OpenMP threads

Minimization stats:
  Stopping criterion = energy tolerance
  Energy initial, next-to-last, final = 
        -979.199566656     -1520.61817439     -1521.14460445
  Force two-norm initial, final = 856.556 59.6065
  Force max component initial, final = 130.45 9.95761
  Final line search alpha, max atom move = 0.0042291 0.0421117
  Iterations, force evaluations = 23 46

MPI task timing breakdown:
Section |  min time  |  avg time  |  max time  |%varavg| %total
---------------------------------------------------------------
Pair    | 0.23604    | 0.23604    | 0.23604    |   0.0 | 59.67
Bond    | 0.022771   | 0.022771   | 0.022771   |   0.0 |  5.76
Kspace  | 0.13264    | 0.13264    | 0.13264    |   0.0 | 33.53
Neigh   | 0.0026431  | 0.0026431  | 0.0026431  |   0.0 |  0.67
Comm    | 3.3855e-05 | 3.3855e-05 | 3.3855e-05 |   0.0 |  0.01
Output  | 0          | 0          | 0          |   0.0 |  0.00
Modify  | 0          | 0          | 0          |   0.0 |  0.00
Other   |            | 0.001471   |            |       |  0.37

Nlocal:    799 ave 799 max 799 min
Histogram: 1 0 0 0 0 0 0 0 0 0
Nghost:    0 ave 0 max 0 min
Histogram: 1 0 0 0 0 0 0 0 0 0
Neighs:    93512 ave 93512 max 93512 min
Histogram: 1 0 0 0 0 0 0 0 0 0

Total # of neighbors = 93512
Ave neighs/atom = 117.036
Ave special neighs/atom = 10.0876
Neighbor list builds = 1
Dangerous builds = 0
write_dump all custom pysimm.dump.tmp id q x y z vx vy vz
quit


################################################################################
##################################    Init    ##################################
################################################################################
units           real
atom_style      full
pair_style      lj/cut/coul/long 12.0  12.0
kspace_style    pppm 1e-4
bond_style      harmonic
angle_style     harmonic
dihedral_style  fourier
improper_style  cvff
special_bonds   amber
pair_modify     mix arithmetic
read_data       temp.lmps
  orthogonal box = (-132.856 -132.856 -132.856) to (132.856 132.856 132.856)
  1 by 1 by 1 MPI processor grid
  reading atoms ...
  816 atoms
  reading velocities ...
  816 velocities
  scanning bonds ...
  4 = max bonds/atom
  scanning angles ...
  6 = max angles/atom
  scanning dihedrals ...
  10 = max dihedrals/atom
  scanning impropers ...
  1 = max impropers/atom
  reading bonds ...
  863 bonds
  reading angles ...
  1485 angles
  reading dihedrals ...
  1912 dihedrals
  reading impropers ...
  192 impropers
  4 = max # of 1-2 neighbors
  7 = max # of 1-3 neighbors
  17 = max # of 1-4 neighbors
  19 = max # of special neighbors
  special bonds CPU = 0.00138807 secs
  read_data CPU = 0.0208321 secs
################################################################################

timestep        1
fix             pysimm_md all nve/limit 0.1
run             2000
PPPM initialization ...
  using 12-bit tables for long-range coulomb (../kspace.cpp:332)
  G vector (1/distance) = 0.0798226
  grid = 18 18 18
  stencil order = 5
  estimated absolute RMS force accuracy = 0.0355444
  estimated relative force accuracy = 0.000107041
  using double precision KISS FFT
  3d grid and FFT values/proc = 12167 5832
Neighbor list info ...
  update every 1 steps, delay 10 steps, check yes
  max neighbors/atom: 2000, page size: 100000
  master list distance cutoff = 14
  ghost atom cutoff = 14
  binsize = 7, bins = 38 38 38
  1 neighbor lists, perpetual/occasional/extra = 1 0 0
  (1) pair lj/cut/coul/long, perpetual
      attributes: half, newton on
      pair build: half/bin/newton
      stencil: half/bin/3d/newton
      bin: standard
Per MPI rank memory allocation (min/avg/max) = 14.3 | 14.3 | 14.3 Mbytes
Step Temp E_pair E_mol TotEng Press 
       0    285.80539   -1876.3619      19210.7    18028.662   -53.074077 
    2000    259.74583   -1829.3858    797.41612   -400.95354   0.24059414 
Loop time of 7.53349 on 1 procs for 2000 steps with 816 atoms

Performance: 22.938 ns/day, 1.046 hours/ns, 265.481 timesteps/s
100.1% CPU use with 1 MPI tasks x no OpenMP threads

MPI task timing breakdown:
Section |  min time  |  avg time  |  max time  |%varavg| %total
---------------------------------------------------------------
Pair    | 3.5286     | 3.5286     | 3.5286     |   0.0 | 46.84
Bond    | 0.50314    | 0.50314    | 0.50314    |   0.0 |  6.68
Kspace  | 3.1864     | 3.1864     | 3.1864     |   0.0 | 42.30
Neigh   | 0.28807    | 0.28807    | 0.28807    |   0.0 |  3.82
Comm    | 0.0023363  | 0.0023363  | 0.0023363  |   0.0 |  0.03
Output  | 1.502e-05  | 1.502e-05  | 1.502e-05  |   0.0 |  0.00
Modify  | 0.020278   | 0.020278   | 0.020278   |   0.0 |  0.27
Other   |            | 0.004712   |            |       |  0.06

Nlocal:    816 ave 816 max 816 min
Histogram: 1 0 0 0 0 0 0 0 0 0
Nghost:    0 ave 0 max 0 min
Histogram: 1 0 0 0 0 0 0 0 0 0
Neighs:    84823 ave 84823 max 84823 min
Histogram: 1 0 0 0 0 0 0 0 0 0

Total # of neighbors = 84823
Ave neighs/atom = 103.95
Ave special neighs/atom = 10.0882
Neighbor list builds = 133
Dangerous builds = 0
unfix pysimm_md
min_style cg
minimize 0.001 0.001 10000 100000
WARNING: Using 'neigh_modify every 1 delay 0 check yes' setting during minimization (../min.cpp:190)
PPPM initialization ...
  using 12-bit tables for long-range coulomb (../kspace.cpp:332)
  G vector (1/distance) = 0.0798226
  grid = 18 18 18
  stencil order = 5
  estimated absolute RMS force accuracy = 0.0355444
  estimated relative force accuracy = 0.000107041
  using double precision KISS FFT
  3d grid and FFT values/proc = 12167 5832
Per MPI rank memory allocation (min/avg/max) = 15.43 | 15.43 | 15.43 Mbytes
Step Temp E_pair E_mol TotEng Press 
    2000    259.74583   -1829.3858    797.41612   -400.95354   0.24059414 
    2020    259.74583   -1864.8515     314.0025   -919.83278   0.86545455 
Loop time of 0.157093 on 1 procs for 20 steps with 816 atoms

99.9% CPU use with 1 MPI tasks x no OpenMP threads

Minimization stats:
  Stopping criterion = energy tolerance
  Energy initial, next-to-last, final = 
        -1031.96971907     -1550.76909377     -1550.84896112
  Force two-norm initial, final = 875.172 51.2835
  Force max component initial, final = 149.537 8.59986
  Final line search alpha, max atom move = 0.00470118 0.0404295
  Iterations, force evaluations = 20 40

MPI task timing breakdown:
Section |  min time  |  avg time  |  max time  |%varavg| %total
---------------------------------------------------------------
Pair    | 0.091327   | 0.091327   | 0.091327   |   0.0 | 58.14
Bond    | 0.0099294  | 0.0099294  | 0.0099294  |   0.0 |  6.32
Kspace  | 0.055197   | 0.055197   | 0.055197   |   0.0 | 35.14
Neigh   | 0          | 0          | 0          |   0.0 |  0.00
Comm    | 8.8215e-06 | 8.8215e-06 | 8.8215e-06 |   0.0 |  0.01
Output  | 0          | 0          | 0          |   0.0 |  0.00
Modify  | 0          | 0          | 0          |   0.0 |  0.00
Other   |            | 0.0006304  |            |       |  0.40

Nlocal:    816 ave 816 max 816 min
Histogram: 1 0 0 0 0 0 0 0 0 0
Nghost:    0 ave 0 max 0 min
Histogram: 1 0 0 0 0 0 0 0 0 0
Neighs:    84830 ave 84830 max 84830 min
Histogram: 1 0 0 0 0 0 0 0 0 0

Total # of neighbors = 84830
Ave neighs/atom = 103.958
Ave special neighs/atom = 10.0882
Neighbor list builds = 0
Dangerous builds = 0
write_dump all custom pysimm.dump.tmp id q x y z vx vy vz
quit


################################################################################
##################################    Init    ##################################
################################################################################
units           real
atom_style      full
pair_style      lj/cut/coul/long 12.0  12.0
kspace_style    pppm 1e-4
bond_style      harmonic
angle_style     harmonic
dihedral_style  fourier
improper_style  cvff
special_bonds   amber
pair_modify     mix arithmetic
read_data       temp.lmps
  orthogonal box = (-133.792 -133.792 -133.792) to (133.792 133.792 133.792)
  1 by 1 by 1 MPI processor grid
  reading atoms ...
  833 atoms
  reading velocities ...
  833 velocities
  scanning bonds ...
  4 = max bonds/atom
  scanning angles ...
  6 = max angles/atom
  scanning dihedrals ...
  10 = max dihedrals/atom
  scanning impropers ...
  1 = max impropers/atom
  reading bonds ...
  881 bonds
  reading angles ...
  1516 angles
  reading dihedrals ...
  1952 dihedrals
  reading impropers ...
  196 impropers
  4 = max # of 1-2 neighbors
  7 = max # of 1-3 neighbors
  17 = max # of 1-4 neighbors
  19 = max # of special neighbors
  special bonds CPU = 0.00140285 secs
  read_data CPU = 0.0174959 secs
################################################################################

timestep        1
fix             pysimm_md all nve/limit 0.1
run             2000
PPPM initialization ...
  using 12-bit tables for long-range coulomb (../kspace.cpp:332)
  G vector (1/distance) = 0.0793828
  grid = 18 18 18
  stencil order = 5
  estimated absolute RMS force accuracy = 0.0358953
  estimated relative force accuracy = 0.000108098
  using double precision KISS FFT
  3d grid and FFT values/proc = 12167 5832
Neighbor list info ...
  update every 1 steps, delay 10 steps, check yes
  max neighbors/atom: 2000, page size: 100000
  master list distance cutoff = 14
  ghost atom cutoff = 14
  binsize = 7, bins = 39 39 39
  1 neighbor lists, perpetual/occasional/extra = 1 0 0
  (1) pair lj/cut/coul/long, perpetual
      attributes: half, newton on
      pair build: half/bin/newton
      stencil: half/bin/3d/newton
      bin: standard
Per MPI rank memory allocation (min/avg/max) = 14.32 | 14.32 | 14.32 Mbytes
Step Temp E_pair E_mol TotEng Press 
       0    254.53267   -1900.5077     19246.11    17976.852   -52.919004 
    2000    268.85888   -1867.9866    778.29152   -422.91595    -1.152637 
Loop time of 7.79639 on 1 procs for 2000 steps with 833 atoms

Performance: 22.164 ns/day, 1.083 hours/ns, 256.529 timesteps/s
100.0% CPU use with 1 MPI tasks x no OpenMP threads

MPI task timing breakdown:
Section |  min time  |  avg time  |  max time  |%varavg| %total
---------------------------------------------------------------
Pair    | 3.663      | 3.663      | 3.663      |   0.0 | 46.98
Bond    | 0.52056    | 0.52056    | 0.52056    |   0.0 |  6.68
Kspace  | 3.2725     | 3.2725     | 3.2725     |   0.0 | 41.97
Neigh   | 0.31237    | 0.31237    | 0.31237    |   0.0 |  4.01
Comm    | 0.0025134  | 0.0025134  | 0.0025134  |   0.0 |  0.03
Output  | 1.502e-05  | 1.502e-05  | 1.502e-05  |   0.0 |  0.00
Modify  | 0.020891   | 0.020891   | 0.020891   |   0.0 |  0.27
Other   |            | 0.004538   |            |       |  0.06

Nlocal:    833 ave 833 max 833 min
Histogram: 1 0 0 0 0 0 0 0 0 0
Nghost:    0 ave 0 max 0 min
Histogram: 1 0 0 0 0 0 0 0 0 0
Neighs:    95823 ave 95823 max 95823 min
Histogram: 1 0 0 0 0 0 0 0 0 0

Total # of neighbors = 95823
Ave neighs/atom = 115.034
Ave special neighs/atom = 10.0888
Neighbor list builds = 139
Dangerous builds = 0
unfix pysimm_md
min_style cg
minimize 0.001 0.001 10000 100000
WARNING: Using 'neigh_modify every 1 delay 0 check yes' setting during minimization (../min.cpp:190)
PPPM initialization ...
  using 12-bit tables for long-range coulomb (../kspace.cpp:332)
  G vector (1/distance) = 0.0793828
  grid = 18 18 18
  stencil order = 5
  estimated absolute RMS force accuracy = 0.0358953
  estimated relative force accuracy = 0.000108098
  using double precision KISS FFT
  3d grid and FFT values/proc = 12167 5832
Per MPI rank memory allocation (min/avg/max) = 15.83 | 15.83 | 15.83 Mbytes
Step Temp E_pair E_mol TotEng Press 
    2000    268.85888   -1867.9866    778.29152   -422.91595    -1.152637 
    2013    268.85888   -1888.2998    346.28253   -875.23811    1.3173833 
Loop time of 0.11082 on 1 procs for 13 steps with 833 atoms

100.1% CPU use with 1 MPI tasks x no OpenMP threads

Minimization stats:
  Stopping criterion = energy tolerance
  Energy initial, next-to-last, final = 
        -1089.69511229     -1540.56303889     -1542.01727611
  Force two-norm initial, final = 825.741 88.6872
  Force max component initial, final = 126.127 13.3724
  Final line search alpha, max atom move = 0.00358459 0.0479344
  Iterations, force evaluations = 13 26

MPI task timing breakdown:
Section |  min time  |  avg time  |  max time  |%varavg| %total
---------------------------------------------------------------
Pair    | 0.066774   | 0.066774   | 0.066774   |   0.0 | 60.25
Bond    | 0.0067101  | 0.0067101  | 0.0067101  |   0.0 |  6.05
Kspace  | 0.036908   | 0.036908   | 0.036908   |   0.0 | 33.30
Neigh   | 0          | 0          | 0          |   0.0 |  0.00
Comm    | 7.1526e-06 | 7.1526e-06 | 7.1526e-06 |   0.0 |  0.01
Output  | 0          | 0          | 0          |   0.0 |  0.00
Modify  | 0          | 0          | 0          |   0.0 |  0.00
Other   |            | 0.0004203  |            |       |  0.38

Nlocal:    833 ave 833 max 833 min
Histogram: 1 0 0 0 0 0 0 0 0 0
Nghost:    0 ave 0 max 0 min
Histogram: 1 0 0 0 0 0 0 0 0 0
Neighs:    95823 ave 95823 max 95823 min
Histogram: 1 0 0 0 0 0 0 0 0 0

Total # of neighbors = 95823
Ave neighs/atom = 115.034
Ave special neighs/atom = 10.0888
Neighbor list builds = 0
Dangerous builds = 0
write_dump all custom pysimm.dump.tmp id q x y z vx vy vz
quit


################################################################################
##################################    Init    ##################################
################################################################################
units           real
atom_style      full
pair_style      lj/cut/coul/long 12.0  12.0
kspace_style    pppm 1e-4
bond_style      harmonic
angle_style     harmonic
dihedral_style  fourier
improper_style  cvff
special_bonds   amber
pair_modify     mix arithmetic
read_data       temp.lmps
  orthogonal box = (-134.714 -134.714 -134.714) to (134.714 134.714 134.714)
  1 by 1 by 1 MPI processor grid
  reading atoms ...
  850 atoms
  reading velocities ...
  850 velocities
  scanning bonds ...
  4 = max bonds/atom
  scanning angles ...
  6 = max angles/atom
  scanning dihedrals ...
  10 = max dihedrals/atom
  scanning impropers ...
  1 = max impropers/atom
  reading bonds ...
  899 bonds
  reading angles ...
  1547 angles
  reading dihedrals ...
  1992 dihedrals
  reading impropers ...
  200 impropers
  4 = max # of 1-2 neighbors
  7 = max # of 1-3 neighbors
  17 = max # of 1-4 neighbors
  19 = max # of special neighbors
  special bonds CPU = 0.00147486 secs
  read_data CPU = 0.02141 secs
################################################################################

timestep        1
fix             pysimm_md all nve/limit 0.1
run             2000
PPPM initialization ...
  using 12-bit tables for long-range coulomb (../kspace.cpp:332)
  G vector (1/distance) = 0.0789538
  grid = 18 18 18
  stencil order = 5
  estimated absolute RMS force accuracy = 0.0362394
  estimated relative force accuracy = 0.000109134
  using double precision KISS FFT
  3d grid and FFT values/proc = 12167 5832
Neighbor list info ...
  update every 1 steps, delay 10 steps, check yes
  max neighbors/atom: 2000, page size: 100000
  master list distance cutoff = 14
  ghost atom cutoff = 14
  binsize = 7, bins = 39 39 39
  1 neighbor lists, perpetual/occasional/extra = 1 0 0
  (1) pair lj/cut/coul/long, perpetual
      attributes: half, newton on
      pair build: half/bin/newton
      stencil: half/bin/3d/newton
      bin: standard
Per MPI rank memory allocation (min/avg/max) = 14.71 | 14.71 | 14.71 Mbytes
Step Temp E_pair E_mol TotEng Press 
       0    263.56759     33605673    18841.067     33625181    471275.39 
    2000     328.5532    -1886.982     937.2119   -118.29793   0.31329248 
Loop time of 7.93547 on 1 procs for 2000 steps with 850 atoms

Performance: 21.776 ns/day, 1.102 hours/ns, 252.033 timesteps/s
99.9% CPU use with 1 MPI tasks x no OpenMP threads

MPI task timing breakdown:
Section |  min time  |  avg time  |  max time  |%varavg| %total
---------------------------------------------------------------
Pair    | 3.8772     | 3.8772     | 3.8772     |   0.0 | 48.86
Bond    | 0.52481    | 0.52481    | 0.52481    |   0.0 |  6.61
Kspace  | 3.1747     | 3.1747     | 3.1747     |   0.0 | 40.01
Neigh   | 0.32988    | 0.32988    | 0.32988    |   0.0 |  4.16
Comm    | 0.0024011  | 0.0024011  | 0.0024011  |   0.0 |  0.03
Output  | 2.0981e-05 | 2.0981e-05 | 2.0981e-05 |   0.0 |  0.00
Modify  | 0.021932   | 0.021932   | 0.021932   |   0.0 |  0.28
Other   |            | 0.004611   |            |       |  0.06

Nlocal:    850 ave 850 max 850 min
Histogram: 1 0 0 0 0 0 0 0 0 0
Nghost:    0 ave 0 max 0 min
Histogram: 1 0 0 0 0 0 0 0 0 0
Neighs:    94412 ave 94412 max 94412 min
Histogram: 1 0 0 0 0 0 0 0 0 0

Total # of neighbors = 94412
Ave neighs/atom = 111.073
Ave special neighs/atom = 10.0894
Neighbor list builds = 139
Dangerous builds = 0
unfix pysimm_md
min_style cg
minimize 0.001 0.001 10000 100000
WARNING: Using 'neigh_modify every 1 delay 0 check yes' setting during minimization (../min.cpp:190)
PPPM initialization ...
  using 12-bit tables for long-range coulomb (../kspace.cpp:332)
  G vector (1/distance) = 0.0789538
  grid = 18 18 18
  stencil order = 5
  estimated absolute RMS force accuracy = 0.0362394
  estimated relative force accuracy = 0.000109134
  using double precision KISS FFT
  3d grid and FFT values/proc = 12167 5832
Per MPI rank memory allocation (min/avg/max) = 15.83 | 15.83 | 15.83 Mbytes
Step Temp E_pair E_mol TotEng Press 
    2000     328.5532    -1886.982     937.2119   -118.29793   0.31329248 
    2021     328.5532   -1932.9411    357.25543    -744.2135    1.4481523 
Loop time of 0.33959 on 1 procs for 21 steps with 850 atoms

99.8% CPU use with 1 MPI tasks x no OpenMP threads

Minimization stats:
  Stopping criterion = energy tolerance
  Energy initial, next-to-last, final = 
        -949.770053651     -1574.60892063     -1575.68562522
  Force two-norm initial, final = 938.531 76.8835
  Force max component initial, final = 134.768 15.9437
  Final line search alpha, max atom move = 0.00342779 0.0546517
  Iterations, force evaluations = 21 42

MPI task timing breakdown:
Section |  min time  |  avg time  |  max time  |%varavg| %total
---------------------------------------------------------------
Pair    | 0.20447    | 0.20447    | 0.20447    |   0.0 | 60.21
Bond    | 0.02056    | 0.02056    | 0.02056    |   0.0 |  6.05
Kspace  | 0.11321    | 0.11321    | 0.11321    |   0.0 | 33.34
Neigh   | 0          | 0          | 0          |   0.0 |  0.00
Comm    | 1.955e-05  | 1.955e-05  | 1.955e-05  |   0.0 |  0.01
Output  | 0          | 0          | 0          |   0.0 |  0.00
Modify  | 0          | 0          | 0          |   0.0 |  0.00
Other   |            | 0.001332   |            |       |  0.39

Nlocal:    850 ave 850 max 850 min
Histogram: 1 0 0 0 0 0 0 0 0 0
Nghost:    0 ave 0 max 0 min
Histogram: 1 0 0 0 0 0 0 0 0 0
Neighs:    94380 ave 94380 max 94380 min
Histogram: 1 0 0 0 0 0 0 0 0 0

Total # of neighbors = 94380
Ave neighs/atom = 111.035
Ave special neighs/atom = 10.0894
Neighbor list builds = 0
Dangerous builds = 0
write_dump all custom pysimm.dump.tmp id q x y z vx vy vz
quit
