
Host: node19

Timers On : Wed Jan 18 10:51:17 2023
Timers Off: Wed Jan 18 10:51:36 2023

Wall Time:       19.43 seconds

                                                       Time (seconds)
Module                                       User      System        Wall        Calls

--------------------------------------------------------------------------------------

**************************************************************************************

Host: node19

Timers On : Wed Jan 18 10:56:01 2023
Timers Off: Wed Jan 18 10:56:34 2023

Wall Time:       32.53 seconds

                                                       Time (seconds)
Module                                       User      System        Wall        Calls

--------------------------------------------------------------------------------------

**************************************************************************************

Host: node19

Timers On : Wed Jan 18 11:03:48 2023
Timers Off: Wed Jan 18 11:04:09 2023

Wall Time:       21.08 seconds

                                                       Time (seconds)
Module                                       User      System        Wall        Calls

--------------------------------------------------------------------------------------

**************************************************************************************

Host: node19

Timers On : Wed Jan 18 11:14:41 2023
Timers Off: Wed Jan 18 11:14:57 2023

Wall Time:       15.99 seconds

                                                       Time (seconds)
Module                                       User      System        Wall        Calls

--------------------------------------------------------------------------------------

**************************************************************************************

Host: node19

Timers On : Wed Jan 18 11:16:36 2023
Timers Off: Wed Jan 18 11:19:17 2023

Wall Time:      161.56 seconds

                                                       Time (seconds)
Module                                       User      System        Wall        Calls

--------------------------------------------------------------------------------------

**************************************************************************************

Host: node19

Timers On : Wed Jan 18 11:19:36 2023
Timers Off: Wed Jan 18 11:19:39 2023

Wall Time:        3.10 seconds

                                                       Time (seconds)
Module                                       User      System        Wall        Calls

--------------------------------------------------------------------------------------

**************************************************************************************

Host: node19

Timers On : Wed Jan 18 11:20:47 2023
Timers Off: Wed Jan 18 11:22:30 2023

Wall Time:      103.15 seconds

                                                       Time (seconds)
Module                                       User      System        Wall        Calls

--------------------------------------------------------------------------------------

**************************************************************************************

Host: node19

Timers On : Wed Jan 18 11:24:30 2023
Timers Off: Wed Jan 18 11:26:45 2023

Wall Time:      135.32 seconds

                                                       Time (seconds)
Module                                       User      System        Wall        Calls

--------------------------------------------------------------------------------------

**************************************************************************************

Host: node19

Timers On : Wed Jan 18 11:27:14 2023
Timers Off: Wed Jan 18 11:32:22 2023

Wall Time:      307.38 seconds

                                                       Time (seconds)
Module                                       User      System        Wall        Calls

--------------------------------------------------------------------------------------

**************************************************************************************
