pySIMM System Object

2170 atoms
2380 bonds
4141 angles
6318 dihedrals
692 impropers

10 atom types
12 bond types
21 angle types
8 dihedral types
4 improper types

-168.696252 168.696252 xlo xhi
-168.696252 168.696252 ylo yhi
-168.696252 168.696252 zlo zhi

Masses

   1	14.01	# n
   2	12.01	# c
   3	12.01	# ca
   4	1.008	# hn
   5	16.0	# o
   6	1.008	# ha
   7	12.01	# c3
   8	19.0	# f
   9	16.0	# os
  10	1.008	# hc

Pair Coeffs

   1	0.17	3.249998523775958	# n
   2	0.086	3.3996695084235347	# c
   3	0.086	3.3996695084235347	# ca
   4	0.0157	1.069078461768407	# hn
   5	0.21	2.959921901149463	# o
   6	0.015	2.59964245953351	# ha
   7	0.1094	3.3996695084235347	# c3
   8	0.061	3.1181455134911875	# f
   9	0.17	3.0000123434657784	# os
  10	0.0157	2.649532787749369	# hc

Bond Coeffs

   1	345.8	1.086	# ca,ha
   2	427.6	1.3789	# c,n
   3	637.7	1.2183	# c,o
   4	321.0	1.5156	# c3,ca
   5	300.9	1.5375	# c3,c3
   6	384.2	1.4121	# ca,n
   7	376.6	1.3696	# ca,os
   8	403.2	1.0129	# hn,n
   9	356.9	1.3497	# c3,f
  10	461.1	1.3984	# ca,ca
  11	345.9	1.4906	# c,ca
  12	330.6	1.0969	# c3,hc

Angle Coeffs

   1	48.33	117.55	# c,n,hn
   2	74.22	123.05	# n,c,o
   3	64.28	120.33	# c,ca,ca
   4	66.11	109.24	# c3,c3,f
   5	63.48	119.89	# ca,os,ca
   6	63.53	120.77	# c3,ca,ca
   7	66.62	120.02	# ca,ca,ca
   8	63.15	112.07	# c3,c3,ca
   9	63.82	123.71	# c,n,ca
  10	62.86	111.51	# c3,c3,c3
  11	70.89	107.36	# f,c3,f
  12	67.87	120.19	# ca,ca,n
  13	63.74	127.08	# c,n,c
  14	48.18	119.88	# ca,ca,ha
  15	68.72	122.6	# ca,c,o
  16	63.56	112.24	# ca,c3,ca
  17	69.58	119.2	# ca,ca,os
  18	67.68	115.25	# ca,c,n
  19	49.75	116.02	# ha,ca,n
  20	39.4	107.58	# hc,c3,hc
  21	46.8	110.47	# ca,c3,hc

Dihedral Coeffs

   1	2	2.5	2	180	2.0	1	0	# hn,n,c,o
   2	1	3.625	2	180	# X,ca,ca,X
   3	1	1.0	2	180	# X,c,ca,X
   4	1	0.15555555555555556	3	0	# X,c3,c3,X
   5	1	0.0	2	0	# X,c3,ca,X
   6	1	0.9	2	180	# X,ca,os,X
   7	1	2.5	2	180	# X,c,n,X
   8	1	0.45	2	180	# X,ca,n,X

Improper Coeffs

   1	10.5	-1	2	# c,X,X,o
   2	1.1	-1	2	# ca,X,X,ha
   3	1.1	-1	2	# ca,ca,ca,c3
   4	1.1	-1	2	# n,X,X,hn

Atoms

   1	1	1	0.48116	47.2886	9.00688	-93.4556
   2	1	2	0.034009	48.3287	8.3212	-94.1059
   3	1	3	0.028921	47.6958	7.11328	-94.6992
   4	1	2	0.071556	46.0606	8.35136	-93.5916
   5	1	3	0.025276	46.3545	7.13511	-94.3831
   6	1	5	-0.381907	49.5191	8.59091	-94.1378
   7	1	5	-0.393799	44.9725	8.65489	-93.1279
   8	1	3	-0.008998	48.2654	6.04899	-95.4135
   9	1	3	-0.064503	45.5078	6.08829	-94.7403
  10	1	3	-0.16756	46.0621	5.00031	-95.4395
  11	1	3	-0.085161	47.4372	4.96364	-95.8128
  12	1	6	0.158939	49.3332	6.06711	-95.6104
  13	1	6	0.163781	44.4621	6.10761	-94.4541
  14	1	6	0.161401	45.4023	4.16875	-95.6658
  15	1	7	-0.078003	48.0162	3.70309	-96.5245
  16	1	7	0.303704	49.1682	4.0565	-97.5499
  17	1	8	-0.1084	50.3616	4.32834	-96.974
  18	1	8	-0.101508	48.8657	5.141	-98.2986
  19	1	8	-0.111714	49.3889	3.038	-98.4123
  20	1	7	0.380371	48.6019	2.79224	-95.3794
  21	1	8	-0.124028	49.1818	1.67124	-95.8622
  22	1	8	-0.119704	47.6439	2.42234	-94.4993
  23	1	8	-0.115877	49.5359	3.42847	-94.6346
  24	1	3	-0.024709	46.8664	3.01017	-97.334
  25	1	3	-0.076489	46.4095	1.68411	-97.08
  26	1	3	-0.052344	45.2841	1.20307	-97.7655
  27	1	3	-0.054202	46.1762	3.76841	-98.3235
  28	1	3	-0.149083	45.0575	3.2594	-99.0141
  29	1	3	-0.063027	44.6179	1.97091	-98.694
  30	1	2	0.499526	43.411	1.22636	-99.1414
  31	1	1	-0.036881	43.4117	0.0309894	-98.4278
  32	1	2	0.443545	44.5312	-0.0722834	-97.6016
  33	1	3	0.038197	42.3512	-0.928306	-98.4815
  34	1	3	-0.408621	41.7216	-1.24526	-99.7017
  35	1	3	0.252781	40.6499	-2.15314	-99.7413
  36	1	3	-0.169778	41.8815	-1.54503	-97.3026
  37	1	3	-0.113042	40.8124	-2.45807	-97.3395
  38	1	3	0.016958	40.1959	-2.76881	-98.56
  39	1	6	0.167832	44.5168	3.86444	-99.7365
  40	1	6	0.134138	46.4743	4.79456	-98.5271
  41	1	6	0.145229	46.8622	1.03542	-96.3392
  42	1	5	-0.462312	44.8307	-0.979777	-96.8442
  43	1	5	-0.483102	42.5655	1.64892	-99.9127
  44	1	6	0.144532	40.4594	-2.92867	-96.4241
  45	1	6	0.226042	42.0382	-0.773861	-100.629
  46	1	3	0.12103	38.7235	-4.28765	-99.7179
  47	1	3	-0.09864	39.563	-5.21164	-100.361
  48	1	3	-0.194398	39.1428	-5.83256	-101.551
  49	1	3	-0.091961	37.8816	-5.52869	-102.094
  50	1	3	-0.197799	37.0382	-4.61062	-101.444
  51	1	3	-0.102777	37.4601	-3.99316	-100.252
  52	1	6	0.132074	37.5557	-6.00954	-103.014
  53	1	6	0.154044	36.0613	-4.37857	-101.859
  54	1	6	0.145155	40.5375	-5.4379	-99.9371
  55	1	6	0.14558	36.8179	-3.28031	-99.7452
  56	1	9	-0.24014	39.1402	-3.65543	-98.5713
  57	1	6	0.152938	42.3408	-1.31481	-96.3421
  58	1	6	0.151751	39.7928	-6.54483	-102.052
  59	1	1	0.48116	40.659	25.7813	-100.069
  60	1	2	0.034009	39.6466	24.85	-100.303
  61	1	3	0.028921	40.1143	23.5984	-99.648
  62	1	2	0.071556	41.7328	25.2462	-99.3643
  63	1	3	0.025276	41.3556	23.8381	-99.0956
  64	1	5	-0.381907	38.5871	25.0169	-100.883
  65	1	5	-0.393799	42.7606	25.8021	-99.0163
  66	1	3	-0.008998	39.4729	22.3623	-99.4964
  67	1	3	-0.064503	42.0286	22.8594	-98.3652
  68	1	3	-0.16756	41.3968	21.6129	-98.1902
  69	1	3	-0.085161	40.1204	21.3335	-98.7538
  70	1	6	0.158939	38.4825	22.2454	-99.9217
  71	1	6	0.163781	42.9963	23.0776	-97.9145
  72	1	6	0.161401	41.8991	20.8672	-97.5775
  73	1	7	-0.078003	39.4366	19.9658	-98.4439
  74	1	7	0.303704	38.6922	20.1536	-97.0673
  75	1	8	-0.1084	39.5598	20.3539	-96.0494
  76	1	8	-0.101508	37.9149	19.0983	-96.7381
  77	1	8	-0.111714	37.8824	21.237	-97.0776
  78	1	7	0.380371	38.3906	19.5372	-99.5451
  79	1	8	-0.124028	37.2408	20.2464	-99.5047
  80	1	8	-0.119704	38.8912	19.6853	-100.793
  81	1	8	-0.115877	38.0418	18.2362	-99.422
  82	1	3	-0.024709	40.5302	18.8511	-98.4134
  83	1	3	-0.076489	40.6736	17.9121	-97.3518
  84	1	3	-0.052344	41.7191	16.9761	-97.4072
  85	1	3	-0.054202	41.4401	18.7743	-99.5058
  86	1	3	-0.149083	42.473	17.8207	-99.548
  87	1	3	-0.063027	42.5896	16.9332	-98.4752
  88	1	2	0.499526	43.6069	15.8839	-98.2135
  89	1	1	-0.036881	43.3056	15.3641	-96.9584
  90	1	2	0.443545	42.1601	15.9487	-96.4178
  91	1	3	0.038197	44.1195	14.3946	-96.294
  92	1	3	-0.408621	45.5245	14.4912	-96.3576
  93	1	3	0.252781	46.3382	13.5336	-95.7357
  94	1	3	-0.169778	43.5466	13.3194	-95.5848
  95	1	3	-0.113042	44.3601	12.3584	-94.9539
  96	1	3	0.016958	45.7598	12.4782	-95.015
  97	1	6	0.167832	43.1765	17.7796	-100.382
  98	1	6	0.134138	41.3585	19.48	-100.329
  99	1	6	0.145229	40.0243	17.9042	-96.4818
 100	1	5	-0.462312	41.6404	15.733	-95.3365
 101	1	5	-0.483102	44.5356	15.6048	-98.9532
 102	1	6	0.144532	43.9103	11.5256	-94.4154
 103	1	6	0.226042	46.0026	15.2955	-96.9086
 104	1	3	0.12103	46.5985	11.244	-93.0694
 105	1	3	-0.09864	45.8697	12.0018	-92.1296
 106	1	3	-0.194398	45.9397	11.6889	-90.764
 107	1	3	-0.091961	46.7556	10.6331	-90.3374
 108	1	3	-0.197799	47.501	9.90209	-91.2744
 109	1	3	-0.102777	47.4435	10.1895	-92.6592
 110	1	6	0.132074	46.8113	10.3831	-89.2813
 111	1	6	0.154044	48.1319	9.0861	-90.9215
 112	1	6	0.145155	45.2494	12.8322	-92.4508
 113	1	6	0.14558	48.4422	10.4212	-93.0102
 114	1	9	-0.24014	46.5817	11.5506	-94.4161
 115	1	6	0.152938	42.4645	13.2215	-95.5247
 116	1	6	0.151751	45.3673	12.2637	-90.0418
 117	1	3	-0.004194	36.0942	33.6116	-92.6244
 118	1	3	-0.097141	36.9058	32.9983	-93.6148
 119	1	3	-0.172015	36.6346	31.644	-93.9673
 120	1	5	-0.377994	34.0028	34.3274	-90.4344
 121	1	3	0.033493	35.0365	32.8785	-92.0723
 122	1	3	-0.063739	35.5533	30.9305	-93.4145
 123	1	5	-0.398381	33.044	30.0077	-91.837
 124	1	3	0.032144	34.7623	31.5853	-92.4702
 125	1	2	0.032313	34.0539	33.2633	-91.0278
 126	1	1	0.461698	33.2217	32.1535	-90.8887
 127	1	2	0.091945	33.5773	31.0987	-91.7236
 128	1	3	-0.10563	37.1131	32.7677	-97.8946
 129	1	7	-0.099376	38.1176	33.727	-94.2606
 130	1	3	-0.043296	38.2402	33.2072	-95.7287
 131	1	3	-0.073043	37.1197	33.3274	-96.6011
 132	1	3	-0.117827	38.2417	32.05	-98.3006
 133	1	3	-0.037562	39.3826	32.513	-96.2064
 134	1	3	-0.083705	39.3372	31.9263	-97.474
 135	1	7	0.396	39.3659	33.3924	-93.3523
 136	1	7	0.310495	37.9405	35.2959	-94.3418
 137	1	8	-0.130298	40.4928	34.0137	-93.7664
 138	1	8	-0.128745	39.62	32.0643	-93.3082
 139	1	8	-0.120019	39.1693	33.7516	-92.063
 140	1	8	-0.104287	38.8217	35.8418	-95.2096
 141	1	8	-0.095507	38.1222	35.9322	-93.1637
 142	1	8	-0.104872	36.7061	35.6473	-94.769
 143	1	2	0.456145	40.2906	30.9779	-98.1012
 144	1	2	0.550902	38.4696	31.2024	-99.5026
 145	1	1	0.015704	39.6807	30.5577	-99.2771
 146	1	5	-0.456801	41.3259	30.5736	-97.6002
 147	1	5	-0.487703	37.7006	31.0575	-100.438
 148	1	3	-0.116566	40.1898	29.5099	-100.105
 149	1	3	-0.050109	40.0774	28.1569	-99.6942
 150	1	3	0.154929	40.6327	27.1335	-100.509
 151	1	3	0.041555	40.8213	29.8297	-101.326
 152	1	3	-0.223109	41.3276	28.8035	-102.138
 153	1	3	-0.080449	41.2399	27.4608	-101.742
 154	1	7	-0.108008	40.9598	31.2721	-101.798
 155	1	7	-0.182228	41.8047	26.3846	-102.665
 156	1	7	-0.345523	39.3781	27.8241	-98.3678
 157	1	6	0.155183	36.2684	34.6216	-92.2691
 158	1	6	0.172904	37.2691	31.1232	-94.678
 159	1	6	0.158028	35.3444	29.9022	-93.6962
 160	1	6	0.153129	36.2337	32.8307	-98.5346
 161	1	6	0.142914	36.21	33.8119	-96.254
 162	1	6	0.135531	40.2705	32.3502	-95.6052
 163	1	6	0.17765	41.8002	29.0576	-103.083
 164	1	10	0.046541	39.9909	31.6725	-102.115
 165	1	10	0.045238	41.647	31.3569	-102.65
 166	1	10	0.051941	41.3539	31.9175	-101.002
 167	1	10	0.087961	42.139	26.8056	-103.622
 168	1	10	0.066782	41.0483	25.6233	-102.899
 169	1	10	0.075908	42.6695	25.8848	-102.211
 170	1	10	0.105172	38.5072	28.4677	-98.1943
 171	1	10	0.115625	40.0689	27.9587	-97.5241
 172	1	10	0.140296	38.9933	26.798	-98.3237
 173	1	3	-0.004194	27.1044	28.0644	-81.9213
 174	1	3	-0.097141	28.0323	27.064	-81.5287
 175	1	3	-0.172015	28.0626	26.672	-80.1587
 176	1	5	-0.377994	24.8505	30.1623	-82.1642
 177	1	3	0.033493	26.2615	28.6265	-80.9602
 178	1	3	-0.063739	27.2173	27.272	-79.2009
 179	1	5	-0.398381	25.0635	28.917	-77.6854
 180	1	3	0.032144	26.3229	28.2513	-79.6357
 181	1	2	0.032313	25.1815	29.6286	-81.1173
 182	1	1	0.461698	24.6369	29.792	-79.837
 183	1	2	0.091945	25.2902	29.0058	-78.8826
 184	1	3	-0.10563	30.7536	29.8165	-83.2814
 185	1	7	-0.099376	28.9518	26.44	-82.6204
 186	1	3	-0.043296	29.6051	27.622	-83.3945
 187	1	3	-0.073043	30.1683	28.7005	-82.6517
 188	1	3	-0.117827	30.7746	29.8373	-84.6793
 189	1	3	-0.037562	29.6693	27.6762	-84.8126
 190	1	3	-0.083705	30.2517	28.7951	-85.4173
 191	1	7	0.396	28.0354	25.5158	-83.5182
 192	1	7	0.310495	30.1373	25.5709	-82.0451
 193	1	8	-0.130298	28.7323	24.7775	-84.4126
 194	1	8	-0.128745	27.1246	26.2253	-84.2242
 195	1	8	-0.120019	27.3227	24.6461	-82.7653
 196	1	8	-0.104287	29.7258	24.4127	-81.4801
 197	1	8	-0.095507	30.8503	26.2344	-81.1065
 198	1	8	-0.104872	31.0208	25.2377	-83.0126
 199	1	2	0.456145	30.3609	29.1465	-86.857
 200	1	2	0.550902	31.2339	30.8908	-85.6224
 201	1	1	0.015704	30.9087	30.4221	-86.8873
 202	1	5	-0.456801	29.9541	28.4801	-87.7917
 203	1	5	-0.487703	31.7246	31.9659	-85.3222
 204	1	3	-0.116566	30.9478	31.2307	-88.0577
 205	1	3	-0.050109	32.1183	31.3186	-88.8442
 206	1	3	0.154929	32.096	32.1052	-90.0265
 207	1	3	0.041555	29.7819	31.9386	-88.4217
 208	1	3	-0.223109	29.7837	32.724	-89.5809
 209	1	3	-0.080449	30.923	32.8077	-90.3927
 210	1	7	-0.108008	28.5085	31.8648	-87.5845
 211	1	7	-0.182228	30.8448	33.6451	-91.6676
 212	1	7	-0.345523	33.3675	30.5413	-88.4063
 213	1	6	0.155183	27.0247	28.3987	-82.9507
 214	1	6	0.172904	28.7279	25.8903	-79.8063
 215	1	6	0.158028	27.2274	26.9624	-78.1593
 216	1	6	0.153129	31.1599	30.6454	-82.7054
 217	1	6	0.142914	30.1401	28.6813	-81.5652
 218	1	6	0.135531	29.2649	26.8977	-85.4512
 219	1	6	0.17765	28.8818	33.2617	-89.8607
 220	1	10	0.046541	28.6948	32.1842	-86.5507
 221	1	10	0.045238	28.1119	30.8425	-87.5606
 222	1	10	0.051941	27.7178	32.5104	-87.9886
 223	1	10	0.087961	31.5183	34.5078	-91.6163
 224	1	10	0.066782	29.8332	34.039	-91.8328
 225	1	10	0.075908	31.1077	33.0536	-92.5532
 226	1	10	0.105172	34.2643	30.7752	-88.9902
 227	1	10	0.115625	33.1983	29.4598	-88.4927
 228	1	10	0.140296	33.6232	30.7607	-87.3617
 229	1	1	0.48116	27.6993	15.5004	-72.9971
 230	1	2	0.034009	27.9432	15.3776	-74.3707
 231	1	3	0.028921	27.0365	16.345	-75.0225
 232	1	2	0.071556	26.7376	16.4878	-72.7232
 233	1	3	0.025276	26.3131	17.0034	-74.0532
 234	1	5	-0.381907	28.7137	14.6352	-74.9587
 235	1	5	-0.393799	26.3269	16.8794	-71.6411
 236	1	3	-0.008998	26.8683	16.598	-76.3843
 237	1	3	-0.064503	25.3481	17.9513	-74.4038
 238	1	3	-0.16756	25.1586	18.223	-75.7779
 239	1	3	-0.085161	25.9233	17.5729	-76.7909
 240	1	6	0.158939	27.4775	16.0342	-77.0811
 241	1	6	0.163781	24.7638	18.4588	-73.6357
 242	1	6	0.161401	24.4074	18.9639	-76.0555
 243	1	7	-0.078003	25.6954	17.9391	-78.2891
 244	1	7	0.303704	26.8784	17.5117	-79.2433
 245	1	8	-0.1084	26.9958	16.1722	-79.3868
 246	1	8	-0.101508	28.0764	17.9648	-78.809
 247	1	8	-0.111714	26.7195	18.0134	-80.488
 248	1	7	0.380371	24.3853	17.1858	-78.7393
 249	1	8	-0.124028	24.4455	15.8675	-78.4384
 250	1	8	-0.119704	24.1509	17.2659	-80.0686
 251	1	8	-0.115877	23.2864	17.6626	-78.1141
 252	1	3	-0.024709	25.6098	19.4907	-78.3684
 253	1	3	-0.076489	24.6077	20.1906	-79.0961
 254	1	3	-0.052344	24.6119	21.5937	-79.0689
 255	1	3	-0.054202	26.5959	20.2474	-77.6735
 256	1	3	-0.149083	26.5857	21.6526	-77.6639
 257	1	3	-0.063027	25.5705	22.2999	-78.3683
 258	1	2	0.499526	25.2758	23.7485	-78.491
 259	1	1	-0.036881	24.1223	23.8306	-79.2583
 260	1	2	0.443545	23.6732	22.5821	-79.6726
 261	1	3	0.038197	23.4677	25.0603	-79.5383
 262	1	3	-0.408621	23.1362	25.9257	-78.4804
 263	1	3	0.252781	22.6033	27.1951	-78.7397
 264	1	3	-0.169778	23.2106	25.4622	-80.8637
 265	1	3	-0.113042	22.6789	26.738	-81.1282
 266	1	3	0.016958	22.3935	27.6128	-80.0669
 267	1	6	0.167832	27.3343	22.2216	-77.114
 268	1	6	0.134138	27.3787	19.7398	-77.1144
 269	1	6	0.145229	23.8298	19.6801	-79.6565
 270	1	5	-0.462312	22.6962	22.3243	-80.3525
 271	1	5	-0.483102	25.92	24.651	-77.9835
 272	1	6	0.144532	22.521	27.0651	-82.1562
 273	1	6	0.226042	23.3542	25.6542	-77.4503
 274	1	3	0.12103	22.2653	29.9565	-79.4945
 275	1	3	-0.09864	21.208	30.4286	-78.7015
 276	1	3	-0.194398	21.4132	31.5004	-77.8201
 277	1	3	-0.091961	22.6876	32.0726	-77.7171
 278	1	3	-0.197799	23.733	31.6051	-78.5309
 279	1	3	-0.102777	23.5116	30.6257	-79.5302
 280	1	6	0.132074	22.8707	32.8637	-76.9924
 281	1	6	0.154044	24.7247	32.0347	-78.4037
 282	1	6	0.145155	20.2353	29.9474	-78.7616
 283	1	6	0.14558	23.4817	31.18	-80.4607
 284	1	9	-0.24014	22.0133	28.907	-80.3513
 285	1	6	0.152938	23.4579	24.8004	-81.6902
 286	1	6	0.151751	20.6018	31.8554	-77.1901
 287	1	1	0.48116	28.2709	11.5491	-55.6767
 288	1	2	0.034009	26.9377	11.9553	-55.8373
 289	1	3	0.028921	26.7887	12.2555	-57.2793
 290	1	2	0.071556	28.9695	11.557	-56.8913
 291	1	3	0.025276	27.9926	12.0262	-57.9069
 292	1	5	-0.381907	26.065	12.0908	-54.9919
 293	1	5	-0.393799	30.1382	11.2721	-57.103
 294	1	3	-0.008998	25.6744	12.7406	-57.9676
 295	1	3	-0.064503	28.1564	12.2879	-59.2714
 296	1	3	-0.16756	27.0472	12.7874	-59.9865
 297	1	3	-0.085161	25.7852	13.0011	-59.358
 298	1	6	0.158939	24.765	12.9243	-57.409
 299	1	6	0.163781	29.1225	12.1304	-59.7523
 300	1	6	0.161401	27.1773	13.0218	-61.0424
 301	1	7	-0.078003	24.5945	13.576	-60.1773
 302	1	7	0.303704	23.1811	13.1816	-59.5922
 303	1	8	-0.1084	23.1222	11.8718	-59.2561
 304	1	8	-0.101508	22.2004	13.3888	-60.501
 305	1	8	-0.111714	22.8326	13.8848	-58.4897
 306	1	7	0.380371	24.7423	15.1444	-60.1418
 307	1	8	-0.124028	24.8547	15.6116	-58.8779
 308	1	8	-0.119704	23.6886	15.7845	-60.6982
 309	1	8	-0.115877	25.8605	15.5589	-60.7793
 310	1	3	-0.024709	24.6551	12.9692	-61.6092
 311	1	3	-0.076489	24.6046	13.7582	-62.7872
 312	1	3	-0.052344	24.6803	13.1213	-64.0314
 313	1	3	-0.054202	24.7624	11.5539	-61.7495
 314	1	3	-0.149083	24.8351	10.9349	-63.0114
 315	1	3	-0.063027	24.7962	11.7538	-64.1448
 316	1	2	0.499526	24.934	11.4164	-65.5851
 317	1	1	-0.036881	24.9207	12.6342	-66.2531
 318	1	2	0.443545	24.7314	13.7098	-65.3951
 319	1	3	0.038197	25.2419	12.779	-67.6271
 320	1	3	-0.408621	26.4878	12.3246	-68.0922
 321	1	3	0.252781	26.8533	12.5101	-69.4314
 322	1	3	-0.169778	24.3638	13.4167	-68.522
 323	1	3	-0.113042	24.7221	13.5901	-69.8723
 324	1	3	0.016958	25.9722	13.1421	-70.3276
 325	1	6	0.167832	24.9361	9.85897	-63.11
 326	1	6	0.134138	24.8086	10.9273	-60.8663
 327	1	6	0.145229	24.5261	14.8403	-62.773
 328	1	5	-0.462312	24.7025	14.8957	-65.6674
 329	1	5	-0.483102	25.1205	10.3041	-66.0462
 330	1	6	0.144532	24.0498	14.0958	-70.5587
 331	1	6	0.226042	27.1826	11.8287	-67.4218
 332	1	3	0.12103	27.6624	13.407	-72.0013
 333	1	3	-0.09864	28.3292	12.2054	-72.2906
 334	1	3	-0.194398	29.7093	12.216	-72.5362
 335	1	3	-0.091961	30.4143	13.4231	-72.4461
 336	1	3	-0.197799	29.7321	14.6179	-72.1573
 337	1	3	-0.102777	28.3225	14.6518	-72.02
 338	1	6	0.132074	31.4885	13.436	-72.6104
 339	1	6	0.154044	30.3003	15.544	-72.1084
 340	1	6	0.145155	27.7757	11.27	-72.3055
 341	1	6	0.14558	28.04	15.2496	-71.1608
 342	1	9	-0.24014	26.3373	13.3652	-71.638
 343	1	6	0.152938	23.4089	13.794	-68.1679
 344	1	6	0.151751	30.2333	11.2915	-72.7708
 345	1	1	0.48116	30.1271	-5.9045	-46.5387
 346	1	2	0.034009	30.3064	-5.95655	-47.9317
 347	1	3	0.028921	30.3736	-4.54078	-48.3848
 348	1	2	0.071556	30.0507	-4.58603	-46.0741
 349	1	3	0.025276	30.2277	-3.73305	-47.2783
 350	1	5	-0.381907	30.4291	-6.94084	-48.6448
 351	1	5	-0.393799	29.8987	-4.18223	-44.9314
 352	1	3	-0.008998	30.6262	-4.01051	-49.6607
 353	1	3	-0.064503	30.3371	-2.34481	-47.3817
 354	1	3	-0.16756	30.6024	-1.79115	-48.6505
 355	1	3	-0.085161	30.7425	-2.60038	-49.8136
 356	1	6	0.158939	30.7611	-4.69935	-50.4865
 357	1	6	0.163781	30.2539	-1.72314	-46.4938
 358	1	6	0.161401	30.722	-0.712223	-48.7212
 359	1	7	-0.078003	31.1344	-1.91488	-51.162
 360	1	7	0.303704	32.686	-1.6416	-51.0607
 361	1	8	-0.1084	33.2531	-1.26627	-52.2295
 362	1	8	-0.101508	33.3604	-2.74117	-50.6519
 363	1	8	-0.111714	32.9492	-0.669236	-50.1584
 364	1	7	0.380371	30.841	-2.78387	-52.4474
 365	1	8	-0.124028	31.6587	-3.85192	-52.5774
 366	1	8	-0.119704	29.5747	-3.2527	-52.4622
 367	1	8	-0.115877	30.9806	-2.05815	-53.5814
 368	1	3	-0.024709	30.2996	-0.609264	-51.3285
 369	1	3	-0.076489	30.855	0.589131	-51.8541
 370	1	3	-0.052344	30.033	1.70889	-52.0184
 371	1	3	-0.054202	28.9125	-0.620891	-51.009
 372	1	3	-0.149083	28.1016	0.522169	-51.1755
 373	1	3	-0.063027	28.6958	1.68083	-51.6873
 374	1	2	0.499526	28.1057	2.99898	-52.0474
 375	1	1	-0.036881	29.141	3.7412	-52.6072
 376	1	2	0.443545	30.3434	3.04084	-52.6038
 377	1	3	0.038197	28.9736	5.04068	-53.1719
 378	1	3	-0.408621	28.2372	6.02726	-52.4881
 379	1	3	0.252781	28.0641	7.30397	-53.0489
 380	1	3	-0.169778	29.5176	5.34776	-54.4355
 381	1	3	-0.113042	29.3458	6.62338	-55.0014
 382	1	3	0.016958	28.6259	7.60484	-54.304
 383	1	6	0.167832	27.04	0.498294	-50.9406
 384	1	6	0.134138	28.4518	-1.53248	-50.6342
 385	1	6	0.145229	31.8915	0.669958	-52.1616
 386	1	5	-0.462312	31.4299	3.39863	-53.0279
 387	1	5	-0.483102	26.9327	3.30979	-51.9245
 388	1	6	0.144532	29.7949	6.86543	-55.9617
 389	1	6	0.226042	27.7804	5.81013	-51.5273
 390	1	3	0.12103	29.3514	9.90801	-54.3079
 391	1	3	-0.09864	30.5518	9.61699	-53.6267
 392	1	3	-0.194398	31.3256	10.6489	-53.0793
 393	1	3	-0.091961	30.9097	11.977	-53.2277
 394	1	3	-0.197799	29.7208	12.2624	-53.9174
 395	1	3	-0.102777	28.8834	11.2351	-54.4178
 396	1	6	0.132074	31.5171	12.787	-52.8284
 397	1	6	0.154044	29.4293	13.3025	-54.0425
 398	1	6	0.145155	30.8959	8.59045	-53.5268
 399	1	6	0.14558	27.9743	11.2611	-53.8288
 400	1	9	-0.24014	28.5631	8.88602	-54.8026
 401	1	6	0.152938	30.0848	4.59847	-54.9788
 402	1	6	0.151751	32.2556	10.4201	-52.559
 403	1	1	0.48116	24.7535	-12.327	-57.3469
 404	1	2	0.034009	23.709	-11.3988	-57.3761
 405	1	3	0.028921	24.3136	-10.1138	-56.9281
 406	1	2	0.071556	25.9629	-11.7679	-56.9442
 407	1	3	0.025276	25.6502	-10.3462	-56.6689
 408	1	5	-0.381907	22.5435	-11.5856	-57.6831
 409	1	5	-0.393799	27.0478	-12.3106	-56.8096
 410	1	3	-0.008998	23.7341	-8.84574	-56.7464
 411	1	3	-0.064503	26.4893	-9.33286	-56.2109
 412	1	3	-0.16756	25.9309	-8.05621	-56.0216
 413	1	3	-0.085161	24.5531	-7.78471	-56.2683
 414	1	6	0.158939	22.6809	-8.71347	-56.9755
 415	1	6	0.163781	27.5391	-9.53258	-56.0157
 416	1	6	0.161401	26.5934	-7.26169	-55.6889
 417	1	7	-0.078003	24.0463	-6.32401	-56.068
 418	1	7	0.303704	24.449	-5.54582	-57.3778
 419	1	8	-0.1084	25.7908	-5.49762	-57.5404
 420	1	8	-0.101508	23.9969	-4.27197	-57.4027
 421	1	8	-0.111714	23.9616	-6.14785	-58.4857
 422	1	7	0.380371	22.4877	-6.18682	-55.8441
 423	1	8	-0.124028	22.0377	-7.03521	-54.8926
 424	1	8	-0.119704	21.7458	-6.42105	-56.9509
 425	1	8	-0.115877	22.1663	-4.94037	-55.4256
 426	1	3	-0.024709	24.7197	-5.77095	-54.7733
 427	1	3	-0.076489	24.6375	-6.55536	-53.5942
 428	1	3	-0.052344	25.2539	-6.10555	-52.4219
 429	1	3	-0.054202	25.4296	-4.5358	-54.7053
 430	1	3	-0.149083	26.0532	-4.10494	-53.5128
 431	1	3	-0.063027	25.9499	-4.91846	-52.3784
 432	1	2	0.499526	26.5297	-4.77233	-51.0141
 433	1	1	-0.036881	26.1264	-5.90449	-50.3096
 434	1	2	0.443545	25.3488	-6.75382	-51.0909
 435	1	3	0.038197	26.4817	-6.16745	-48.9541
 436	1	3	-0.408621	26.8404	-7.46567	-48.5383
 437	1	3	0.252781	27.2192	-7.71273	-47.2101
 438	1	3	-0.169778	26.4815	-5.12578	-48.0051
 439	1	3	-0.113042	26.8643	-5.36569	-46.6768
 440	1	3	0.016958	27.2554	-6.65293	-46.288
 441	1	6	0.167832	26.6128	-3.17152	-53.4755
 442	1	6	0.134138	25.5251	-3.89436	-55.5743
 443	1	6	0.145229	24.1263	-7.51655	-53.5863
 444	1	5	-0.462312	24.8473	-7.82248	-50.7852
 445	1	5	-0.483102	27.2376	-3.85401	-50.6301
 446	1	6	0.144532	26.8999	-4.55285	-45.9562
 447	1	6	0.226042	26.8385	-8.29374	-49.2409
 448	1	3	0.12103	29.0733	-7.10777	-44.7153
 449	1	3	-0.09864	29.3187	-7.49928	-43.3893
 450	1	3	-0.194398	30.6117	-7.84237	-42.9732
 451	1	3	-0.091961	31.6664	-7.77878	-43.8907
 452	1	3	-0.197799	31.4201	-7.38248	-45.2155
 453	1	3	-0.102777	30.1208	-7.05727	-45.6744
 454	1	6	0.132074	32.6771	-8.02721	-43.574
 455	1	6	0.154044	32.2591	-7.33246	-45.9073
 456	1	6	0.145155	28.4925	-7.53307	-42.6839
 457	1	6	0.14558	29.86	-7.76412	-46.4521
 458	1	9	-0.24014	27.7537	-6.83127	-45.0208
 459	1	6	0.152938	26.2006	-4.11877	-48.2958
 460	1	6	0.151751	30.7955	-8.14286	-41.9439
 461	1	3	-0.004194	25.1063	-23.233	-50.5992
 462	1	3	-0.097141	25.7051	-22.4397	-51.6189
 463	1	3	-0.172015	25.872	-23.0228	-52.9072
 464	1	5	-0.377994	23.7869	-25.4516	-48.8662
 465	1	3	0.033493	24.6845	-24.533	-50.9115
 466	1	3	-0.063739	25.442	-24.3327	-53.1973
 467	1	5	-0.398381	24.2272	-27.1805	-53.1572
 468	1	3	0.032144	24.8343	-25.0607	-52.1759
 469	1	2	0.032313	24.0324	-25.5603	-50.0561
 470	1	1	0.461698	23.795	-26.6491	-50.9024
 471	1	2	0.091945	24.2652	-26.4301	-52.1966
 472	1	3	-0.10563	23.443	-19.7339	-53.8836
 473	1	7	-0.099376	26.1596	-20.9576	-51.4169
 474	1	3	-0.043296	25.4865	-20.1258	-52.5444
 475	1	3	-0.073043	24.1255	-20.4061	-52.8568
 476	1	3	-0.117827	24.1415	-18.7631	-54.5979
 477	1	3	-0.037562	26.1471	-19.0914	-53.2633
 478	1	3	-0.083705	25.4477	-18.4388	-54.2944
 479	1	7	0.396	27.741	-20.9573	-51.4489
 480	1	7	0.310495	25.6675	-20.3144	-50.0677
 481	1	8	-0.130298	28.3051	-19.7999	-51.0357
 482	1	8	-0.128745	28.2275	-21.1982	-52.6856
 483	1	8	-0.120019	28.237	-21.9349	-50.6556
 484	1	8	-0.104287	25.9555	-18.9938	-49.9942
 485	1	8	-0.095507	26.2156	-20.9027	-48.9849
 486	1	8	-0.104872	24.3265	-20.4113	-49.9282
 487	1	2	0.456145	25.8627	-17.3474	-55.2239
 488	1	2	0.550902	23.676	-17.9009	-55.7099
 489	1	1	0.015704	24.7536	-17.0887	-56.0366
 490	1	5	-0.456801	26.9385	-16.7727	-55.2061
 491	1	5	-0.487703	22.5547	-17.9068	-56.1886
 492	1	3	-0.116566	24.6702	-16.0707	-57.0426
 493	1	3	-0.050109	24.7139	-14.6993	-56.6787
 494	1	3	0.154929	24.6154	-13.7023	-57.6856
 495	1	3	0.041555	24.4734	-16.4338	-58.3989
 496	1	3	-0.223109	24.3367	-15.4331	-59.3722
 497	1	3	-0.080449	24.4229	-14.0744	-59.0366
 498	1	7	-0.108008	24.4207	-17.8869	-58.863
 499	1	7	-0.182228	24.3153	-13.0436	-60.1595
 500	1	7	-0.345523	24.8893	-14.2983	-55.206
 501	1	6	0.155183	24.9478	-22.8731	-49.5884
 502	1	6	0.172904	26.3215	-22.4439	-53.7114
 503	1	6	0.158028	25.5642	-24.7656	-54.1892
 504	1	6	0.153129	22.404	-19.9629	-54.1206
 505	1	6	0.142914	23.5805	-21.1659	-52.3017
 506	1	6	0.135531	27.1708	-18.7995	-53.0502
 507	1	6	0.17765	24.1827	-15.7202	-60.4091
 508	1	10	0.046541	23.4087	-18.2964	-58.7594
 509	1	10	0.045238	25.1089	-18.5239	-58.2929
 510	1	10	0.051941	24.7071	-17.9809	-59.9177
 511	1	10	0.087961	23.3287	-12.561	-60.1572
 512	1	10	0.066782	24.4472	-13.506	-61.1461
 513	1	10	0.075908	25.081	-12.262	-60.0735
 514	1	10	0.105172	24.3836	-14.9916	-54.5233
 515	1	10	0.115625	24.4745	-13.3106	-54.9728
 516	1	10	0.140296	25.9562	-14.2786	-54.937
 517	1	3	-0.004194	11.2816	-31.2317	-50.1341
 518	1	3	-0.097141	12.6991	-31.3727	-50.0869
 519	1	3	-0.172015	13.2383	-32.666	-50.3356
 520	1	5	-0.377994	8.22072	-31.5011	-50.527
 521	1	3	0.033493	10.4777	-32.3365	-50.4466
 522	1	3	-0.063739	12.4137	-33.7566	-50.6903
 523	1	5	-0.398381	10.1147	-35.6598	-51.4364
 524	1	3	0.032144	11.0292	-33.5615	-50.7282
 525	1	2	0.032313	9.00191	-32.4345	-50.6258
 526	1	1	0.461698	8.74577	-33.7596	-51.0231
 527	1	2	0.091945	9.94118	-34.5	-51.0964
 528	1	3	-0.10563	16.602	-30.7623	-52.1939
 529	1	7	-0.099376	13.6194	-30.1446	-49.7693
 530	1	3	-0.043296	15.0911	-30.3565	-50.2693
 531	1	3	-0.073043	15.317	-30.7882	-51.6063
 532	1	3	-0.117827	17.6746	-30.2737	-51.4305
 533	1	3	-0.037562	16.2213	-29.9039	-49.5269
 534	1	3	-0.083705	17.4828	-29.8542	-50.1346
 535	1	7	0.396	13.5422	-29.8629	-48.2208
 536	1	7	0.310495	13.1311	-28.8619	-50.5488
 537	1	8	-0.130298	12.2757	-29.8676	-47.744
 538	1	8	-0.128745	14.0583	-28.6611	-47.883
 539	1	8	-0.120019	14.2232	-30.8042	-47.5314
 540	1	8	-0.104287	12.8108	-29.174	-51.8212
 541	1	8	-0.095507	14.091	-27.9109	-50.6079
 542	1	8	-0.104872	12.0502	-28.2507	-50.0187
 543	1	2	0.456145	18.7848	-29.3489	-49.6054
 544	1	2	0.550902	19.1265	-30.11	-51.7539
 545	1	1	0.015704	19.7231	-29.546	-50.62
 546	1	5	-0.456801	18.9532	-28.8366	-48.5099
 547	1	5	-0.487703	19.6651	-30.5136	-52.7708
 548	1	3	-0.116566	21.1403	-29.3088	-50.4444
 549	1	3	-0.050109	21.7567	-28.0648	-50.7669
 550	1	3	0.154929	23.1459	-27.8631	-50.5119
 551	1	3	0.041555	21.9338	-30.3368	-49.8781
 552	1	3	-0.223109	23.298	-30.1208	-49.6224
 553	1	3	-0.080449	23.9127	-28.8976	-49.9297
 554	1	7	-0.108008	21.3408	-31.6935	-49.5114
 555	1	7	-0.182228	25.4004	-28.7247	-49.6388
 556	1	7	-0.345523	20.9328	-26.9403	-51.4022
 557	1	6	0.155183	10.7875	-30.2871	-49.9354
 558	1	6	0.172904	14.3089	-32.8387	-50.263
 559	1	6	0.158028	12.835	-34.7334	-50.9166
 560	1	6	0.153129	16.7545	-31.0754	-53.2241
 561	1	6	0.142914	14.4757	-31.0977	-52.2221
 562	1	6	0.135531	16.1486	-29.5245	-48.5148
 563	1	6	0.17765	23.8883	-30.919	-49.1805
 564	1	10	0.046541	22.1199	-32.4199	-49.2438
 565	1	10	0.045238	20.7726	-32.1246	-50.3489
 566	1	10	0.051941	20.666	-31.6031	-48.6541
 567	1	10	0.087961	25.8271	-29.6163	-49.1633
 568	1	10	0.066782	25.5741	-27.8803	-48.9543
 569	1	10	0.075908	25.9677	-28.5434	-50.5577
 570	1	10	0.105172	21.2336	-25.9509	-51.0364
 571	1	10	0.115625	19.8649	-27.0231	-51.1722
 572	1	10	0.140296	21.038	-26.9486	-52.4962
 573	1	1	0.48116	-7.59713	-34.0002	-46.5594
 574	1	2	0.034009	-7.5868	-33.8196	-47.9607
 575	1	3	0.028921	-6.63155	-34.8225	-48.5046
 576	1	2	0.071556	-6.77409	-35.0777	-46.2082
 577	1	3	0.025276	-6.22565	-35.6201	-47.4681
 578	1	5	-0.381907	-8.38247	-33.2146	-48.6608
 579	1	5	-0.393799	-6.66708	-35.6215	-45.1251
 580	1	3	-0.008998	-6.23929	-35.0792	-49.8247
 581	1	3	-0.064503	-5.47584	-36.7741	-47.6881
 582	1	3	-0.16756	-5.10486	-37.0775	-49.0162
 583	1	3	-0.085161	-5.46045	-36.2338	-50.1104
 584	1	6	0.158939	-6.60383	-34.4057	-50.5889
 585	1	6	0.163781	-5.2003	-37.4165	-46.8542
 586	1	6	0.161401	-4.53635	-37.9873	-49.1943
 587	1	7	-0.078003	-5.11063	-36.6627	-51.5754
 588	1	7	0.303704	-5.23614	-35.5011	-52.6402
 589	1	8	-0.1084	-6.49308	-35.0471	-52.8135
 590	1	8	-0.101508	-4.82892	-35.8866	-53.8673
 591	1	8	-0.111714	-4.47601	-34.4362	-52.3171
 592	1	7	0.380371	-6.16752	-37.7678	-51.9375
 593	1	8	-0.124028	-7.4094	-37.3324	-51.6258
 594	1	8	-0.119704	-5.95837	-38.908	-51.2423
 595	1	8	-0.115877	-6.20967	-38.0969	-53.2478
 596	1	3	-0.024709	-3.62497	-37.1303	-51.6097
 597	1	3	-0.076489	-2.66773	-36.3487	-50.9121
 598	1	3	-0.052344	-1.31979	-36.7268	-50.9119
 599	1	3	-0.054202	-3.16207	-38.2643	-52.3366
 600	1	3	-0.149083	-1.79327	-38.6302	-52.3239
 601	1	3	-0.063027	-0.887632	-37.8418	-51.5906
 602	1	2	0.499526	0.5889	-37.957	-51.3758
 603	1	1	-0.036881	0.962165	-36.8669	-50.5787
 604	1	2	0.443545	-0.150645	-36.0909	-50.2476
 605	1	3	0.038197	2.32136	-36.527	-50.2386
 606	1	3	-0.408621	3.37654	-36.851	-51.1159
 607	1	3	0.252781	4.69068	-36.436	-50.8651
 608	1	3	-0.169778	2.65129	-35.8221	-49.0571
 609	1	3	-0.113042	3.97091	-35.3878	-48.8049
 610	1	3	0.016958	4.99151	-35.6798	-49.7247
 611	1	6	0.167832	-1.4406	-39.5067	-52.8647
 612	1	6	0.134138	-3.85311	-38.8751	-52.9072
 613	1	6	0.145229	-2.96272	-35.4575	-50.3615
 614	1	5	-0.462312	-0.20034	-35.072	-49.5797
 615	1	5	-0.483102	1.30342	-38.814	-51.8698
 616	1	6	0.144532	4.18791	-34.7671	-47.9394
 617	1	6	0.226042	3.19558	-37.3776	-52.046
 618	1	3	0.12103	6.38679	-34.0296	-50.692
 619	1	3	-0.09864	5.34108	-33.1257	-50.9846
 620	1	3	-0.194398	5.32442	-32.4251	-52.198
 621	1	3	-0.091961	6.32229	-32.6899	-53.1425
 622	1	3	-0.197799	7.34537	-33.608	-52.8503
 623	1	3	-0.102777	7.48353	-34.2009	-51.5715
 624	1	6	0.132074	6.2941	-32.1969	-54.1102
 625	1	6	0.154044	8.09908	-33.8038	-53.6123
 626	1	6	0.145155	4.51113	-33.0169	-50.2947
 627	1	6	0.14558	7.73788	-35.2531	-51.6388
 628	1	9	-0.24014	6.17125	-34.9649	-49.6979
 629	1	6	0.152938	1.87573	-35.5583	-48.345
 630	1	6	0.151751	4.51291	-31.7385	-52.428
 631	1	1	0.48116	-2.92137	-38.8495	-28.9064
 632	1	2	0.034009	-4.15676	-39.3015	-29.3668
 633	1	3	0.028921	-4.61479	-38.2783	-30.3548
 634	1	2	0.071556	-2.54365	-37.6438	-29.4851
 635	1	3	0.025276	-3.66103	-37.2799	-30.4048
 636	1	5	-0.381907	-4.83805	-40.1814	-28.8728
 637	1	5	-0.393799	-1.51208	-37.0214	-29.2994
 638	1	3	-0.008998	-5.82219	-38.1801	-31.0775