pySIMM System Object

1880 atoms
2060 bonds
3591 angles
5458 dihedrals
592 impropers

10 atom types
12 bond types
21 angle types
8 dihedral types
4 improper types

-160.946752 160.946752 xlo xhi
-160.946752 160.946752 ylo yhi
-160.946752 160.946752 zlo zhi

Masses

   1	14.01	# n
   2	12.01	# c
   3	12.01	# ca
   4	1.008	# hn
   5	16.0	# o
   6	1.008	# ha
   7	12.01	# c3
   8	19.0	# f
   9	16.0	# os
  10	1.008	# hc

Pair Coeffs

   1	0.17	3.249998523775958	# n
   2	0.086	3.3996695084235347	# c
   3	0.086	3.3996695084235347	# ca
   4	0.0157	1.069078461768407	# hn
   5	0.21	2.959921901149463	# o
   6	0.015	2.59964245953351	# ha
   7	0.1094	3.3996695084235347	# c3
   8	0.061	3.1181455134911875	# f
   9	0.17	3.0000123434657784	# os
  10	0.0157	2.649532787749369	# hc

Bond Coeffs

   1	345.8	1.086	# ca,ha
   2	427.6	1.3789	# c,n
   3	637.7	1.2183	# c,o
   4	321.0	1.5156	# c3,ca
   5	300.9	1.5375	# c3,c3
   6	384.2	1.4121	# ca,n
   7	376.6	1.3696	# ca,os
   8	403.2	1.0129	# hn,n
   9	356.9	1.3497	# c3,f
  10	461.1	1.3984	# ca,ca
  11	345.9	1.4906	# c,ca
  12	330.6	1.0969	# c3,hc

Angle Coeffs

   1	48.33	117.55	# c,n,hn
   2	74.22	123.05	# n,c,o
   3	64.28	120.33	# c,ca,ca
   4	66.11	109.24	# c3,c3,f
   5	63.48	119.89	# ca,os,ca
   6	63.53	120.77	# c3,ca,ca
   7	66.62	120.02	# ca,ca,ca
   8	63.15	112.07	# c3,c3,ca
   9	63.82	123.71	# c,n,ca
  10	62.86	111.51	# c3,c3,c3
  11	70.89	107.36	# f,c3,f
  12	67.87	120.19	# ca,ca,n
  13	63.74	127.08	# c,n,c
  14	48.18	119.88	# ca,ca,ha
  15	68.72	122.6	# ca,c,o
  16	63.56	112.24	# ca,c3,ca
  17	69.58	119.2	# ca,ca,os
  18	67.68	115.25	# ca,c,n
  19	49.75	116.02	# ha,ca,n
  20	39.4	107.58	# hc,c3,hc
  21	46.8	110.47	# ca,c3,hc

Dihedral Coeffs

   1	2	2.5	2	180	2.0	1	0	# hn,n,c,o
   2	1	3.625	2	180	# X,ca,ca,X
   3	1	1.0	2	180	# X,c,ca,X
   4	1	0.15555555555555556	3	0	# X,c3,c3,X
   5	1	0.0	2	0	# X,c3,ca,X
   6	1	0.9	2	180	# X,ca,os,X
   7	1	2.5	2	180	# X,c,n,X
   8	1	0.45	2	180	# X,ca,n,X

Improper Coeffs

   1	10.5	-1	2	# c,X,X,o
   2	1.1	-1	2	# ca,X,X,ha
   3	1.1	-1	2	# ca,ca,ca,c3
   4	1.1	-1	2	# n,X,X,hn

Atoms

   1	1	1	0.48116	-72.3476	-51.2926	0.252404
   2	1	2	0.034009	-73.0215	-51.4346	1.46519
   3	1	3	0.028921	-72.5342	-50.3219	2.30729
   4	1	2	0.071556	-71.4104	-50.2549	0.231757
   5	1	3	0.025276	-71.5212	-49.685	1.62716
   6	1	5	-0.381907	-73.6663	-52.3934	1.86092
   7	1	5	-0.393799	-70.6275	-49.9603	-0.670775
   8	1	3	-0.008998	-72.8539	-50.0351	3.63615
   9	1	3	-0.064503	-70.665	-48.847	2.32019
  10	1	3	-0.16756	-70.9389	-48.5565	3.69105
  11	1	3	-0.085161	-72.0658	-49.1391	4.36546
  12	1	6	0.158939	-73.6826	-50.558	4.09407
  13	1	6	0.163781	-69.8028	-48.3975	1.84462
  14	1	6	0.161401	-70.2543	-47.8826	4.19788
  15	1	7	-0.078003	-72.476	-48.8665	5.86278
  16	1	7	0.303704	-72.3982	-50.244	6.65602
  17	1	8	-0.1084	-71.2099	-50.8098	6.45199
  18	1	8	-0.101508	-73.3429	-51.1721	6.31206
  19	1	8	-0.111714	-72.4916	-50.1239	7.97394
  20	1	7	0.380371	-71.4517	-47.8726	6.54046
  21	1	8	-0.124028	-71.774	-47.585	7.81456
  22	1	8	-0.119704	-71.3548	-46.6506	5.93148
  23	1	8	-0.115877	-70.2172	-48.4194	6.57906
  24	1	3	-0.024709	-73.8949	-48.2592	5.94025
  25	1	3	-0.076489	-74.7408	-48.3999	7.08592
  26	1	3	-0.052344	-76.0049	-47.8595	7.02757
  27	1	3	-0.054202	-74.3665	-47.5159	4.81359
  28	1	3	-0.149083	-75.6617	-46.9812	4.75433
  29	1	3	-0.063027	-76.4302	-47.1821	5.90494
  30	1	2	0.499526	-77.7975	-46.7454	6.18741
  31	1	1	-0.036881	-78.0828	-47.144	7.49644
  32	1	2	0.443545	-77.0223	-47.8027	8.09112
  33	1	3	0.038197	-79.1299	-46.6128	8.28322
  34	1	3	-0.408621	-79.1967	-45.1958	8.42573
  35	1	3	0.252781	-80.1028	-44.6287	9.33188
  36	1	3	-0.169778	-79.9936	-47.4358	9.04735
  37	1	3	-0.113042	-80.8943	-46.8638	9.96772
  38	1	3	0.016958	-80.9187	-45.4676	10.1145
  39	1	6	0.167832	-76.0681	-46.5037	3.86596
  40	1	6	0.134138	-73.7333	-47.3657	3.94914
  41	1	6	0.145229	-74.4735	-48.9677	7.96059
  42	1	5	-0.462312	-76.956	-48.3642	9.1746
  43	1	5	-0.483102	-78.5026	-46.1789	5.36673
  44	1	6	0.144532	-81.5587	-47.4718	10.5833
  45	1	6	0.226042	-78.5641	-44.5343	7.84137
  46	1	3	0.12103	-81.4185	-43.795	11.714
  47	1	3	-0.09864	-81.6023	-42.5748	11.0565
  48	1	3	-0.194398	-81.2986	-41.3901	11.7385
  49	1	3	-0.091961	-80.8633	-41.4176	13.0742
  50	1	3	-0.197799	-80.698	-42.6526	13.7353
  51	1	3	-0.102777	-80.9782	-43.8538	13.0491
  52	1	6	0.132074	-80.6337	-40.4845	13.583
  53	1	6	0.154044	-80.3187	-42.6798	14.7606
  54	1	6	0.145155	-81.9602	-42.5392	10.0352
  55	1	6	0.14558	-80.8434	-44.8228	13.5283
  56	1	9	-0.24014	-81.738	-44.9468	11.0776
  57	1	6	0.152938	-79.9569	-48.5217	8.95071
  58	1	6	0.151751	-81.436	-40.4345	11.2386
  59	1	1	0.48116	-78.1323	-35.4469	-5.7517
  60	1	2	0.034009	-78.2517	-36.185	-6.94168
  61	1	3	0.028921	-77.3615	-37.3858	-6.75376
  62	1	2	0.071556	-77.1651	-35.961	-4.89915
  63	1	3	0.025276	-76.7421	-37.2402	-5.52275
  64	1	5	-0.381907	-79.1957	-36.1327	-7.70606
  65	1	5	-0.393799	-76.9492	-35.5529	-3.77518
  66	1	3	-0.008998	-77.2563	-38.5879	-7.48015
  67	1	3	-0.064503	-75.8949	-38.2188	-5.01594
  68	1	3	-0.16756	-75.7848	-39.4254	-5.71817
  69	1	3	-0.085161	-76.4688	-39.6545	-6.93964
  70	1	6	0.158939	-77.8345	-38.7029	-8.38782
  71	1	6	0.163781	-75.436	-38.093	-4.03967
  72	1	6	0.161401	-75.1923	-40.2244	-5.26492
  73	1	7	-0.078003	-76.3424	-41.0755	-7.59712
  74	1	7	0.303704	-77.4983	-41.4561	-8.61192
  75	1	8	-0.1084	-77.4996	-40.6696	-9.71636
  76	1	8	-0.101508	-78.7123	-41.3487	-8.0132
  77	1	8	-0.111714	-77.3904	-42.7603	-9.05029
  78	1	7	0.380371	-74.9525	-41.0729	-8.36846
  79	1	8	-0.124028	-74.7458	-42.1774	-9.10602
  80	1	8	-0.119704	-74.807	-40.0328	-9.22771
  81	1	8	-0.115877	-73.936	-41.0427	-7.50644
  82	1	3	-0.024709	-76.4245	-42.2033	-6.48321
  83	1	3	-0.076489	-75.6174	-43.3696	-6.53313
  84	1	3	-0.052344	-75.7868	-44.4131	-5.6102
  85	1	3	-0.054202	-77.3819	-42.1531	-5.43193
  86	1	3	-0.149083	-77.5769	-43.2087	-4.51787
  87	1	3	-0.063027	-76.7467	-44.3181	-4.63285
  88	1	2	0.499526	-76.7254	-45.563	-3.85307
  89	1	1	-0.036881	-75.7456	-46.3691	-4.4182
  90	1	2	0.443545	-75.1224	-45.7386	-5.49222
  91	1	3	0.038197	-75.3539	-47.6217	-3.85955
  92	1	3	-0.408621	-73.9841	-47.9722	-3.69909
  93	1	3	0.252781	-73.6024	-49.0874	-2.93416
  94	1	3	-0.169778	-76.3407	-48.4253	-3.25165
  95	1	3	-0.113042	-75.9672	-49.5582	-2.51588
  96	1	3	0.016958	-74.6144	-49.9294	-2.41743
  97	1	6	0.167832	-78.3302	-43.151	-3.74478
  98	1	6	0.134138	-78.0302	-41.2975	-5.3453
  99	1	6	0.145229	-74.8814	-43.5223	-7.303
 100	1	5	-0.462312	-74.2762	-46.1486	-6.27518
 101	1	5	-0.483102	-77.4365	-45.7605	-2.89383
 102	1	6	0.144532	-76.7329	-50.1582	-2.02419
 103	1	6	0.226042	-73.207	-47.3538	-4.14012
 104	1	3	0.12103	-73.1796	-51.8116	-1.92284
 105	1	3	-0.09864	-72.8772	-52.2298	-3.23525
 106	1	3	-0.194398	-71.7142	-52.9891	-3.45396
 107	1	3	-0.091961	-70.8754	-53.3247	-2.37137
 108	1	3	-0.197799	-71.234	-52.9517	-1.05957
 109	1	3	-0.102777	-72.4265	-52.2464	-0.817211
 110	1	6	0.132074	-69.9491	-53.8707	-2.57085
 111	1	6	0.154044	-70.5716	-53.1882	-0.227539
 112	1	6	0.145155	-73.4505	-51.8952	-4.08915
 113	1	6	0.14558	-73.0517	-52.9691	-0.309388
 114	1	9	-0.24014	-74.2609	-51.0197	-1.65181
 115	1	6	0.152938	-77.408	-48.1799	-3.30283
 116	1	6	0.151751	-71.4232	-53.2637	-4.46706
 117	1	3	-0.004194	-79.5086	-22.8888	-2.62528
 118	1	3	-0.097141	-79.9527	-23.9832	-3.396
 119	1	3	-0.172015	-79.6021	-24.0504	-4.77708
 120	1	5	-0.377994	-77.9916	-20.5439	-1.40683
 121	1	3	0.033493	-78.7225	-21.9298	-3.23948
 122	1	3	-0.063739	-78.8351	-23.0268	-5.37352
 123	1	5	-0.398381	-77.3928	-20.4115	-6.00983
 124	1	3	0.032144	-78.4415	-21.9505	-4.57564
 125	1	2	0.032313	-78.0704	-20.7625	-2.6077
 126	1	1	0.461698	-77.4282	-20.1044	-3.6643
 127	1	2	0.091945	-77.6692	-20.7435	-4.88294
 128	1	3	-0.10563	-78.0572	-27.8763	-3.24367
 129	1	7	-0.099376	-80.731	-25.1397	-2.76082
 130	1	3	-0.043296	-80.0786	-26.4448	-3.24854
 131	1	3	-0.073043	-78.6727	-26.6394	-3.01532
 132	1	3	-0.117827	-78.8149	-28.8627	-3.86499
 133	1	3	-0.037562	-80.7983	-27.4777	-3.90161
 134	1	3	-0.083705	-80.1162	-28.6507	-4.25866
 135	1	7	0.396	-80.651	-25.1623	-1.18623
 136	1	7	0.310495	-82.2335	-24.9496	-3.21918
 137	1	8	-0.130298	-79.4033	-25.1763	-0.654946
 138	1	8	-0.128745	-81.2561	-26.2508	-0.668831
 139	1	8	-0.120019	-81.2631	-24.1044	-0.636575
 140	1	8	-0.104287	-82.315	-25.0854	-4.56506
 141	1	8	-0.095507	-82.676	-23.7027	-2.8934
 142	1	8	-0.104872	-83.0654	-25.8593	-2.63376
 143	1	2	0.456145	-80.584	-29.8994	-4.9054
 144	1	2	0.550902	-78.481	-30.2907	-4.03951
 145	1	1	0.015704	-79.5965	-30.8509	-4.62149
 146	1	5	-0.456801	-81.6742	-30.0672	-5.42582
 147	1	5	-0.487703	-77.5295	-30.8541	-3.52701
 148	1	3	-0.116566	-79.7982	-32.2564	-4.61844
 149	1	3	-0.050109	-78.9705	-33.1025	-5.40081
 150	1	3	0.154929	-79.1017	-34.5106	-5.24867
 151	1	3	0.041555	-80.6939	-32.7927	-3.65612
 152	1	3	-0.223109	-80.8691	-34.1688	-3.57215
 153	1	3	-0.080449	-80.1108	-35.0197	-4.3851
 154	1	7	-0.108008	-81.4913	-31.9427	-2.65867
 155	1	7	-0.182228	-80.3175	-36.5015	-4.18676
 156	1	7	-0.345523	-77.9415	-32.5368	-6.39561
 157	1	6	0.155183	-79.7198	-22.7501	-1.5824
 158	1	6	0.172904	-79.8967	-24.9104	-5.38218
 159	1	6	0.158028	-78.5932	-23.0402	-6.434
 160	1	6	0.153129	-77.0257	-28.0691	-2.95957
 161	1	6	0.142914	-78.0688	-25.8299	-2.59942
 162	1	6	0.135531	-81.8717	-27.4254	-4.05289
 163	1	6	0.17765	-81.555	-34.5847	-2.83792
 164	1	10	0.046541	-80.8239	-31.2718	-2.1019
 165	1	10	0.045238	-81.9967	-32.5652	-1.90461
 166	1	10	0.051941	-82.2649	-31.3604	-3.1763
 167	1	10	0.087961	-81.1931	-36.7323	-3.56384
 168	1	10	0.066782	-79.4356	-36.9602	-3.70202
 169	1	10	0.075908	-80.4749	-37.0083	-5.15437
 170	1	10	0.105172	-78.333	-31.6524	-6.91075
 171	1	10	0.115625	-77.6925	-33.2389	-7.1909
 172	1	10	0.140296	-77.0081	-32.2355	-5.88745
 173	1	3	-0.004194	-64.6731	-17.2879	-1.87278
 174	1	3	-0.097141	-65.9248	-17.8949	-1.57445
 175	1	3	-0.172015	-66.0176	-19.307	-1.54664
 176	1	5	-0.377994	-61.9073	-16.6374	-3.13446
 177	1	3	0.033493	-63.6424	-18.1221	-2.31597
 178	1	3	-0.063739	-64.9648	-20.1172	-1.99088
 179	1	5	-0.398381	-62.5265	-21.1572	-3.54047
 180	1	3	0.032144	-63.7959	-19.4794	-2.41358
 181	1	2	0.032313	-62.3334	-17.7537	-2.92202
 182	1	1	0.461698	-61.7852	-18.9452	-3.3812
 183	1	2	0.091945	-62.6224	-20.0148	-3.12036
 184	1	3	-0.10563	-69.4885	-18.6167	-3.86721
 185	1	7	-0.099376	-67.1689	-17.0587	-1.17842
 186	1	3	-0.043296	-68.4276	-17.7213	-1.79354
 187	1	3	-0.073043	-68.363	-18.1954	-3.13309
 188	1	3	-0.117827	-70.7086	-18.4624	-3.23164
 189	1	3	-0.037562	-69.7124	-17.6695	-1.18454
 190	1	3	-0.083705	-70.8372	-18.05	-1.92281
 191	1	7	0.396	-67.1744	-16.9884	0.393166
 192	1	7	0.310495	-67.1907	-15.6319	-1.82169
 193	1	8	-0.130298	-68.0797	-16.1094	0.852593
 194	1	8	-0.128745	-65.989	-16.568	0.889782
 195	1	8	-0.120019	-67.4147	-18.2081	0.928906
 196	1	8	-0.104287	-66.9961	-15.661	-3.16721
 197	1	8	-0.095507	-68.3814	-15.0377	-1.67248
 198	1	8	-0.104872	-66.2867	-14.8011	-1.289
 199	1	2	0.456145	-72.2907	-17.8865	-1.61595
 200	1	2	0.550902	-72.0621	-18.6156	-3.79748
 201	1	1	0.015704	-72.9405	-18.2257	-2.80715
 202	1	5	-0.456801	-72.7716	-17.4366	-0.593003
 203	1	5	-0.487703	-72.3193	-18.9978	-4.92628
 204	1	3	-0.116566	-74.3334	-18.0385	-3.04745
 205	1	3	-0.050109	-75.1841	-19.1688	-3.20297
 206	1	3	0.154929	-76.5631	-18.9806	-3.49588
 207	1	3	0.041555	-74.8635	-16.7259	-3.19011
 208	1	3	-0.223109	-76.2402	-16.5879	-3.4765
 209	1	3	-0.080449	-77.1093	-17.6805	-3.60526
 210	1	7	-0.108008	-73.9671	-15.4712	-3.05045
 211	1	7	-0.182228	-78.5985	-17.4116	-3.86746
 212	1	7	-0.345523	-74.6334	-20.5929	-3.04493
 213	1	6	0.155183	-64.5245	-16.2231	-1.84523
 214	1	6	0.172904	-66.9206	-19.8096	-1.21672
 215	1	6	0.158028	-65.0515	-21.2017	-2.03911
 216	1	6	0.153129	-69.4234	-18.8785	-4.92411
 217	1	6	0.142914	-67.4166	-18.1757	-3.67294
 218	1	6	0.135531	-69.894	-17.2444	-0.191128
 219	1	6	0.17765	-76.6277	-15.5895	-3.60792
 220	1	10	0.046541	-74.3869	-14.6308	-3.59423
 221	1	10	0.045238	-72.9438	-15.6231	-3.39473
 222	1	10	0.051941	-73.917	-15.1737	-1.9972
 223	1	10	0.087961	-79.2012	-17.7936	-3.0304
 224	1	10	0.066782	-78.9555	-17.8733	-4.80555
 225	1	10	0.075908	-78.8378	-16.3407	-3.9467
 226	1	10	0.105172	-75.3606	-21.2982	-2.63275
 227	1	10	0.115625	-73.7908	-20.6576	-2.3497
 228	1	10	0.140296	-74.2952	-20.9687	-4.02036
 229	1	3	-0.004194	-50.4632	-22.0705	-3.70273
 230	1	3	-0.097141	-50.6556	-23.0921	-2.72515
 231	1	3	-0.172015	-49.6273	-24.0574	-2.54043
 232	1	5	-0.377994	-49.3513	-20.0644	-5.81686
 233	1	3	0.033493	-49.2604	-22.0389	-4.4294
 234	1	3	-0.063739	-48.4834	-24.061	-3.37757
 235	1	5	-0.398381	-46.0455	-23.241	-5.15164
 236	1	3	0.032144	-48.3156	-23.0274	-4.30865
 237	1	2	0.032313	-48.7544	-21.0483	-5.41908
 238	1	1	0.461698	-47.4616	-21.4595	-5.73169
 239	1	2	0.091945	-47.1234	-22.6616	-5.11713
 240	1	3	-0.10563	-54.7228	-23.3575	-4.38192
 241	1	7	-0.099376	-51.8653	-23.0042	-1.75236
 242	1	3	-0.043296	-53.1524	-22.6404	-2.58769
 243	1	3	-0.073043	-53.5228	-23.5173	-3.6563
 244	1	3	-0.117827	-55.5271	-22.2748	-4.04524
 245	1	3	-0.037562	-53.974	-21.5026	-2.35412
 246	1	3	-0.083705	-55.1641	-21.3577	-3.09928
 247	1	7	0.396	-52.1756	-24.3369	-0.938986
 248	1	7	0.310495	-51.3946	-21.8983	-0.724391
 249	1	8	-0.130298	-51.2175	-24.6559	-0.014178
 250	1	8	-0.128745	-52.3479	-25.4165	-1.73695
 251	1	8	-0.120019	-53.3714	-24.2768	-0.29732
 252	1	8	-0.104287	-51.194	-20.6809	-1.30704
 253	1	8	-0.095507	-50.1913	-22.2334	-0.142495
 254	1	8	-0.104872	-52.2953	-21.7632	0.288976
 255	1	2	0.456145	-56.2589	-20.3261	-3.05317
 256	1	2	0.550902	-56.8688	-21.9261	-4.57908
 257	1	1	0.015704	-57.2069	-20.7099	-4.00412
 258	1	5	-0.456801	-56.2996	-19.3279	-2.35451
 259	1	5	-0.487703	-57.4457	-22.4853	-5.50444
 260	1	3	-0.116566	-58.3367	-19.9347	-4.45893
 261	1	3	-0.050109	-59.4821	-19.7655	-3.65149
 262	1	3	0.154929	-60.6105	-19.0823	-4.18145
 263	1	3	0.041555	-58.3176	-19.3944	-5.76261
 264	1	3	-0.223109	-59.4272	-18.7027	-6.26376
 265	1	3	-0.080449	-60.6048	-18.6321	-5.51066
 266	1	7	-0.108008	-57.052	-19.4813	-6.63324
 267	1	7	-0.182228	-61.8435	-17.9844	-6.13038
 268	1	7	-0.345523	-59.5471	-20.4415	-2.26315
 269	1	6	0.155183	-51.1884	-21.2682	-3.84594
 270	1	6	0.172904	-49.6517	-24.8286	-1.77456
 271	1	6	0.158028	-47.7035	-24.8104	-3.24081
 272	1	6	0.153129	-55.0221	-24.0677	-5.16119
 273	1	6	0.142914	-52.8875	-24.3568	-3.93044
 274	1	6	0.135531	-53.7339	-20.7666	-1.58671
 275	1	6	0.17765	-59.3961	-18.2922	-7.27714
 276	1	10	0.046541	-56.1128	-19.235	-6.10246
 277	1	10	0.045238	-57.1271	-18.7919	-7.50065
 278	1	10	0.051941	-56.9274	-20.4886	-7.05818
 279	1	10	0.087961	-61.683	-16.8981	-6.13249
 280	1	10	0.066782	-62.7852	-18.1666	-5.60362
 281	1	10	0.075908	-61.9521	-18.2561	-7.19096
 282	1	10	0.105172	-59.5121	-19.7379	-1.41873
 283	1	10	0.115625	-58.7702	-21.194	-2.10408
 284	1	10	0.140296	-60.4594	-21.046	-2.16414
 285	1	3	-0.004194	-38.048	-13.8836	-1.85486
 286	1	3	-0.097141	-38.9946	-14.8886	-2.16844
 287	1	3	-0.172015	-38.5682	-16.2411	-2.07302
 288	1	5	-0.377994	-35.5229	-12.204	-1.45346
 289	1	3	0.033493	-36.7304	-14.2553	-1.54565
 290	1	3	-0.063739	-37.2552	-16.5941	-1.76599
 291	1	5	-0.398381	-34.2242	-16.665	-1.36052
 292	1	3	0.032144	-36.3485	-15.5736	-1.49118
 293	1	2	0.032313	-35.5322	-13.4222	-1.38375
 294	1	1	0.461698	-34.4676	-14.3133	-1.31496
 295	1	2	0.091945	-34.8847	-15.6408	-1.30773
 296	1	3	-0.10563	-40.3424	-17.1892	-5.44614
 297	1	7	-0.099376	-40.4648	-14.5675	-2.60788
 298	1	3	-0.043296	-40.9199	-15.4789	-3.78082
 299	1	3	-0.073043	-39.9727	-16.1238	-4.62981
 300	1	3	-0.117827	-41.6999	-17.4539	-5.56311
 301	1	3	-0.037562	-42.2952	-15.6379	-4.10773
 302	1	3	-0.083705	-42.6528	-16.6192	-5.02947
 303	1	7	0.396	-41.3723	-14.8467	-1.34108
 304	1	7	0.310495	-40.6474	-13.0948	-3.14101
 305	1	8	-0.130298	-40.9315	-14.1665	-0.273566
 306	1	8	-0.128745	-41.3823	-16.1786	-1.01045
 307	1	8	-0.120019	-42.661	-14.4383	-1.46441
 308	1	8	-0.104287	-41.8771	-12.8283	-3.65792
 309	1	8	-0.095507	-39.7686	-12.891	-4.15305
 310	1	8	-0.104872	-40.4847	-12.1614	-2.18859
 311	1	2	0.456145	-43.9835	-17.0775	-5.50295
 312	1	2	0.550902	-42.3743	-18.551	-6.25357
 313	1	1	0.015704	-43.7326	-18.237	-6.2142
 314	1	5	-0.456801	-45.051	-16.5259	-5.33905
 315	1	5	-0.487703	-41.8226	-19.5146	-6.74188
 316	1	3	-0.116566	-44.7243	-19.0856	-6.78641
 317	1	3	-0.050109	-45.6768	-19.749	-5.9623
 318	1	3	0.154929	-46.5672	-20.6948	-6.53695
 319	1	3	0.041555	-44.6709	-19.365	-8.17486
 320	1	3	-0.223109	-45.5355	-20.3061	-8.72621
 321	1	3	-0.080449	-46.486	-20.9452	-7.92853
 322	1	7	-0.108008	-43.6322	-18.7367	-9.07211
 323	1	7	-0.182228	-47.461	-21.8867	-8.60648
 324	1	7	-0.345523	-45.6123	-19.5575	-4.44208
 325	1	6	0.155183	-38.2729	-12.8232	-1.93545
 326	1	6	0.172904	-39.2697	-17.0536	-2.27885
 327	1	6	0.158028	-36.9304	-17.6258	-1.79027
 328	1	6	0.153129	-39.6073	-17.7904	-5.98037
 329	1	6	0.142914	-38.9162	-15.9092	-4.56609
 330	1	6	0.135531	-43.0886	-15.0686	-3.62589
 331	1	6	0.17765	-45.4878	-20.5057	-9.7959
 332	1	10	0.046541	-42.8409	-19.4799	-9.24233
 333	1	10	0.045238	-43.1641	-17.8321	-8.66395
 334	1	10	0.051941	-44.013	-18.4826	-10.0688
 335	1	10	0.087961	-47.1827	-22.0692	-9.64294
 336	1	10	0.066782	-48.4537	-21.431	-8.6314
 337	1	10	0.075908	-47.5263	-22.8489	-8.10394
 338	1	10	0.105172	-44.5817	-19.6208	-4.09019
 339	1	10	0.115625	-46.1802	-20.2935	-3.86199
 340	1	10	0.140296	-46.008	-18.5741	-4.16912
 341	1	3	-0.004194	-22.3021	-14.7763	-1.49515
 342	1	3	-0.097141	-23.6182	-14.6926	-0.949743
 343	1	3	-0.172015	-24.7318	-14.9335	-1.82421
 344	1	5	-0.377994	-19.8103	-14.9045	-3.27449
 345	1	3	0.033493	-22.1575	-15.1799	-2.82891
 346	1	3	-0.063739	-24.5479	-15.2685	-3.18415
 347	1	5	-0.398381	-23.4248	-15.6496	-6.09302
 348	1	3	0.032144	-23.2411	-15.3979	-3.67726
 349	1	2	0.032313	-20.9247	-15.2087	-3.65569
 350	1	1	0.461698	-21.3527	-15.4314	-4.97355
 351	1	2	0.091945	-22.7451	-15.5494	-5.08442
 352	1	3	-0.10563	-27.0304	-16.3294	1.05859
 353	1	7	-0.099376	-23.8489	-14.1953	0.510557
 354	1	3	-0.043296	-25.3364	-14.5195	0.89666
 355	1	3	-0.073043	-25.6975	-15.895	0.998875
 356	1	3	-0.117827	-28.022	-15.3547	0.936169
 357	1	3	-0.037562	-26.3774	-13.5588	0.973627
 358	1	3	-0.083705	-27.6957	-14.0041	0.965058
 359	1	7	0.396	-23.5509	-12.636	0.546367
 360	1	7	0.310495	-22.8681	-14.9092	1.53373
 361	1	8	-0.130298	-24.3186	-12.0044	-0.371237
 362	1	8	-0.128745	-22.2673	-12.2493	0.20694
 363	1	8	-0.120019	-23.8793	-12.1374	1.76165
 364	1	8	-0.104287	-22.6045	-16.208	1.26552
 365	1	8	-0.095507	-23.3762	-14.8416	2.78894
 366	1	8	-0.104872	-21.6472	-14.3234	1.53084
 367	1	2	0.456145	-28.8895	-13.2335	0.538994
 368	1	2	0.550902	-29.3896	-15.4817	0.380378
 369	1	1	0.015704	-29.7813	-14.1807	0.0784361
 370	1	5	-0.456801	-28.9584	-12.0242	0.472292
 371	1	5	-0.487703	-29.8939	-16.5066	-0.0229798
 372	1	3	-0.116566	-30.7814	-13.8663	-0.88752
 373	1	3	-0.050109	-32.1434	-14.0826	-0.553734
 374	1	3	0.154929	-33.1239	-13.9313	-1.56243
 375	1	3	0.041555	-30.4225	-13.438	-2.20144
 376	1	3	-0.223109	-31.4191	-13.3173	-3.18936
 377	1	3	-0.080449	-32.7587	-13.5634	-2.88682
 378	1	7	-0.108008	-29.0215	-13.0075	-2.61784
 379	1	7	-0.182228	-33.7638	-13.3828	-4.03387
 380	1	7	-0.345523	-32.5278	-14.5441	0.866523
 381	1	6	0.155183	-21.4023	-14.5019	-0.942557
 382	1	6	0.172904	-25.7592	-14.8206	-1.47574
 383	1	6	0.158028	-25.3914	-15.3708	-3.86281
 384	1	6	0.153129	-27.2776	-17.3858	0.969013
 385	1	6	0.142914	-24.9353	-16.6593	0.911369
 386	1	6	0.135531	-26.2202	-12.485	0.884528
 387	1	6	0.17765	-31.159	-12.974	-4.18193
 388	1	10	0.046541	-28.2284	-13.5941	-2.13995
 389	1	10	0.045238	-28.8394	-11.9602	-2.3774
 390	1	10	0.051941	-28.8973	-13.1503	-3.70091
 391	1	10	0.087961	-33.3035	-13.5247	-5.01821
 392	1	10	0.066782	-34.2138	-12.3766	-4.02124
 393	1	10	0.075908	-34.5822	-14.1043	-3.9933
 394	1	10	0.105172	-31.8052	-14.2618	1.62555
 395	1	10	0.115625	-32.6488	-15.643	0.890255
 396	1	10	0.140296	-33.4765	-14.1	1.18637
 397	1	1	0.48116	-12.3506	-3.45705	-9.27574
 398	1	2	0.034009	-13.5568	-2.73394	-9.26066
 399	1	3	0.028921	-14.4088	-3.26184	-10.3301
 400	1	2	0.071556	-12.3801	-4.45791	-10.2502
 401	1	3	0.025276	-13.7272	-4.33183	-10.8822
 402	1	5	-0.381907	-14.0	-1.97013	-8.41046
 403	1	5	-0.393799	-11.6755	-5.44951	-10.3338
 404	1	3	-0.008998	-15.7513	-2.97655	-10.647
 405	1	3	-0.064503	-14.2869	-5.09047	-11.9079
 406	1	3	-0.16756	-15.6367	-4.84758	-12.2378
 407	1	3	-0.085161	-16.396	-3.79077	-11.6268
 408	1	6	0.158939	-16.2545	-2.20177	-10.0691
 409	1	6	0.163781	-13.7192	-5.86919	-12.3777
 410	1	6	0.161401	-16.0599	-5.48775	-12.9928
 411	1	7	-0.078003	-17.9133	-3.57628	-11.9812
 412	1	7	0.303704	-18.5988	-2.43723	-11.1251
 413	1	8	-0.1084	-18.0021	-1.21433	-11.3785
 414	1	8	-0.101508	-18.53	-2.76046	-9.78424
 415	1	8	-0.111714	-19.9155	-2.33569	-11.4292
 416	1	7	0.380371	-18.0256	-3.16246	-13.5175
 417	1	8	-0.124028	-17.8925	-4.26569	-14.3005
 418	1	8	-0.119704	-17.0019	-2.33723	-13.86
 419	1	8	-0.115877	-19.1549	-2.46932	-13.8686
 420	1	3	-0.024709	-18.6806	-4.8876	-11.6208
 421	1	3	-0.076489	-18.269	-5.70774	-10.5306
 422	1	3	-0.052344	-19.0148	-6.85342	-10.2397
 423	1	3	-0.054202	-19.8598	-5.24069	-12.3406
 424	1	3	-0.149083	-20.6227	-6.38251	-11.9965
 425	1	3	-0.063027	-20.1921	-7.15623	-10.8968
 426	1	2	0.499526	-20.7764	-8.37795	-10.2628
 427	1	1	-0.036881	-19.8489	-8.7546	-9.2617
 428	1	2	0.443545	-18.7533	-7.88585	-9.23115
 429	1	3	0.038197	-20.0114	-9.87466	-8.37234
 430	1	3	-0.408621	-19.7689	-9.72049	-6.99897
 431	1	3	0.252781	-19.8308	-10.8394	-6.15693
 432	1	3	-0.169778	-20.4515	-11.1417	-8.83257
 433	1	3	-0.113042	-20.5792	-12.2476	-7.95548
 434	1	3	0.016958	-20.1952	-12.1116	-6.60949
 435	1	6	0.167832	-21.5369	-6.62435	-12.5301
 436	1	6	0.134138	-20.1984	-4.62254	-13.1757
 437	1	6	0.145229	-17.3843	-5.49617	-9.93362
 438	1	5	-0.462312	-17.7907	-7.83507	-8.49132
 439	1	5	-0.483102	-21.7941	-8.9299	-10.6696
 440	1	6	0.144532	-20.8859	-13.2162	-8.33067
 441	1	6	0.226042	-19.471	-8.75515	-6.58356
 442	1	3	0.12103	-19.5458	-14.3864	-6.20272
 443	1	3	-0.09864	-18.4148	-14.4542	-7.03499
 444	1	3	-0.194398	-18.0303	-15.7064	-7.56408
 445	1	3	-0.091961	-18.7417	-16.8471	-7.20231
 446	1	3	-0.197799	-19.8738	-16.7512	-6.36339
 447	1	3	-0.102777	-20.4256	-15.4846	-6.07036
 448	1	6	0.132074	-18.3672	-17.8282	-7.49264
 449	1	6	0.154044	-20.3461	-17.649	-5.97057
 450	1	6	0.145155	-17.8015	-13.5689	-7.22798
 451	1	6	0.14558	-21.0857	-15.2953	-6.90464
 452	1	9	-0.24014	-19.9881	-13.1674	-5.76982
 453	1	6	0.152938	-20.698	-11.286	-9.88096
 454	1	6	0.151751	-17.125	-15.781	-8.17297
 455	1	1	0.48116	0.255483	9.3002	-4.64912
 456	1	2	0.034009	-0.953137	9.9212	-4.26223
 457	1	3	0.028921	-1.93756	9.53329	-5.30086
 458	1	2	0.071556	0.0914284	8.47125	-5.74096
 459	1	3	0.025276	-1.2789	8.74067	-6.2276
 460	1	5	-0.381907	-1.11561	10.7218	-3.34442
 461	1	5	-0.393799	0.929067	7.79117	-6.2987
 462	1	3	-0.008998	-3.35307	9.72297	-5.31001
 463	1	3	-0.064503	-2.04426	8.08772	-7.18142
 464	1	3	-0.16756	-3.405	8.38581	-7.26534
 465	1	3	-0.085161	-4.10571	9.16452	-6.34312
 466	1	6	0.158939	-3.82136	10.2563	-4.49109
 467	1	6	0.163781	-1.58336	7.35804	-7.87767
 468	1	6	0.161401	-3.93245	7.78612	-8.00764
 469	1	7	-0.078003	-5.67098	9.0612	-6.37155
 470	1	7	0.303704	-6.45748	9.75498	-5.15786
 471	1	8	-0.1084	-7.77547	9.45842	-5.24454
 472	1	8	-0.101508	-6.48988	11.0973	-5.19467
 473	1	8	-0.111714	-6.06219	9.25876	-3.98263
 474	1	7	0.380371	-6.19433	9.53034	-7.85637
 475	1	8	-0.124028	-5.97572	8.62547	-8.84627
 476	1	8	-0.119704	-5.61441	10.6921	-8.1503
 477	1	8	-0.115877	-7.47326	9.80715	-8.00907
 478	1	3	-0.024709	-6.00749	7.54562	-6.20496
 479	1	3	-0.076489	-7.219	6.99613	-6.72543
 480	1	3	-0.052344	-7.46041	5.60625	-6.55344
 481	1	3	-0.054202	-5.18008	6.6698	-5.45453
 482	1	3	-0.149083	-5.41086	5.28238	-5.3562
 483	1	3	-0.063027	-6.57341	4.78169	-5.89436
 484	1	2	0.499526	-6.99527	3.36469	-6.0036
 485	1	1	-0.036881	-8.16243	3.42451	-6.76277
 486	1	2	0.443545	-8.45751	4.71473	-7.15315
 487	1	3	0.038197	-8.8923	2.28961	-7.1684
 488	1	3	-0.408621	-9.47922	2.17863	-8.46156
 489	1	3	0.252781	-10.2013	1.03433	-8.85988
 490	1	3	-0.169778	-9.03698	1.21386	-6.25528
 491	1	3	-0.113042	-9.66642	0.0265547	-6.6638
 492	1	3	0.016958	-10.2716	-0.04186	-7.95223
 493	1	6	0.167832	-4.70876	4.63552	-4.83221
 494	1	6	0.134138	-4.2828	7.06821	-4.98981
 495	1	6	0.145229	-7.92942	7.60126	-7.28745
 496	1	5	-0.462312	-9.33752	5.09048	-7.88872
 497	1	5	-0.483102	-6.50803	2.37105	-5.48576
 498	1	6	0.144532	-9.70515	-0.818651	-5.96724
 499	1	6	0.226042	-9.4702	3.02295	-9.17219
 500	1	3	0.12103	-11.3009	-2.25129	-7.54971
 501	1	3	-0.09864	-11.8644	-2.01948	-6.26353
 502	1	3	-0.194398	-12.2115	-3.12773	-5.48754
 503	1	3	-0.091961	-12.1495	-4.42393	-6.03899
 504	1	3	-0.197799	-11.7474	-4.60753	-7.37105
 505	1	3	-0.102777	-11.4327	-3.50724	-8.18899
 506	1	6	0.132074	-12.3983	-5.3007	-5.43362
 507	1	6	0.154044	-11.6583	-5.62016	-7.76005
 508	1	6	0.145155	-11.8562	-1.03722	-5.81226
 509	1	6	0.14558	-10.5692	-3.69357	-8.81778
 510	1	9	-0.24014	-10.892	-1.21586	-8.32321
 511	1	6	0.152938	-8.60004	1.26042	-5.27057
 512	1	6	0.151751	-12.4577	-2.99363	-4.43605
 513	1	1	0.48116	4.32925	26.8687	-3.39502
 514	1	2	0.034009	3.11263	26.4215	-2.86844
 515	1	3	0.028921	2.73563	25.2166	-3.77065
 516	1	2	0.071556	4.76261	26.0235	-4.46149
 517	1	3	0.025276	3.77573	24.973	-4.67217
 518	1	5	-0.381907	2.44676	27.0128	-2.00702
 519	1	5	-0.393799	5.72838	26.1902	-5.16517
 520	1	3	-0.008998	1.54825	24.4612	-3.80435
 521	1	3	-0.064503	3.69878	24.004	-5.71986
 522	1	3	-0.16756	2.45468	23.2795	-5.82383
 523	1	3	-0.085161	1.3934	23.4763	-4.85692
 524	1	6	0.158939	0.679824	24.8733	-3.21845
 525	1	6	0.163781	4.48727	23.8706	-6.47911
 526	1	6	0.161401	2.33917	22.5941	-6.61104
 527	1	7	-0.078003	0.0140778	22.8285	-5.1331
 528	1	7	0.303704	-0.819003	22.7652	-3.78177
 529	1	8	-0.1084	-1.32319	23.8973	-3.22774
 530	1	8	-0.101508	-0.0160979	22.2579	-2.76162
 531	1	8	-0.111714	-1.86135	21.8796	-3.79863
 532	1	7	0.380371	-0.779232	23.7258	-6.16306
 533	1	8	-0.124028	-0.893639	25.0168	-5.64452
 534	1	8	-0.119704	-1.9783	23.3268	-6.59261
 535	1	8	-0.115877	0.0324111	23.8845	-7.23267
 536	1	3	-0.024709	0.265948	21.3969	-5.77167
 537	1	3	-0.076489	1.02824	20.4685	-5.01363
 538	1	3	-0.052344	1.1125	19.1423	-5.48852
 539	1	3	-0.054202	-0.359831	20.9667	-6.94311
 540	1	3	-0.149083	-0.27223	19.6129	-7.38304
 541	1	3	-0.063027	0.418649	18.7481	-6.62252
 542	1	2	0.499526	0.438253	17.2943	-6.67431
 543	1	1	-0.036881	1.20725	16.8738	-5.59301
 544	1	2	0.443545	1.6327	17.9143	-4.83805
 545	1	3	0.038197	1.47052	15.4718	-5.27764
 546	1	3	-0.408621	2.77499	14.9885	-5.08781
 547	1	3	0.252781	2.99082	13.6185	-4.84058
 548	1	3	-0.169778	0.434175	14.4895	-5.32757
 549	1	3	-0.113042	0.737356	13.1223	-5.20304
 550	1	3	0.016958	1.98012	12.6556	-4.87079
 551	1	6	0.167832	-0.688077	19.3242	-8.31199
 552	1	6	0.134138	-0.976438	21.5175	-7.61935
 553	1	6	0.145229	1.53897	20.6916	-4.07806
 554	1	5	-0.462312	2.58484	17.9628	-4.09398
 555	1	5	-0.483102	0.23271	16.6668	-7.72427
 556	1	6	0.144532	-0.0694089	12.3853	-5.30236
 557	1	6	0.226042	3.6392	15.6426	-5.09322
 558	1	3	0.12103	2.04809	10.5162	-3.75661
 559	1	3	-0.09864	2.84404	10.7424	-2.66942
 560	1	3	-0.194398	2.82259	9.93777	-1.5301
 561	1	3	-0.091961	1.9907	8.82046	-1.53135
 562	1	3	-0.197799	1.32089	8.4845	-2.72504
 563	1	3	-0.102777	1.43197	9.26404	-3.87658
 564	1	6	0.132074	1.93085	8.17302	-0.669088
 565	1	6	0.154044	0.816223	7.5091	-2.74667
 566	1	6	0.145155	3.48759	11.6343	-2.7399
 567	1	6	0.14558	2.11479	8.67597	-4.5193
 568	1	9	-0.24014	2.26455	11.3172	-4.83208
 569	1	6	0.152938	-0.600828	14.7303	-5.50042
 570	1	6	0.151751	3.4369	10.161	-0.642354
 571	1	3	-0.004194	15.6198	29.9977	1.52385
 572	1	3	-0.097141	14.28	30.0013	1.09499
 573	1	3	-0.172015	13.4262	28.905	1.48937
 574	1	5	-0.377994	18.2171	29.6044	2.74861
 575	1	3	0.033493	16.0045	28.9249	2.29193
 576	1	3	-0.063739	13.8453	27.9063	2.39433
 577	1	5	-0.398381	15.4325	26.3146	4.58457
 578	1	3	0.032144	15.178	27.9721	2.82877
 579	1	2	0.032313	17.313	28.8223	2.98203
 580	1	1	0.461698	17.2104	27.707	3.86011
 581	1	2	0.091945	15.9318	27.1905	3.83784
 582	1	3	-0.10563	11.8698	29.2463	-2.65307
 583	1	7	-0.099376	13.6923	31.1861	0.279919
 584	1	3	-0.043296	12.5714	30.5939	-0.624631
 585	1	3	-0.073043	12.904	29.8043	-1.83025
 586	1	3	-0.117827	10.5537	29.4087	-2.16828
 587	1	3	-0.037562	11.2054	30.6992	-0.276944
 588	1	3	-0.083705	10.2173	30.2058	-1.10517
 589	1	7	0.396	13.2063	32.2974	1.36788
 590	1	7	0.310495	14.7423	31.8162	-0.754166
 591	1	8	-0.130298	12.6614	33.5008	0.874931
 592	1	8	-0.128745	14.183	32.7029	2.28193
 593	1	8	-0.120019	12.3613	31.6528	2.18632
 594	1	8	-0.104287	14.2285	32.5248	-1.75437
 595	1	8	-0.095507	15.4577	32.5391	0.0390972
 596	1	8	-0.104872	15.5766	30.9429	-1.26221
 597	1	2	0.456145	8.73222	30.1522	-0.933324
 598	1	2	0.550902	9.29321	28.932	-2.71732
 599	1	1	0.015704	8.26503	29.4131	-1.96569
 600	1	5	-0.456801	8.08428	30.6247	-0.00879245
 601	1	5	-0.487703	9.31457	28.3459	-3.75665
 602	1	3	-0.116566	6.89891	29.3927	-2.35812
 603	1	3	-0.050109	6.25072	28.1694	-2.54578
 604	1	3	0.154929	4.95637	28.1171	-3.16799
 605	1	3	0.041555	6.24881	30.5781	-2.79797
 606	1	3	-0.223109	4.98818	30.5195	-3.38855
 607	1	3	-0.080449	4.26937	29.3251	-3.50355
 608	1	7	-0.108008	6.75732	32.0516	-2.61607
 609	1	7	-0.182228	2.80865	29.3046	-3.95454
 610	1	7	-0.345523	6.92045	26.9123	-2.00966
 611	1	6	0.155183	16.3012	30.8198	1.43444
 612	1	6	0.172904	12.4114	28.8012	1.19276
 613	1	6	0.158028	13.2903	27.1361	2.84093
 614	1	6	0.153129	12.1071	28.56	-3.44422
 615	1	6	0.142914	13.8694	29.6976	-2.17807
 616	1	6	0.135531	10.9702	31.2441	0.578202
 617	1	6	0.17765	4.46839	31.4388	-3.73626
 618	1	10	0.046541	5.92244	32.7144	-2.31205
 619	1	10	0.045238	7.07509	32.5043	-3.53423
 620	1	10	0.051941	7.55337	32.2119	-1.9078
 621	1	10	0.087961	2.58834	28.5744	-4.71023
 622	1	10	0.066782	2.46362	30.3008	-4.29274
 623	1	10	0.075908	2.1317	29.0418	-3.17748