pySIMM System Object

684 atoms
749 bonds
1304 angles
1980 dihedrals
216 impropers

10 atom types
12 bond types
21 angle types
8 dihedral types
4 improper types

-111.640212 111.640212 xlo xhi
-111.640212 111.640212 ylo yhi
-111.640212 111.640212 zlo zhi

Masses

   1	12.01	# ca
   2	16.0	# o
   3	12.01	# c
   4	14.01	# n
   5	12.01	# c3
   6	19.0	# f
   7	1.008	# ha
   8	1.008	# hn
   9	1.008	# hc
  10	16.0	# os

Pair Coeffs

   1	0.086	3.3996695084235347	# ca
   2	0.21	2.959921901149463	# o
   3	0.086	3.3996695084235347	# c
   4	0.17	3.249998523775958	# n
   5	0.1094	3.3996695084235347	# c3
   6	0.061	3.1181455134911875	# f
   7	0.015	2.59964245953351	# ha
   8	0.0157	1.069078461768407	# hn
   9	0.0157	2.649532787749369	# hc
  10	0.17	3.0000123434657784	# os

Bond Coeffs

   1	345.8	1.086	# ca,ha
   2	300.9	1.5375	# c3,c3
   3	637.7	1.2183	# c,o
   4	356.9	1.3497	# c3,f
   5	427.6	1.3789	# c,n
   6	345.9	1.4906	# c,ca
   7	330.6	1.0969	# c3,hc
   8	384.2	1.4121	# ca,n
   9	321.0	1.5156	# c3,ca
  10	403.2	1.0129	# hn,n
  11	461.1	1.3984	# ca,ca
  12	376.6	1.3696	# ca,os

Angle Coeffs

   1	68.72	122.6	# ca,c,o
   2	48.33	117.55	# c,n,hn
   3	67.68	115.25	# ca,c,n
   4	63.15	112.07	# c3,c3,ca
   5	62.86	111.51	# c3,c3,c3
   6	63.82	123.71	# c,n,ca
   7	67.87	120.19	# ca,ca,n
   8	63.53	120.77	# c3,ca,ca
   9	63.56	112.24	# ca,c3,ca
  10	63.74	127.08	# c,n,c
  11	48.18	119.88	# ca,ca,ha
  12	64.28	120.33	# c,ca,ca
  13	70.89	107.36	# f,c3,f
  14	39.4	107.58	# hc,c3,hc
  15	74.22	123.05	# n,c,o
  16	66.11	109.24	# c3,c3,f
  17	46.8	110.47	# ca,c3,hc
  18	66.62	120.02	# ca,ca,ca
  19	63.48	119.89	# ca,os,ca
  20	69.58	119.2	# ca,ca,os
  21	49.75	116.02	# ha,ca,n

Dihedral Coeffs

   1	2	2.5	2	180	2.0	1	0	# hn,n,c,o
   2	1	3.625	2	180	# X,ca,ca,X
   3	1	1.0	2	180	# X,c,ca,X
   4	1	0.15555555555555556	3	0	# X,c3,c3,X
   5	1	0.0	2	0	# X,c3,ca,X
   6	1	2.5	2	180	# X,c,n,X
   7	1	0.45	2	180	# X,ca,n,X
   8	1	0.9	2	180	# X,ca,os,X

Improper Coeffs

   1	1.1	-1	2	# ca,ca,ca,c3
   2	1.1	-1	2	# ca,X,X,ha
   3	1.1	-1	2	# n,X,X,hn
   4	10.5	-1	2	# c,X,X,o

Atoms

   1	1	1	-0.004194	6.94142	-26.8831	-10.7651
   2	1	1	-0.097141	7.52338	-28.1722	-10.8074
   3	1	1	-0.172015	7.43823	-28.8859	-12.0436
   4	1	2	-0.377994	5.25573	-24.2902	-11.1975
   5	1	1	0.033493	6.25933	-26.3891	-11.8904
   6	1	1	-0.063739	6.68987	-28.4134	-13.1451
   7	1	2	-0.398381	4.97862	-26.713	-15.1573
   8	1	1	0.032144	6.09244	-27.1578	-13.0315
   9	1	3	0.032313	5.51268	-25.1056	-12.0724
  10	1	4	0.461698	5.00285	-25.1745	-13.3737
  11	1	3	0.091945	5.30547	-26.3606	-14.0308
  12	1	1	-0.10563	5.5962	-27.8256	-6.93827
  13	1	5	-0.099376	8.34113	-28.6364	-9.58565
  14	1	1	-0.043296	7.66027	-28.1861	-8.2627
  15	1	1	-0.073043	6.23689	-28.2179	-8.12613
  16	1	1	-0.117827	6.39735	-27.4465	-5.86082
  17	1	1	-0.037562	8.41981	-27.7868	-7.14155
  18	1	1	-0.083705	7.75679	-27.4382	-5.97403
  19	1	5	0.396	9.76308	-27.9817	-9.73064
  20	1	5	0.310495	8.44594	-30.199	-9.53789
  21	1	6	-0.130298	10.1768	-28.0678	-11.0036
  22	1	6	-0.128745	10.713	-28.5543	-8.96506
  23	1	6	-0.120019	9.71863	-26.667	-9.47227
  24	1	6	-0.104287	7.22039	-30.7297	-9.78542
  25	1	6	-0.095507	8.80401	-30.6845	-8.32041
  26	1	6	-0.104872	9.35397	-30.6969	-10.4045
  27	1	3	0.456145	8.31613	-26.9487	-4.71255
  28	1	3	0.550902	6.0599	-27.0913	-4.4517
  29	1	4	0.015704	7.26528	-26.7903	-3.84239
  30	1	2	-0.456801	9.48813	-26.7206	-4.51239
  31	1	2	-0.487703	4.93767	-27.0006	-3.99266
  32	1	1	-0.116566	7.42099	-26.4019	-2.48963
  33	1	1	-0.050109	7.59048	-25.0482	-2.13842
  34	1	1	0.154929	7.72532	-24.7109	-0.774264
  35	1	1	0.041555	7.43705	-27.405	-1.5063
  36	1	1	-0.223109	7.54192	-27.0619	-0.153026
  37	1	1	-0.080449	7.68199	-25.7208	0.218614
  38	1	5	-0.108008	7.30027	-28.8653	-1.9162
  39	1	5	-0.182228	7.72627	-25.4133	1.69055
  40	1	5	-0.345523	7.55428	-23.9575	-3.23428
  41	1	7	0.155183	7.0314	-26.2391	-9.89487
  42	1	7	0.172904	7.9376	-29.8367	-12.1697
  43	1	7	0.158028	6.56531	-28.9959	-14.0534
  44	1	7	0.153129	4.50724	-27.8657	-6.85069
  45	1	7	0.142914	5.62744	-28.5992	-8.9413
  46	1	7	0.135531	9.50566	-27.7484	-7.11911
  47	1	7	0.17765	7.50145	-27.8409	0.597674
  48	1	9	0.046541	7.81421	-29.0963	-2.86415
  49	1	9	0.045238	6.24783	-29.1497	-2.02294
  50	1	9	0.051941	7.73202	-29.5267	-1.15472
  51	1	9	0.087961	7.5753	-24.3388	1.87634
  52	1	9	0.066782	8.69852	-25.6967	2.09625
  53	1	9	0.075908	6.94614	-25.9752	2.22967
  54	1	9	0.105172	6.53684	-23.821	-3.63135
  55	1	9	0.115625	8.19755	-24.2188	-4.08638
  56	1	9	0.140296	7.9041	-22.9804	-2.87049
  57	1	4	0.48116	6.42817	-18.4983	-2.51799
  58	1	3	0.034009	6.58703	-19.7414	-1.92508
  59	1	1	0.028921	5.23832	-20.3224	-1.83686
  60	1	3	0.071556	5.11299	-18.2917	-2.89075
  61	1	1	0.025276	4.37077	-19.4442	-2.40738
  62	1	2	-0.381907	7.6109	-20.3153	-1.65807
  63	1	2	-0.393799	4.6135	-17.3387	-3.43089
  64	1	1	-0.008998	4.84211	-21.5512	-1.36097
  65	1	1	-0.064503	3.00925	-19.7248	-2.4929
  66	1	1	-0.16756	2.58017	-21.0095	-2.09176
  67	1	1	-0.085161	3.46896	-21.9287	-1.45664
  68	1	7	0.158939	5.64334	-22.1908	-0.983602
  69	1	7	0.163781	2.33508	-19.0162	-2.97849
  70	1	7	0.161401	1.54479	-21.2645	-2.28857
  71	1	5	-0.078003	2.9106	-23.3172	-1.03023
  72	1	5	0.303704	4.03103	-24.2116	-0.363189
  73	1	6	-0.1084	4.81461	-23.6007	0.568504
  74	1	6	-0.101508	4.86703	-24.6799	-1.29265
  75	1	6	-0.111714	3.5276	-25.3093	0.232013
  76	1	5	0.380371	1.79553	-22.9795	0.0503515
  77	1	6	-0.124028	0.699412	-22.4418	-0.504325
  78	1	6	-0.119704	2.21443	-22.0814	0.954151
  79	1	6	-0.115877	1.33576	-24.0508	0.748043
  80	1	1	-0.024709	2.33749	-23.9757	-2.33462
  81	1	1	-0.076489	2.92415	-23.7239	-3.61493
  82	1	1	-0.052344	2.4294	-24.4028	-4.72823
  83	1	1	-0.054202	1.24253	-24.8936	-2.2741
  84	1	1	-0.149083	0.704658	-25.4596	-3.45918
  85	1	1	-0.063027	1.33674	-25.2282	-4.68521
  86	1	3	0.499526	1.00571	-25.6677	-6.06099
  87	1	4	-0.036881	1.99287	-25.0939	-6.86948
  88	1	3	0.443545	2.88843	-24.341	-6.12866
  89	1	1	0.038197	2.01098	-25.1057	-8.30208
  90	1	1	-0.408621	1.96233	-23.9002	-9.04294
  91	1	1	0.252781	2.00549	-23.8977	-10.4338
  92	1	1	-0.169778	2.11559	-26.3009	-9.03944
  93	1	1	-0.113042	2.27398	-26.2739	-10.4522
  94	1	1	0.016958	2.1843	-25.0674	-11.1594
  95	1	7	0.167832	-0.141841	-26.1289	-3.38847
  96	1	7	0.134138	0.777515	-25.1127	-1.32499
  97	1	7	0.145229	3.75919	-23.0394	-3.74805
  98	1	2	-0.462312	3.85036	-23.7202	-6.49984
  99	1	2	-0.483102	-0.0564031	-26.1621	-6.38982
 100	1	7	0.144532	2.46168	-27.1885	-10.9946
 101	1	7	0.226042	1.92815	-22.9463	-8.53736
 102	1	1	0.12103	2.99843	-23.9294	-13.1832
 103	1	1	-0.09864	2.30437	-22.7208	-13.2309
 104	1	1	-0.194398	2.85626	-21.6506	-13.9339
 105	1	1	-0.091961	4.13867	-21.7483	-14.5018
 106	1	1	-0.197799	4.83545	-22.9761	-14.4366
 107	1	1	-0.102777	4.1854	-24.1436	-13.9315
 108	1	7	0.132074	4.59063	-20.8747	-14.9491
 109	1	7	0.154044	5.86108	-23.0082	-14.7925
 110	1	7	0.145155	1.32875	-22.6389	-12.7629
 111	1	7	0.14558	3.81001	-24.6408	-14.8131
 112	1	10	-0.24014	2.44507	-25.0079	-12.5148
 113	1	7	0.152938	2.17329	-27.2478	-8.51646
 114	1	7	0.151751	2.30252	-20.7078	-13.9797
 115	1	4	0.48116	-2.37338	-10.9349	1.13434
 116	1	3	0.034009	-1.21451	-10.3553	1.57672
 117	1	1	0.028921	-0.90802	-10.8834	2.95681
 118	1	3	0.071556	-2.78055	-11.8877	2.09144
 119	1	1	0.025276	-1.91713	-11.762	3.26865
 120	1	2	-0.381907	-0.511128	-9.53421	1.02081
 121	1	2	-0.393799	-3.72815	-12.6502	2.09341
 122	1	1	-0.008998	0.0857945	-10.4896	3.87355
 123	1	1	-0.064503	-2.11776	-12.1441	4.58852
 124	1	1	-0.16756	-1.15112	-11.7445	5.54432
 125	1	1	-0.085161	-0.0067614	-10.9435	5.21341
 126	1	7	0.158939	0.889036	-9.87523	3.49016
 127	1	7	0.163781	-2.97207	-12.7476	4.85253
 128	1	7	0.161401	-1.28557	-12.0762	6.59553
 129	1	5	-0.078003	1.15856	-10.5716	6.24085
 130	1	5	0.303704	1.12987	-8.95757	6.33592
 131	1	6	-0.1084	1.70415	-8.381	7.41028
 132	1	6	-0.101508	-0.131665	-8.59015	6.47761
 133	1	6	-0.111714	1.67859	-8.26289	5.30334
 134	1	5	0.380371	0.975362	-11.2386	7.68958
 135	1	6	-0.124028	2.09056	-11.1697	8.40074
 136	1	6	-0.119704	0.709577	-12.5897	7.79157
 137	1	6	-0.115877	0.000980174	-10.6905	8.43355
 138	1	1	-0.024709	2.46858	-11.1201	5.6263
 139	1	1	-0.076489	2.48273	-12.2543	4.78533
 140	1	1	-0.052344	3.62863	-12.6084	4.04888
 141	1	1	-0.054202	3.7293	-10.4376	5.77079
 142	1	1	-0.149083	4.87952	-10.8307	5.06212
 143	1	1	-0.063027	4.75334	-11.8334	4.09994
 144	1	3	0.499526	5.70754	-12.4273	3.09197
 145	1	4	-0.036881	5.11949	-13.6343	2.63921
 146	1	3	0.443545	3.83157	-13.7141	3.128
 147	1	1	0.038197	5.74015	-14.6511	1.82477
 148	1	1	-0.408621	6.70954	-15.5006	2.36712
 149	1	1	0.252781	7.47919	-16.3677	1.58167
 150	1	1	-0.169778	5.33171	-14.9184	0.494359
 151	1	1	-0.113042	6.003	-15.9292	-0.281842
 152	1	1	0.016958	7.14322	-16.5775	0.237394
 153	1	7	0.167832	5.82206	-10.2868	5.15026
 154	1	7	0.134138	3.82197	-9.5968	6.43946
 155	1	7	0.145229	1.59068	-12.8741	4.66827
 156	1	2	-0.462312	3.03308	-14.6248	2.97227
 157	1	2	-0.483102	6.81405	-11.9919	2.84626
 158	1	7	0.144532	5.73815	-16.0726	-1.31088
 159	1	7	0.226042	6.96289	-15.3819	3.41456
 160	1	1	0.12103	8.32135	-17.2108	-1.85772
 161	1	1	-0.09864	9.47608	-16.476	-2.17061
 162	1	1	-0.194398	9.88436	-16.4363	-3.53126
 163	1	1	-0.091961	9.15329	-17.1005	-4.52738
 164	1	1	-0.197799	7.98847	-17.7635	-4.16439
 165	1	1	-0.102777	7.44731	-17.6006	-2.87785
 166	1	7	0.132074	9.50033	-17.123	-5.56108
 167	1	7	0.154044	7.52933	-18.4058	-4.87699
 168	1	7	0.145155	10.0759	-16.0141	-1.37972
 169	1	7	0.14558	6.92788	-16.6579	-3.06016
 170	1	10	-0.24014	7.97703	-17.3988	-0.535106
 171	1	7	0.152938	4.54754	-14.329	0.0266704
 172	1	7	0.151751	10.7936	-15.9272	-3.82434
 173	1	4	0.48116	-8.15006	7.88491	-2.16787
 174	1	3	0.034009	-9.1518	6.91713	-2.17946
 175	1	1	0.028921	-8.57443	5.68256	-2.67326
 176	1	3	0.071556	-6.98119	7.41189	-2.76211
 177	1	1	0.025276	-7.2396	5.93843	-2.96404
 178	1	2	-0.381907	-10.3117	6.98426	-1.87325
 179	1	2	-0.393799	-5.90547	7.97181	-2.88232
 180	1	1	-0.008998	-9.12651	4.36077	-2.85342
 181	1	1	-0.064503	-6.40444	4.86213	-3.31285
 182	1	1	-0.16756	-6.86258	3.52783	-3.31161
 183	1	1	-0.085161	-8.28207	3.25857	-3.1645
 184	1	7	0.158939	-10.1895	4.1639	-2.64998
 185	1	7	0.163781	-5.36676	4.98522	-3.58359
 186	1	7	0.161401	-6.15905	2.69685	-3.58738
 187	1	5	-0.078003	-8.6633	1.78426	-3.44899
 188	1	5	0.303704	-10.2291	1.57536	-3.22776
 189	1	6	-0.1084	-11.075	2.41322	-3.84106
 190	1	6	-0.101508	-10.508	1.79665	-1.96458
 191	1	6	-0.111714	-10.6232	0.272027	-3.47005
 192	1	5	0.380371	-8.25994	1.49219	-4.98711
 193	1	6	-0.124028	-7.03064	0.811331	-5.08517
 194	1	6	-0.119704	-8.17685	2.60064	-5.81302
 195	1	6	-0.115877	-9.14755	0.729409	-5.58397
 196	1	1	-0.024709	-8.00511	0.725955	-2.48178
 197	1	1	-0.076489	-7.81274	-0.632899	-2.86638
 198	1	1	-0.052344	-7.27307	-1.57238	-1.95419
 199	1	1	-0.054202	-7.81528	1.06427	-1.11945
 200	1	1	-0.149083	-7.49588	0.0918909	-0.166203
 201	1	1	-0.063027	-7.13642	-1.21741	-0.616941
 202	1	3	0.499526	-6.57471	-2.4	0.116328
 203	1	4	-0.036881	-6.34629	-3.40007	-0.804365
 204	1	3	0.443545	-6.76548	-3.04609	-2.13941
 205	1	1	0.038197	-5.60321	-4.60285	-0.472994
 206	1	1	-0.408621	-6.22553	-5.57535	0.264897
 207	1	1	0.252781	-5.58014	-6.78592	0.569394
 208	1	1	-0.169778	-4.24163	-4.80567	-0.85445
 209	1	1	-0.113042	-3.54456	-5.96939	-0.463955
 210	1	1	0.016958	-4.21919	-7.00535	0.22335
 211	1	7	0.167832	-7.52276	0.333504	0.888701
 212	1	7	0.134138	-8.13794	2.03514	-0.752439
 213	1	7	0.145229	-7.94475	-0.97981	-3.88625
 214	1	2	-0.462312	-6.61049	-3.65228	-3.2065
 215	1	2	-0.483102	-6.40144	-2.48043	1.34538
 216	1	7	0.144532	-2.50752	-6.0915	-0.728425
 217	1	7	0.226042	-7.25329	-5.39474	0.565054
 218	1	1	0.12103	-3.34106	-9.30925	-0.471026
 219	1	1	-0.09864	-3.66574	-9.01877	-1.84687
 220	1	1	-0.194398	-3.63217	-10.0173	-2.82747
 221	1	1	-0.091961	-3.20442	-11.292	-2.45346
 222	1	1	-0.197799	-2.84655	-11.6066	-1.09395
 223	1	1	-0.102777	-3.0803	-10.6519	-0.0823959
 224	1	7	0.132074	-3.21077	-12.019	-3.23904
 225	1	7	0.154044	-2.5188	-12.6277	-0.833289
 226	1	7	0.145155	-3.92517	-8.03323	-2.1544
 227	1	7	0.14558	-4.04388	-10.9001	0.32145
 228	1	10	-0.24014	-3.6294	-8.26843	0.500907
 229	1	7	0.152938	-3.74093	-4.01037	-1.40849
 230	1	7	0.151751	-3.94358	-9.80124	-3.86534
 231	1	1	-0.004194	-6.16051	9.00784	6.70173
 232	1	1	-0.097141	-6.28846	10.1286	7.54849
 233	1	1	-0.172015	-7.14649	10.0082	8.67668
 234	1	2	-0.377994	-5.90059	6.14988	5.40532
 235	1	1	0.033493	-6.65713	7.7444	7.0808
 236	1	1	-0.063739	-7.6166	8.71389	9.06594
 237	1	2	-0.398381	-7.70069	5.6655	9.66632
 238	1	1	0.032144	-7.27929	7.5922	8.30684
 239	1	3	0.032313	-6.48109	6.40812	6.44292
 240	1	4	0.461698	-6.9916	5.52676	7.42135
 241	1	3	0.091945	-7.41033	6.16474	8.5752
 242	1	1	-0.10563	-3.87112	11.6935	3.55483
 243	1	5	-0.099376	-5.27514	11.241	7.25746
 244	1	1	-0.043296	-5.20429	11.4981	5.71405
 245	1	1	-0.073043	-3.95596	11.5395	4.95708
 246	1	1	-0.117827	-5.05561	11.4862	2.8226
 247	1	1	-0.037562	-6.36112	11.5597	4.8916
 248	1	1	-0.083705	-6.28956	11.462	3.4655
 249	1	5	0.396	-3.92928	10.6113	7.79484
 250	1	5	0.310495	-5.54226	12.6708	7.91149
 251	1	6	-0.130298	-2.9182	11.4705	7.83311
 252	1	6	-0.128745	-3.53641	9.51203	7.06615
 253	1	6	-0.120019	-4.04857	10.1934	9.07437
 254	1	6	-0.104287	-5.59439	12.7139	9.22755
 255	1	6	-0.095507	-6.70683	13.1677	7.52224
 256	1	6	-0.104872	-4.60055	13.5717	7.70928
 257	1	3	0.456145	-7.3255	11.2925	2.41135
 258	1	3	0.550902	-5.23278	11.3182	1.3577
 259	1	4	0.015704	-6.61508	11.197	1.19706
 260	1	2	-0.456801	-8.56278	11.2371	2.53921
 261	1	2	-0.487703	-4.32905	11.1988	0.565984
 262	1	1	-0.116566	-7.27385	10.8982	-0.0288257
 263	1	1	-0.050109	-7.44019	9.52877	-0.407049
 264	1	1	0.154929	-8.24175	9.24157	-1.59187
 265	1	1	0.041555	-7.75323	11.9381	-0.897884
 266	1	1	-0.223109	-8.52062	11.6462	-2.00694
 267	1	1	-0.080449	-8.78357	10.3206	-2.34181
 268	1	5	-0.108008	-7.62124	13.3998	-0.640077
 269	1	5	-0.182228	-9.48542	10.0292	-3.61961
 270	1	5	-0.345523	-7.01722	8.35856	0.480306
 271	1	7	0.155183	-5.68002	9.02468	5.73363
 272	1	7	0.172904	-7.24831	10.8758	9.34857
 273	1	7	0.158028	-8.14057	8.56777	10.0016
 274	1	7	0.153129	-2.9464	11.773	2.97478
 275	1	7	0.142914	-2.99768	11.5247	5.45904
 276	1	7	0.135531	-7.31777	11.5535	5.43324
 277	1	7	0.17765	-8.84053	12.4626	-2.65138
 278	1	9	0.046541	-8.24612	13.7758	0.174119
 279	1	9	0.045238	-7.82906	14.0606	-1.50323
 280	1	9	0.051941	-6.58062	13.6309	-0.357077
 281	1	9	0.087961	-10.4242	9.52152	-3.33996
 282	1	9	0.066782	-8.9826	9.22596	-4.26293
 283	1	9	0.075908	-9.59691	10.865	-4.29776
 284	1	9	0.105172	-6.86415	8.62901	1.52502
 285	1	9	0.115625	-6.07791	7.86435	0.138279
 286	1	9	0.140296	-7.83988	7.62218	0.509073
 287	1	1	-0.004194	3.03813	-1.09572	10.7174
 288	1	1	-0.097141	1.64151	-0.804546	10.772
 289	1	1	-0.172015	0.77115	-1.92299	10.7551
 290	1	2	-0.377994	5.88285	-2.32389	10.5416
 291	1	1	0.033493	3.47681	-2.43933	10.6022
 292	1	1	-0.063739	1.17859	-3.24176	10.5462
 293	1	2	-0.398381	2.7723	-5.65125	9.61019
 294	1	1	0.032144	2.55952	-3.46605	10.4793
 295	1	3	0.032313	4.86449	-2.98567	10.355
 296	1	4	0.461698	4.65384	-4.29457	9.91564
 297	1	3	0.091945	3.29973	-4.63325	9.99537
 298	1	1	-0.10563	-1.23632	0.0862091	7.78954
 299	1	5	-0.099376	1.03313	0.649037	10.8452
 300	1	1	-0.043296	-0.197866	0.653231	9.94586
 301	1	1	-0.073043	-0.12294	0.0838484	8.65658
 302	1	1	-0.117827	-2.41245	0.657083	8.23335
 303	1	1	-0.037562	-1.45799	1.15814	10.3461
 304	1	1	-0.083705	-2.57124	1.14479	9.53351
 305	1	5	0.396	2.01954	1.78635	10.2848
 306	1	5	0.310495	0.820389	0.989609	12.3461
 307	1	6	-0.130298	1.23456	2.84618	9.92543
 308	1	6	-0.128745	2.64493	1.36625	9.19188
 309	1	6	-0.120019	2.96786	2.22993	11.1074
 310	1	6	-0.104287	-0.049737	0.185086	13.0001
 311	1	6	-0.095507	0.313773	2.20512	12.5036
 312	1	6	-0.104872	1.969	0.99531	13.1154
 313	1	3	0.456145	-3.94401	1.65083	9.70546
 314	1	3	0.550902	-3.65984	0.927471	7.49104
 315	1	4	0.015704	-4.42173	1.61099	8.41667
 316	1	2	-0.456801	-4.41214	2.1901	10.6846
 317	1	2	-0.487703	-3.82811	0.897833	6.26005
 318	1	1	-0.116566	-5.65644	2.18406	7.97423
 319	1	1	-0.050109	-5.6844	3.57012	7.82149
 320	1	1	0.154929	-6.91968	4.1498	7.48141
 321	1	1	0.041555	-6.78367	1.39353	7.68579
 322	1	1	-0.223109	-8.00117	1.96695	7.24007
 323	1	1	-0.080449	-8.10112	3.35758	7.20194
 324	1	5	-0.108008	-6.7792	-0.12393	8.06053
 325	1	5	-0.182228	-9.51496	3.93102	7.06677
 326	1	5	-0.345523	-4.39144	4.40124	7.94005
 327	1	7	0.155183	3.82853	-0.384553	10.7527
 328	1	7	0.172904	-0.268159	-1.67723	10.8049
 329	1	7	0.158028	0.493651	-4.0514	10.4809
 330	1	7	0.153129	-1.17081	-0.351162	6.80955
 331	1	7	0.142914	0.81893	-0.269545	8.28017
 332	1	7	0.135531	-1.60703	1.58426	11.2852
 333	1	7	0.17765	-8.87949	1.34864	7.06984
 334	1	9	0.046541	-6.13813	-0.721413	7.39816
 335	1	9	0.045238	-7.77129	-0.593255	8.0624
 336	1	9	0.051941	-6.3504	-0.285345	9.03521
 337	1	9	0.087961	-10.2236	3.34882	6.47921
 338	1	9	0.066782	-9.45357	4.92263	6.60873
 339	1	9	0.075908	-9.87689	4.10357	8.09683
 340	1	9	0.105172	-4.41298	5.47402	7.71798
 341	1	9	0.115625	-3.57424	4.03756	7.3057
 342	1	9	0.140296	-4.05375	4.36481	8.98129
 343	1	1	-0.004194	5.68381	-4.7087	1.0057
 344	1	1	-0.097141	6.94369	-4.13574	1.36553
 345	1	1	-0.172015	6.89522	-3.06195	2.28509
 346	1	2	-0.377994	2.60187	-5.36513	0.494154
 347	1	1	0.033493	4.45963	-4.19078	1.58409
 348	1	1	-0.063739	5.73575	-2.62747	2.92099
 349	1	2	-0.398381	2.78554	-2.07409	3.73902
 350	1	1	0.032144	4.52882	-3.2825	2.60347
 351	1	3	0.032313	2.99161	-4.47962	1.2795
 352	1	4	0.461698	2.22256	-3.69908	2.22682
 353	1	3	0.091945	3.13585	-2.95012	2.99931
 354	1	1	-0.10563	10.3307	-4.45536	4.30333
 355	1	5	-0.099376	8.37201	-4.69847	0.981966
 356	1	1	-0.043296	9.02549	-5.11986	2.34698
 357	1	1	-0.073043	10.1181	-4.51698	2.94669
 358	1	1	-0.117827	9.48959	-5.285	5.13163
 359	1	1	-0.037562	8.21066	-5.91845	3.21754
 360	1	1	-0.083705	8.53632	-6.05548	4.58336
 361	1	5	0.396	9.15482	-3.5292	0.171226
 362	1	5	0.310495	8.20506	-5.94063	0.0796467
 363	1	6	-0.130298	9.73638	-2.62462	1.03162
 364	1	6	-0.128745	8.21167	-2.89426	-0.595077
 365	1	6	-0.120019	10.2299	-3.98926	-0.589518
 366	1	6	-0.104287	7.66294	-5.67376	-1.11715
 367	1	6	-0.095507	7.39507	-6.89183	0.632104
 368	1	6	-0.104872	9.36804	-6.47278	-0.112667
 369	1	3	0.456145	7.58905	-6.48009	5.63676
 370	1	3	0.550902	9.23945	-5.29057	6.62236
 371	1	4	0.015704	8.10142	-6.01972	6.80148
 372	1	2	-0.456801	6.43684	-6.93692	5.48782
 373	1	2	-0.487703	9.95786	-4.69571	7.42816
 374	1	1	-0.116566	7.43698	-6.07455	8.05131
 375	1	1	-0.050109	6.36826	-5.22635	8.33541
 376	1	1	0.154929	5.66451	-5.29116	9.5694
 377	1	1	0.041555	7.7739	-7.03466	9.00176
 378	1	1	-0.223109	7.12847	-7.0946	10.2662
 379	1	1	-0.080449	6.08511	-6.17253	10.5684
 380	1	5	-0.108008	8.88827	-8.01802	8.63962
 381	1	5	-0.182228	5.36575	-6.17704	11.9583
 382	1	5	-0.345523	6.0515	-4.20526	7.2488
 383	1	7	0.155183	5.57958	-5.4897	0.299772
 384	1	7	0.172904	7.85343	-2.57674	2.60698
 385	1	7	0.158028	5.70227	-1.76865	3.66196
 386	1	7	0.153129	11.1295	-3.80937	4.69244
 387	1	7	0.142914	10.854	-3.99001	2.33232
 388	1	7	0.135531	7.33564	-6.36409	2.84508
 389	1	7	0.17765	7.424	-7.80257	11.0062
 390	1	9	0.046541	9.82272	-7.47463	8.45428
 391	1	9	0.045238	8.59794	-8.61526	7.72589
 392	1	9	0.051941	9.16263	-8.75541	9.39688
 393	1	9	0.087961	4.31034	-6.53548	11.8592
 394	1	9	0.066782	5.35042	-5.17998	12.4157
 395	1	9	0.075908	5.83753	-6.87826	12.659
 396	1	9	0.105172	6.84212	-3.85818	6.60784
 397	1	9	0.115625	5.80992	-3.24406	7.7604
 398	1	9	0.140296	5.21268	-4.54525	6.59518
 399	1	4	0.48116	4.20974	5.89934	-6.79421
 400	1	3	0.034009	2.93441	5.89583	-7.45325
 401	1	1	0.028921	2.01223	6.68547	-6.58835
 402	1	3	0.071556	4.15081	6.63534	-5.57702
 403	1	1	0.025276	2.74338	7.1734	-5.52128
 404	1	2	-0.381907	2.59004	5.4369	-8.55143
 405	1	2	-0.393799	4.9942	6.85029	-4.73268
 406	1	1	-0.008998	0.602243	6.70972	-6.59984
 407	1	1	-0.064503	2.07463	7.75585	-4.44198
 408	1	1	-0.16756	0.688631	7.77709	-4.33625
 409	1	1	-0.085161	-0.0625785	7.22913	-5.38691
 410	1	7	0.158939	0.00316051	6.2439	-7.36944
 411	1	7	0.163781	2.69337	8.05856	-3.55915
 412	1	7	0.161401	0.161703	8.21141	-3.55263
 413	1	5	-0.078003	-1.63468	7.07175	-5.16421
 414	1	5	0.303704	-2.38352	5.95878	-6.17074
 415	1	6	-0.1084	-1.66262	4.86363	-6.42536
 416	1	6	-0.101508	-2.81425	6.2932	-7.46009
 417	1	6	-0.111714	-3.57832	5.5965	-5.64564
 418	1	5	0.380371	-2.25627	8.53251	-5.35132
 419	1	6	-0.124028	-1.94697	8.83936	-6.62083
 420	1	6	-0.119704	-1.58844	9.43299	-4.56705
 421	1	6	-0.115877	-3.59976	8.62901	-5.21886
 422	1	1	-0.024709	-1.82528	6.45206	-3.71284
 423	1	1	-0.076489	-1.21195	5.27311	-3.41251
 424	1	1	-0.052344	-1.36033	4.64529	-2.14458
 425	1	1	-0.054202	-2.72169	7.02297	-2.75613
 426	1	1	-0.149083	-2.96088	6.3183	-1.5068
 427	1	1	-0.063027	-2.33556	5.04895	-1.28392
 428	1	3	0.499526	-2.52563	3.97834	-0.19357
 429	1	4	-0.036881	-1.51885	3.07428	-0.512072
 430	1	3	0.443545	-0.876553	3.32565	-1.69633
 431	1	1	0.038197	-1.18539	1.96238	0.323508
 432	1	1	-0.408621	0.165358	1.71144	0.44778
 433	1	1	0.252781	0.659247	0.619249	1.1537
 434	1	1	-0.169778	-2.08874	1.09258	1.01404
 435	1	1	-0.113042	-1.55953	0.106155	1.86513
 436	1	1	0.016958	-0.174452	-0.163344	1.88271
 437	1	7	0.167832	-3.73271	6.67999	-0.877019
 438	1	7	0.134138	-3.27424	7.94039	-3.0288
 439	1	7	0.145229	-0.486405	4.77236	-4.12735
 440	1	2	-0.462312	-0.290571	2.47269	-2.32286
 441	1	2	-0.483102	-3.44888	3.76605	0.536524
 442	1	7	0.144532	-2.24071	-0.528269	2.40239
 443	1	7	0.226042	0.915347	2.3392	-0.076345
 444	1	1	0.12103	0.171397	-2.6256	1.84332
 445	1	1	-0.09864	-0.204036	-2.74262	0.520115
 446	1	1	-0.194398	-0.308002	-3.98929	-0.0354096
 447	1	1	-0.091961	-0.270423	-5.08438	0.798467
 448	1	1	-0.197799	0.199254	-4.91146	2.11177
 449	1	1	-0.102777	0.780662	-3.71404	2.5244
 450	1	7	0.132074	-0.599894	-6.07311	0.489578
 451	1	7	0.154044	0.140198	-5.74099	2.8079
 452	1	7	0.145155	-0.4877	-1.87459	0.00182695
 453	1	7	0.14558	0.781465	-3.53197	3.61529
 454	1	10	-0.24014	0.216328	-1.36863	2.5104
 455	1	7	0.152938	-3.15798	1.20483	0.974732
 456	1	7	0.151751	-0.465388	-4.13723	-1.09417
 457	1	1	-0.004194	13.7734	5.09656	-15.3688
 458	1	1	-0.097141	13.3383	4.71093	-14.0631
 459	1	1	-0.172015	13.1116	3.30061	-13.9367
 460	1	2	-0.377994	15.1246	5.36613	-18.224
 461	1	1	0.033493	14.1225	4.20492	-16.3055
 462	1	1	-0.063739	13.4784	2.32486	-14.8753
 463	1	2	-0.398381	14.3089	0.931917	-17.4334
 464	1	1	0.032144	14.0235	2.82776	-16.0435
 465	1	3	0.032313	14.6488	4.4018	-17.6571
 466	1	4	0.461698	14.6344	3.12094	-18.2513
 467	1	3	0.091945	14.3799	2.12938	-17.278
 468	1	1	-0.10563	9.28268	5.12148	-12.8357
 469	1	5	-0.099376	13.037	5.75185	-12.8586
 470	1	1	-0.043296	11.6497	5.44126	-12.3173
 471	1	1	-0.073043	10.586	5.44239	-13.2396
 472	1	1	-0.117827	9.06754	4.9968	-11.4905
 473	1	1	-0.037562	11.3664	5.42451	-10.9691
 474	1	1	-0.083705	10.067	5.12854	-10.5928
 475	1	5	0.396	13.1458	7.25291	-13.316
 476	1	5	0.310495	14.1843	5.45873	-11.7989
 477	1	6	-0.130298	14.4154	7.61296	-13.5756
 478	1	6	-0.128745	12.7519	8.1311	-12.384
 479	1	6	-0.120019	12.3245	7.49745	-14.4127
 480	1	6	-0.104287	13.9966	4.2758	-11.1535
 481	1	6	-0.095507	14.3805	6.38244	-10.8367
 482	1	6	-0.104872	15.3977	5.40716	-12.468
 483	1	3	0.456145	9.60572	4.8272	-9.20543
 484	1	3	0.550902	7.8334	4.69659	-10.7626
 485	1	4	0.015704	8.27832	4.46843	-9.41642
 486	1	2	-0.456801	10.28	5.06899	-8.1795
 487	1	2	-0.487703	6.80709	4.28542	-11.2993
 488	1	1	-0.116566	7.34598	4.22286	-8.38107
 489	1	1	-0.050109	6.40625	5.21424	-8.03117
 490	1	1	0.154929	5.28866	4.94212	-7.15014
 491	1	1	0.041555	7.27678	2.97872	-7.69606
 492	1	1	-0.223109	6.15529	2.67127	-6.88817
 493	1	1	-0.080449	5.1019	3.5928	-6.66711
 494	1	5	-0.108008	8.1962	1.80749	-8.02703
 495	1	5	-0.182228	3.90251	3.3074	-5.72256
 496	1	5	-0.345523	6.7281	6.6064	-8.58667
 497	1	7	0.155183	13.7648	6.14359	-15.5526
 498	1	7	0.172904	12.6998	2.94921	-12.9993
 499	1	7	0.158028	13.3908	1.272	-14.8159
 500	1	7	0.153129	8.43795	4.93834	-13.4963
 501	1	7	0.142914	10.7222	5.54919	-14.3113
 502	1	7	0.135531	12.1208	5.50471	-10.1817
 503	1	7	0.17765	6.06687	1.73884	-6.49348
 504	1	9	0.046541	7.71645	0.924882	-7.59141
 505	1	9	0.045238	9.17573	2.00032	-7.58665
 506	1	9	0.051941	8.31906	1.73241	-9.09996
 507	1	9	0.087961	3.53069	2.2554	-5.8587
 508	1	9	0.066782	2.98405	3.93673	-5.83241
 509	1	9	0.075908	4.25877	3.33079	-4.69381
 510	1	9	0.105172	5.91732	7.24209	-8.29536
 511	1	9	0.115625	6.70031	6.62278	-9.69513
 512	1	9	0.140296	7.67297	7.08325	-8.18613
 513	1	4	0.48116	2.97856	1.06489	-11.7774
 514	1	3	0.034009	3.2309	2.27419	-11.2207
 515	1	1	0.028921	3.19599	3.31413	-12.3326
 516	1	3	0.071556	2.74821	1.21141	-13.1098
 517	1	1	0.025276	2.92769	2.62362	-13.4867
 518	1	2	-0.381907	3.65248	2.55927	-10.1119
 519	1	2	-0.393799	2.354	0.327028	-13.7926
 520	1	1	-0.008998	3.64257	4.69093	-12.3707
 521	1	1	-0.064503	2.75996	3.33838	-14.6662
 522	1	1	-0.16756	3.38233	4.6033	-14.772
 523	1	1	-0.085161	3.75078	5.39477	-13.5989
 524	1	7	0.158939	3.91143	5.10377	-11.4364
 525	1	7	0.163781	2.46866	2.84493	-15.5954
 526	1	7	0.161401	3.49194	5.01702	-15.7716
 527	1	5	-0.078003	4.24583	6.90408	-13.8756
 528	1	5	0.303704	2.90811	7.8147	-14.0617
 529	1	6	-0.1084	2.2105	7.97652	-12.9126
 530	1	6	-0.101508	2.1993	7.34026	-15.1251
 531	1	6	-0.111714	3.25586	9.04466	-14.536
 532	1	5	0.380371	5.03086	7.54049	-12.6154
 533	1	6	-0.124028	6.0536	6.73107	-12.2743
 534	1	6	-0.119704	4.25998	7.80809	-11.5523
 535	1	6	-0.115877	5.64699	8.71383	-12.8633
 536	1	1	-0.024709	5.32261	6.93541	-15.0865
 537	1	1	-0.076489	6.27061	5.85695	-15.1974
 538	1	1	-0.052344	7.36502	5.9495	-16.0735
 539	1	1	-0.054202	5.64981	8.15873	-15.8405
 540	1	1	-0.149083	6.62535	8.16286	-16.8542
 541	1	1	-0.063027	7.46499	7.03943	-16.9836
 542	1	3	0.499526	8.55081	6.75919	-17.9447
 543	1	4	-0.036881	9.16096	5.58446	-17.5071
 544	1	3	0.443545	8.56977	5.05804	-16.3102
 545	1	1	0.038197	10.2693	5.02541	-18.1299
 546	1	1	-0.408621	10.4955	3.63298	-18.2606
 547	1	1	0.252781	11.5267	3.21456	-19.1129
 548	1	1	-0.169778	11.2908	5.93089	-18.6142
 549	1	1	-0.113042	12.2797	5.47147	-19.5064
 550	1	1	0.016958	12.3933	4.10721	-19.6923
 551	1	7	0.167832	6.81044	9.01619	-17.5283
 552	1	7	0.134138	5.18194	9.13905	-15.7401
 553	1	7	0.145229	6.24541	5.09821	-14.4988
 554	1	2	-0.462312	8.75467	4.00376	-15.7561
 555	1	2	-0.483102	8.8833	7.42274	-18.8979
 556	1	7	0.144532	12.8985	6.14365	-20.0774
 557	1	7	0.226042	9.75005	2.93829	-17.9883
 558	1	1	0.12103	14.5415	3.52739	-20.5547
 559	1	1	-0.09864	15.2822	3.92428	-21.6724
 560	1	1	-0.194398	16.6503	3.63875	-21.7331
 561	1	1	-0.091961	17.2303	2.83223	-20.6459
 562	1	1	-0.197799	16.4382	2.46841	-19.538
 563	1	1	-0.102777	15.089	2.75999	-19.555
 564	1	7	0.132074	18.2715	2.54285	-20.6496
 565	1	7	0.154044	16.8682	1.89258	-18.7805
 566	1	7	0.145155	14.8198	4.49743	-22.4467
 567	1	7	0.14558	14.5349	1.85542	-19.6146
 568	1	10	-0.24014	13.1919	3.64318	-20.6899
 569	1	7	0.152938	11.2214	7.0256	-18.4722
 570	1	7	0.151751	17.236	3.99465	-22.6278
 571	1	4	0.48116	-5.39294	13.617	-8.21154
 572	1	3	0.034009	-4.12785	13.8083	-8.70329
 573	1	1	0.028921	-3.89455	12.6605	-9.58106
 574	1	3	0.071556	-5.96454	12.4678	-8.75827
 575	1	1	0.025276	-4.93825	11.7676	-9.56054
 576	1	2	-0.381907	-3.42893	14.7693	-8.4792
 577	1	2	-0.393799	-7.1601	12.2262	-8.77063
 578	1	1	-0.008998	-2.80551	12.4776	-10.4067
 579	1	1	-0.064503	-4.97306	10.7287	-10.5198
 580	1	1	-0.16756	-3.78948	10.4587	-11.2283
 581	1	1	-0.085161	-2.67735	11.3383	-11.2083
 582	1	7	0.158939	-2.08164	13.3071	-10.3531
 583	1	7	0.163781	-5.86616	10.0596	-10.6445
 584	1	7	0.161401	-3.89029	9.66827	-11.9181
 585	1	5	-0.078003	-1.49863	11.1406	-12.1826
 586	1	5	0.303704	-1.78136	11.9686	-13.4533
 587	1	6	-0.1084	-2.23286	13.2202	-13.2213
 588	1	6	-0.101508	-2.90853	11.4406	-13.9721
 589	1	6	-0.111714	-0.729106	11.9445	-14.3776
 590	1	5	0.380371	-0.143115	11.6263	-11.5726
 591	1	6	-0.124028	0.936769	11.0574	-12.2441
 592	1	6	-0.119704	-0.0338586	11.3166	-10.281
 593	1	6	-0.115877	-0.0148651	12.9411	-11.475
 594	1	1	-0.024709	-1.35263	9.57948	-12.5165
 595	1	1	-0.076489	-1.34276	8.60269	-11.4839
 596	1	1	-0.052344	-1.38361	7.22453	-11.7412
 597	1	1	-0.054202	-1.35323	9.0687	-13.8542
 598	1	1	-0.149083	-1.36328	7.71373	-14.1265
 599	1	1	-0.063027	-1.37072	6.78047	-13.0315
 600	1	3	0.499526	-1.233	5.28893	-13.0309
 601	1	4	-0.036881	-1.06937	4.94323	-11.7414
 602	1	3	0.443545	-1.19798	6.05329	-10.8581
 603	1	1	0.038197	-0.808047	3.53479	-11.395
 604	1	1	-0.408621	-1.02421	2.36394	-12.1355
 605	1	1	0.252781	-0.554173	1.07531	-11.758
 606	1	1	-0.169778	0.0328612	3.37542	-10.2867
 607	1	1	-0.113042	0.427044	2.11597	-9.82099
 608	1	1	0.016958	0.227247	0.980149	-10.6188
 609	1	7	0.167832	-1.38696	7.28296	-15.1194
 610	1	7	0.134138	-1.42105	9.78669	-14.7293
 611	1	7	0.145229	-1.16746	8.94079	-10.4909
 612	1	2	-0.462312	-0.829983	6.10966	-9.72006
 613	1	2	-0.483102	-1.4312	4.58782	-14.0168
 614	1	7	0.144532	0.994209	2.08957	-8.86031
 615	1	7	0.226042	-1.57761	2.49266	-13.0548
 616	1	1	0.12103	1.69604	-0.847687	-11.0998
 617	1	1	-0.09864	1.41467	-2.0998	-11.5705
 618	1	1	-0.194398	2.34206	-2.86915	-12.2284
 619	1	1	-0.091961	3.67258	-2.35464	-12.2454
 620	1	1	-0.197799	3.96859	-1.0848	-11.6048
 621	1	1	-0.102777	2.93752	-0.2094	-11.14
 622	1	7	0.132074	4.45422	-2.82093	-12.8515
 623	1	7	0.154044	4.93246	-0.664459	-11.59
 624	1	7	0.145155	0.428282	-2.45585	-11.5538
 625	1	7	0.14558	3.13719	0.125042	-10.1243
 626	1	10	-0.24014	0.73054	-0.228396	-10.3701
 627	1	7	0.152938	0.470733	4.21626	-9.74749
 628	1	7	0.151751	2.07228	-3.84789	-12.6613
 629	1	1	-0.004194	-12.8968	17.0029	1.92275
 630	1	1	-0.097141	-12.0228	17.0404	0.8108
 631	1	1	-0.172015	-10.7481	16.4353	0.943288
 632	1	2	-0.377994	-14.286	16.7174	4.5605
 633	1	1	0.033493	-12.3897	16.4988	3.125
 634	1	1	-0.063739	-10.3446	15.7678	2.09414
 635	1	2	-0.398381	-9.94721	14.848	4.96448
 636	1	1	0.032144	-11.1875	15.8882	3.19997