pySIMM System Object

1196 atoms
1310 bonds
2284 angles
3468 dihedrals
376 impropers

10 atom types
12 bond types
21 angle types
8 dihedral types
4 improper types

-134.534396 134.534396 xlo xhi
-134.534396 134.534396 ylo yhi
-134.534396 134.534396 zlo zhi

Masses

   1	12.01	# ca
   2	16.0	# o
   3	12.01	# c
   4	14.01	# n
   5	12.01	# c3
   6	19.0	# f
   7	1.008	# ha
   8	1.008	# hn
   9	1.008	# hc
  10	16.0	# os

Pair Coeffs

   1	0.086	3.3996695084235347	# ca
   2	0.21	2.959921901149463	# o
   3	0.086	3.3996695084235347	# c
   4	0.17	3.249998523775958	# n
   5	0.1094	3.3996695084235347	# c3
   6	0.061	3.1181455134911875	# f
   7	0.015	2.59964245953351	# ha
   8	0.0157	1.069078461768407	# hn
   9	0.0157	2.649532787749369	# hc
  10	0.17	3.0000123434657784	# os

Bond Coeffs

   1	345.8	1.086	# ca,ha
   2	300.9	1.5375	# c3,c3
   3	637.7	1.2183	# c,o
   4	356.9	1.3497	# c3,f
   5	427.6	1.3789	# c,n
   6	345.9	1.4906	# c,ca
   7	330.6	1.0969	# c3,hc
   8	384.2	1.4121	# ca,n
   9	321.0	1.5156	# c3,ca
  10	403.2	1.0129	# hn,n
  11	461.1	1.3984	# ca,ca
  12	376.6	1.3696	# ca,os

Angle Coeffs

   1	68.72	122.6	# ca,c,o
   2	48.33	117.55	# c,n,hn
   3	67.68	115.25	# ca,c,n
   4	63.15	112.07	# c3,c3,ca
   5	62.86	111.51	# c3,c3,c3
   6	63.82	123.71	# c,n,ca
   7	67.87	120.19	# ca,ca,n
   8	63.53	120.77	# c3,ca,ca
   9	63.56	112.24	# ca,c3,ca
  10	63.74	127.08	# c,n,c
  11	48.18	119.88	# ca,ca,ha
  12	64.28	120.33	# c,ca,ca
  13	70.89	107.36	# f,c3,f
  14	39.4	107.58	# hc,c3,hc
  15	74.22	123.05	# n,c,o
  16	66.11	109.24	# c3,c3,f
  17	46.8	110.47	# ca,c3,hc
  18	66.62	120.02	# ca,ca,ca
  19	63.48	119.89	# ca,os,ca
  20	69.58	119.2	# ca,ca,os
  21	49.75	116.02	# ha,ca,n

Dihedral Coeffs

   1	2	2.5	2	180	2.0	1	0	# hn,n,c,o
   2	1	3.625	2	180	# X,ca,ca,X
   3	1	1.0	2	180	# X,c,ca,X
   4	1	0.15555555555555556	3	0	# X,c3,c3,X
   5	1	0.0	2	0	# X,c3,ca,X
   6	1	2.5	2	180	# X,c,n,X
   7	1	0.45	2	180	# X,ca,n,X
   8	1	0.9	2	180	# X,ca,os,X

Improper Coeffs

   1	1.1	-1	2	# ca,ca,ca,c3
   2	1.1	-1	2	# ca,X,X,ha
   3	1.1	-1	2	# n,X,X,hn
   4	10.5	-1	2	# c,X,X,o

Atoms

   1	1	1	-0.004194	-1.00829	-8.01668	-12.6632
   2	1	1	-0.097141	-0.695908	-6.69711	-12.2574
   3	1	1	-0.172015	-1.6672	-5.97711	-11.495
   4	1	2	-0.377994	-2.04197	-10.9185	-12.7269
   5	1	1	0.033493	-2.23445	-8.55453	-12.3157
   6	1	1	-0.063739	-2.95556	-6.4743	-11.2831
   7	1	2	-0.398381	-5.37046	-8.3421	-10.8473
   8	1	1	0.032144	-3.1973	-7.79012	-11.705
   9	1	3	0.032313	-2.72101	-9.95058	-12.4494
  10	1	4	0.461698	-4.0271	-9.93348	-11.954
  11	1	3	0.091945	-4.37798	-8.6764	-11.473
  12	1	1	-0.10563	1.24238	-2.2358	-12.5407
  13	1	5	-0.099376	0.685743	-6.10793	-12.6114
  14	1	1	-0.043296	0.456382	-4.57763	-12.8118
  15	1	1	-0.073043	1.35634	-3.61725	-12.2771
  16	1	1	-0.117827	0.156873	-1.80294	-13.2979
  17	1	1	-0.037562	-0.625183	-4.08107	-13.6138
  18	1	1	-0.083705	-0.745022	-2.70879	-13.816
  19	1	5	0.396	1.32419	-6.63877	-13.9588
  20	1	5	0.310495	1.66306	-6.55699	-11.4447
  21	1	6	-0.130298	2.04688	-7.78374	-13.8044
  22	1	6	-0.128745	2.1979	-5.70075	-14.447
  23	1	6	-0.120019	0.370263	-6.88398	-14.9108
  24	1	6	-0.104287	1.68915	-7.90329	-11.218
  25	1	6	-0.095507	1.22644	-6.02644	-10.2943
  26	1	6	-0.104872	2.94868	-6.1825	-11.6169
  27	1	3	0.456145	-1.76136	-1.97884	-14.6086
  28	1	3	0.550902	-0.304364	-0.444768	-13.7147
  29	1	4	0.015704	-1.39813	-0.643088	-14.5723
  30	1	2	-0.456801	-2.60951	-2.51487	-15.2905
  31	1	2	-0.487703	0.219243	0.606932	-13.3908
  32	1	1	-0.116566	-2.04032	0.385531	-15.3828
  33	1	1	-0.050109	-3.16402	1.08527	-14.8798
  34	1	1	0.154929	-3.78786	2.07555	-15.6601
  35	1	1	0.041555	-1.61177	0.686315	-16.713
  36	1	1	-0.223109	-2.35781	1.57228	-17.5079
  37	1	1	-0.080449	-3.43472	2.29392	-17.0058
  38	1	5	-0.108008	-0.443097	-0.00193137	-17.4042
  39	1	5	-0.182228	-4.12523	3.36922	-17.8515
  40	1	5	-0.345523	-3.71595	0.807278	-13.4904
  41	1	7	0.155183	-0.331348	-8.64527	-13.2459
  42	1	7	0.172904	-1.42296	-5.01514	-11.0261
  43	1	7	0.158028	-3.6869	-5.93451	-10.6865
  44	1	7	0.153129	1.93116	-1.52013	-12.1067
  45	1	7	0.142914	2.16162	-3.92275	-11.6224
  46	1	7	0.135531	-1.37301	-4.74414	-14.0456
  47	1	7	0.17765	-2.05837	1.7485	-18.5362
  48	1	9	0.046541	0.512015	0.26601	-16.9471
  49	1	9	0.045238	-0.387463	0.277737	-18.4581
  50	1	9	0.051941	-0.578858	-1.09335	-17.3438
  51	1	9	0.087961	-5.20505	3.44411	-17.6504
  52	1	9	0.066782	-3.98564	3.19724	-18.9231
  53	1	9	0.075908	-3.70348	4.34297	-17.5971
  54	1	9	0.105172	-3.83303	-0.261828	-13.312
  55	1	9	0.115625	-4.70029	1.26237	-13.3446
  56	1	9	0.140296	-3.05333	1.20849	-12.7171
  57	1	1	-0.004194	-2.98701	-18.0209	-2.81542
  58	1	1	-0.097141	-3.07539	-17.9724	-4.21808
  59	1	1	-0.172015	-3.76552	-19.0125	-4.90312
  60	1	2	-0.377994	-2.67834	-18.9774	0.0931177
  61	1	1	0.033493	-3.46465	-19.178	-2.18678
  62	1	1	-0.063739	-4.28127	-20.1193	-4.24312
  63	1	2	-0.398381	-4.93242	-22.3332	-2.23669
  64	1	1	0.032144	-4.06927	-20.2009	-2.87975
  65	1	3	0.032313	-3.18731	-19.6438	-0.799881
  66	1	4	0.461698	-3.6749	-20.9535	-0.764481
  67	1	3	0.091945	-4.27396	-21.3381	-1.97548
  68	1	1	-0.10563	-5.69832	-15.2023	-6.13903
  69	1	5	-0.099376	-2.39117	-16.9301	-5.09188
  70	1	1	-0.043296	-3.51997	-16.3439	-5.98563
  71	1	1	-0.073043	-4.75323	-15.9199	-5.40563
  72	1	1	-0.117827	-5.40916	-14.9489	-7.4751
  73	1	1	-0.037562	-3.24134	-16.0014	-7.32982
  74	1	1	-0.083705	-4.23916	-15.3528	-8.07191
  75	1	5	0.396	-1.79591	-15.717	-4.32615
  76	1	5	0.310495	-1.20761	-17.6899	-5.82206
  77	1	6	-0.130298	-1.3763	-14.7759	-5.19925
  78	1	6	-0.128745	-2.72328	-15.0876	-3.5929
  79	1	6	-0.120019	-0.744141	-16.0574	-3.53578
  80	1	6	-0.104287	-1.68337	-18.3415	-6.91586
  81	1	6	-0.095507	-0.547314	-18.5612	-5.00359
  82	1	6	-0.104872	-0.237207	-16.8467	-6.24099
  83	1	3	0.456145	-4.25208	-14.8123	-9.46583
  84	1	3	0.550902	-6.18566	-14.1365	-8.44994
  85	1	4	0.015704	-5.39135	-14.0378	-9.59134
  86	1	2	-0.456801	-3.41269	-15.0388	-10.3128
  87	1	2	-0.487703	-7.21161	-13.5322	-8.18707
  88	1	1	-0.116566	-5.60457	-13.1285	-10.6864
  89	1	1	-0.050109	-4.92962	-11.871	-10.6945
  90	1	1	0.154929	-4.8949	-11.086	-11.8665
  91	1	1	0.041555	-6.33499	-13.5446	-11.8188
  92	1	1	-0.223109	-6.38779	-12.7013	-12.9497
  93	1	1	-0.080449	-5.68646	-11.4775	-12.9776
  94	1	5	-0.108008	-6.89809	-14.9662	-11.8678
  95	1	5	-0.182228	-5.81736	-10.5781	-14.21
  96	1	5	-0.345523	-4.08999	-11.4714	-9.47858
  97	1	7	0.155183	-2.47138	-17.2582	-2.23117
  98	1	7	0.172904	-3.85677	-19.0	-5.98819
  99	1	7	0.158028	-4.75056	-20.9281	-4.79452
 100	1	7	0.153129	-6.62136	-14.8497	-5.68874
 101	1	7	0.142914	-4.96127	-16.0979	-4.35695
 102	1	7	0.135531	-2.27345	-16.1988	-7.78339
 103	1	7	0.17765	-6.92618	-13.0254	-13.8337
 104	1	9	0.046541	-7.86069	-15.0553	-11.3553
 105	1	9	0.045238	-6.22275	-15.7132	-11.4213
 106	1	9	0.051941	-7.06184	-15.2649	-12.9092
 107	1	9	0.087961	-4.85555	-10.138	-14.5127
 108	1	9	0.066782	-6.52345	-9.76283	-14.0102
 109	1	9	0.075908	-6.22004	-11.1533	-15.0493
 110	1	9	0.105172	-3.74516	-10.4302	-9.41625
 111	1	9	0.115625	-3.18356	-12.0813	-9.46135
 112	1	9	0.140296	-4.63468	-11.6783	-8.53874
 113	1	1	-0.004194	4.68566	-28.5	5.42453
 114	1	1	-0.097141	3.39944	-28.6345	4.82693
 115	1	1	-0.172015	2.45623	-29.4105	5.56822
 116	1	2	-0.377994	7.19933	-28.4337	7.25784
 117	1	1	0.033493	4.9513	-29.0805	6.69626
 118	1	1	-0.063739	2.73209	-30.0185	6.82064
 119	1	2	-0.398381	3.97219	-30.7862	9.61897
 120	1	1	0.032144	4.00903	-29.8332	7.37695
 121	1	3	0.032313	6.16818	-29.0095	7.52613
 122	1	4	0.461698	5.84852	-29.6708	8.71398
 123	1	3	0.091945	4.56892	-30.2343	8.70028
 124	1	1	-0.10563	0.59895	-25.4257	5.05219
 125	1	5	-0.099376	3.00152	-27.9964	3.43068
 126	1	1	-0.043296	1.69668	-27.1261	3.60979
 127	1	1	-0.073043	1.54769	-26.4318	4.85568
 128	1	1	-0.117827	-0.281862	-25.1578	3.98954
 129	1	1	-0.037562	0.750449	-26.8327	2.56873
 130	1	1	-0.083705	-0.204502	-25.8227	2.77134
 131	1	5	0.396	2.80203	-29.1915	2.42633
 132	1	5	0.310495	4.1117	-27.0139	2.82005
 133	1	6	-0.130298	2.70664	-28.801	1.13975
 134	1	6	-0.128745	3.84135	-30.0524	2.53988
 135	1	6	-0.120019	1.6354	-29.8385	2.69543
 136	1	6	-0.104287	3.67263	-26.3084	1.75333
 137	1	6	-0.095507	5.20137	-27.6956	2.41496
 138	1	6	-0.104872	4.54463	-26.0755	3.6962
 139	1	3	0.456145	-1.14025	-25.1674	1.80411
 140	1	3	0.550902	-1.31454	-24.095	3.87181
 141	1	4	0.015704	-1.77611	-24.1642	2.53053
 142	1	2	-0.456801	-1.39571	-25.5008	0.654795
 143	1	2	-0.487703	-1.74738	-23.4758	4.84943
 144	1	1	-0.116566	-2.89474	-23.4205	1.96786
 145	1	1	-0.050109	-2.69319	-22.348	1.04946
 146	1	1	0.154929	-3.83484	-21.7729	0.392048
 147	1	1	0.041555	-4.19939	-23.805	2.27839
 148	1	1	-0.223109	-5.31708	-23.1526	1.74221
 149	1	1	-0.080449	-5.15647	-22.1286	0.802655
 150	1	5	-0.108008	-4.45182	-24.9374	3.22076
 151	1	5	-0.182228	-6.42924	-21.4439	0.259792
 152	1	5	-0.345523	-1.24652	-21.8599	0.698688
 153	1	7	0.155183	5.49183	-27.9959	4.91386
 154	1	7	0.172904	1.44529	-29.5211	5.16974
 155	1	7	0.158028	1.95267	-30.5433	7.37984
 156	1	7	0.153129	0.517603	-24.8898	5.99444
 157	1	7	0.142914	2.27103	-26.5635	5.65699
 158	1	7	0.135531	0.863636	-27.2557	1.56692
 159	1	7	0.17765	-6.32503	-23.4575	2.06281
 160	1	9	0.046541	-4.11442	-24.7356	4.24842
 161	1	9	0.045238	-3.9752	-25.8557	2.85323
 162	1	9	0.051941	-5.51351	-25.1887	3.30144
 163	1	9	0.087961	-6.94901	-22.0995	-0.469949
 164	1	9	0.066782	-6.17089	-20.4898	-0.231645
 165	1	9	0.075908	-7.15615	-21.1939	1.04815
 166	1	9	0.105172	-0.450521	-22.3429	1.28573
 167	1	9	0.115625	-1.13249	-20.7747	0.856501
 168	1	9	0.140296	-1.00544	-22.072	-0.357084
 169	1	4	0.48116	19.7061	-35.1465	15.2055
 170	1	3	0.034009	18.6809	-34.5439	14.4798
 171	1	1	0.028921	19.1773	-33.1717	14.1718
 172	1	3	0.071556	20.8138	-34.2979	15.3839
 173	1	1	0.025276	20.4437	-33.0145	14.686
 174	1	2	-0.381907	17.6031	-35.0209	14.1678
 175	1	2	-0.393799	21.8382	-34.5174	16.0176
 176	1	1	-0.008998	18.5191	-32.1111	13.5571
 177	1	1	-0.064503	21.1439	-31.7986	14.5485
 178	1	1	-0.16756	20.5157	-30.7293	13.8816
 179	1	1	-0.085161	19.1916	-30.8781	13.3799
 180	1	7	0.158939	17.4736	-32.2627	13.2774
 181	1	7	0.163781	22.1311	-31.6993	14.9974
 182	1	7	0.161401	21.0437	-29.7861	13.8309
 183	1	5	-0.078003	18.3995	-29.7097	12.7499
 184	1	5	0.303704	17.6297	-28.9862	13.9664
 185	1	6	-0.1084	16.6216	-29.7674	14.4824
 186	1	6	-0.101508	17.101	-27.7928	13.5604
 187	1	6	-0.111714	18.4378	-28.717	15.0312
 188	1	5	0.380371	19.2984	-28.7069	11.9568
 189	1	6	-0.124028	18.5741	-27.8437	11.1756
 190	1	6	-0.119704	20.2043	-29.3559	11.1671
 191	1	6	-0.115877	20.0353	-27.9528	12.7935
 192	1	1	-0.024709	17.4633	-30.3148	11.6615
 193	1	1	-0.076489	16.1201	-29.905	11.5997
 194	1	1	-0.052344	15.2458	-30.6407	10.8359
 195	1	1	-0.054202	17.8783	-31.3926	10.7964
 196	1	1	-0.149083	16.926	-32.1958	10.1134
 197	1	1	-0.063027	15.5869	-31.7865	10.1628
 198	1	3	0.499526	14.3094	-32.4409	9.76447
 199	1	4	-0.036881	13.2909	-31.551	10.1861
 200	1	3	0.443545	13.8138	-30.4018	10.767
 201	1	1	0.038197	11.8828	-31.7713	10.0946
 202	1	1	-0.408621	11.3158	-32.1891	8.88304
 203	1	1	0.252781	9.92878	-32.2555	8.73615
 204	1	1	-0.169778	11.0375	-31.4078	11.1509
 205	1	1	-0.113042	9.65385	-31.3276	10.9662
 206	1	1	0.016958	9.09525	-31.7566	9.74352
 207	1	7	0.167832	17.2059	-33.1108	9.59962
 208	1	7	0.134138	18.9107	-31.7318	10.8121
 209	1	7	0.145229	15.7142	-29.073	12.1682
 210	1	2	-0.462312	13.2732	-29.3694	11.1332
 211	1	2	-0.483102	14.2191	-33.5765	9.3259
 212	1	7	0.144532	9.03698	-30.9312	11.7709
 213	1	7	0.226042	11.9513	-32.421	8.03138
 214	1	1	0.12103	6.92255	-30.9972	10.2506
 215	1	1	-0.09864	6.60769	-31.5381	11.5101
 216	1	1	-0.194398	6.14311	-30.6683	12.5052
 217	1	1	-0.091961	5.90661	-29.3067	12.2246
 218	1	1	-0.197799	6.10043	-28.8242	10.9166
 219	1	1	-0.102777	6.63964	-29.66	9.90184
 220	1	7	0.132074	5.56464	-28.6509	13.0189
 221	1	7	0.154044	5.89518	-27.7745	10.6999
 222	1	7	0.145155	6.84091	-32.5701	11.7424
 223	1	7	0.14558	7.50586	-29.1696	9.46289
 224	1	10	-0.24014	7.73932	-31.718	9.44626
 225	1	7	0.152938	11.4609	-31.0784	12.1009
 226	1	7	0.151751	5.98224	-31.0534	13.5137
 227	1	1	-0.004194	12.3497	-38.6427	19.712
 228	1	1	-0.097141	12.2786	-39.8565	20.4453
 229	1	1	-0.172015	11.486	-40.9165	19.9089
 230	1	2	-0.377994	12.1324	-36.307	17.7498
 231	1	1	0.033493	11.7141	-38.5419	18.4778
 232	1	1	-0.063739	10.8539	-40.7791	18.6653
 233	1	2	-0.398381	9.79502	-39.8302	15.8744
 234	1	1	0.032144	11.0248	-39.5945	17.9407
 235	1	3	0.032313	11.6639	-37.4069	17.5265
 236	1	4	0.461698	10.9438	-37.8636	16.4298
 237	1	3	0.091945	10.5295	-39.1859	16.5984
 238	1	1	-0.10563	16.5577	-38.1367	21.9875
 239	1	5	-0.099376	13.1176	-39.9878	21.7654
 240	1	1	-0.043296	14.5352	-39.4502	21.4619
 241	1	1	-0.073043	15.3148	-38.6957	22.3765
 242	1	1	-0.117827	16.9991	-38.3125	20.6631
 243	1	1	-0.037562	15.0651	-39.6744	20.1557
 244	1	1	-0.083705	16.2451	-39.0253	19.7737
 245	1	5	0.396	13.2656	-41.5002	22.2503
 246	1	5	0.310495	12.3773	-39.0978	22.8321
 247	1	6	-0.130298	14.1801	-41.629	23.232
 248	1	6	-0.128745	13.7141	-42.2818	21.2371
 249	1	6	-0.120019	12.1024	-42.058	22.6972
 250	1	6	-0.104287	12.4314	-37.7696	22.513
 251	1	6	-0.095507	12.8448	-39.2688	24.0906
 252	1	6	-0.104872	11.0754	-39.4587	22.8529
 253	1	3	0.456145	16.9477	-38.9999	18.4498
 254	1	3	0.550902	18.2434	-37.843	19.931
 255	1	4	0.015704	18.1371	-38.3213	18.625
 256	1	2	-0.456801	16.4907	-39.3981	17.4015
 257	1	2	-0.487703	19.1436	-37.1352	20.3664
 258	1	1	-0.116566	19.0322	-37.9861	17.5418
 259	1	1	-0.050109	18.8514	-36.7652	16.8385
 260	1	1	0.154929	19.6827	-36.4663	15.7362
 261	1	1	0.041555	20.0449	-38.8817	17.1398
 262	1	1	-0.223109	20.7996	-38.5963	16.003
 263	1	1	-0.080449	20.6208	-37.4118	15.284
 264	1	5	-0.108008	20.3185	-40.1886	17.8499
 265	1	5	-0.182228	21.5932	-37.1542	14.1424
 266	1	5	-0.345523	17.7515	-35.772	17.2486
 267	1	7	0.155183	12.9549	-37.8083	20.0553
 268	1	7	0.172904	11.3869	-41.8652	20.4357
 269	1	7	0.158028	10.2815	-41.5954	18.2381
 270	1	7	0.153129	17.1593	-37.5704	22.6905
 271	1	7	0.142914	14.9956	-38.5278	23.401
 272	1	7	0.135531	14.5467	-40.2754	19.4136
 273	1	7	0.17765	21.5627	-39.3055	15.6679
 274	1	9	0.046541	21.1214	-40.7602	17.3559
 275	1	9	0.045238	19.4159	-40.8167	17.872
 276	1	9	0.051941	20.6062	-39.9997	18.8979
 277	1	9	0.087961	21.2541	-36.3801	13.4421
 278	1	9	0.066782	21.7714	-38.0625	13.5547
 279	1	9	0.075908	22.5575	-36.8233	14.5442
 280	1	9	0.105172	18.1713	-34.7644	17.4288
 281	1	9	0.115625	17.2258	-36.0264	18.1707
 282	1	9	0.140296	16.9598	-35.6892	16.4849
 283	1	1	-0.004194	0.324853	-30.7878	13.6903
 284	1	1	-0.097141	1.51718	-31.4539	13.2352
 285	1	1	-0.172015	2.59299	-30.6377	12.8074
 286	1	2	-0.377994	-1.90928	-28.7453	14.6206
 287	1	1	0.033493	0.310176	-29.3915	13.8076
 288	1	1	-0.063739	2.52489	-29.2361	12.84
 289	1	2	-0.398381	1.93267	-26.3217	13.7312
 290	1	1	0.032144	1.40761	-28.6526	13.434
 291	1	3	0.032313	-0.760339	-28.4538	14.2996
 292	1	4	0.461698	-0.159792	-27.1822	14.2556
 293	1	3	0.091945	1.14161	-27.2385	13.7652
 294	1	1	-0.10563	4.89209	-32.8189	15.5175
 295	1	5	-0.099376	1.73136	-32.9943	13.1992
 296	1	1	-0.043296	3.11621	-33.3237	13.8616
 297	1	1	-0.073043	3.57694	-32.6332	15.0236
 298	1	1	-0.117827	5.7392	-33.7379	14.8868
 299	1	1	-0.037562	3.99675	-34.3067	13.3126
 300	1	1	-0.083705	5.30071	-34.4814	13.8242
 301	1	5	0.396	1.67736	-33.3944	11.6554
 302	1	5	0.310495	0.647144	-33.6999	14.1066
 303	1	6	-0.130298	1.49082	-34.7094	11.4705
 304	1	6	-0.128745	2.75699	-33.0734	10.9021
 305	1	6	-0.120019	0.669575	-32.7752	11.0234
 306	1	6	-0.104287	0.544858	-33.0663	15.3148
 307	1	6	-0.095507	0.962071	-34.967	14.3625
 308	1	6	-0.104872	-0.566877	-33.8245	13.553
 309	1	3	0.456145	6.42319	-35.3814	13.385
 310	1	3	0.550902	7.15672	-34.1158	15.1457
 311	1	4	0.015704	7.46543	-35.1263	14.251
 312	1	2	-0.456801	6.44216	-36.1601	12.4474
 313	1	2	-0.487703	7.85806	-33.6919	16.0405
 314	1	1	-0.116566	8.76678	-35.7296	14.2377
 315	1	1	-0.050109	9.16363	-36.6268	15.262
 316	1	1	0.154929	10.5386	-37.0014	15.3716
 317	1	1	0.041555	9.70626	-35.3275	13.261
 318	1	1	-0.223109	11.052	-35.6881	13.4021
 319	1	1	-0.080449	11.4953	-36.4803	14.4602
 320	1	5	-0.108008	9.2694	-34.5847	12.0131
 321	1	5	-0.182228	12.9776	-36.8582	14.4421
 322	1	5	-0.345523	8.07077	-37.2074	16.1799
 323	1	7	0.155183	-0.572572	-31.3213	13.9898
 324	1	7	0.172904	3.48625	-31.109	12.3926
 325	1	7	0.158028	3.34038	-28.6227	12.4912
 326	1	7	0.153129	5.28131	-32.2025	16.3432
 327	1	7	0.142914	2.95004	-31.8787	15.4943
 328	1	7	0.135531	3.71235	-34.8994	12.4408
 329	1	7	0.17765	11.747	-35.3582	12.632
 330	1	9	0.046541	10.1052	-34.4955	11.2927
 331	1	9	0.045238	8.94585	-33.5692	12.2892
 332	1	9	0.051941	8.47187	-35.1113	11.467
 333	1	9	0.087961	13.3882	-37.1017	15.4313
 334	1	9	0.066782	13.5805	-36.0418	14.0436
 335	1	9	0.075908	13.1664	-37.7234	13.791
 336	1	9	0.105172	8.30629	-37.1423	17.2474
 337	1	9	0.115625	7.88773	-38.2628	15.9432
 338	1	9	0.140296	7.10063	-36.7224	16.0708
 339	1	4	0.48116	0.0932124	-14.1945	0.734262
 340	1	3	0.034009	-0.886436	-15.1623	0.61124
 341	1	1	0.028921	-1.11789	-15.5873	2.0029
 342	1	3	0.071556	0.54508	-14.0041	2.04992
 343	1	1	0.025276	-0.326524	-14.856	2.84116
 344	1	2	-0.381907	-1.51313	-15.4589	-0.382736
 345	1	2	-0.393799	1.3869	-13.2297	2.49315
 346	1	1	-0.008998	-2.09001	-16.4337	2.53937
 347	1	1	-0.064503	-0.51148	-14.8607	4.21964
 348	1	1	-0.16756	-1.42359	-15.7919	4.76819
 349	1	1	-0.085161	-2.21408	-16.6185	3.93577
 350	1	7	0.158939	-2.7487	-16.9414	1.84366
 351	1	7	0.163781	0.0776056	-14.2043	4.85058
 352	1	7	0.161401	-1.50753	-15.8697	5.84053
 353	1	5	-0.078003	-3.21733	-17.631	4.55055
 354	1	5	0.303704	-4.02722	-18.4993	3.51231
 355	1	6	-0.1084	-4.75362	-19.5068	4.09789
 356	1	6	-0.101508	-3.17467	-19.1082	2.66482
 357	1	6	-0.111714	-4.86216	-17.792	2.74598
 358	1	5	0.380371	-4.23644	-16.7164	5.36797
 359	1	6	-0.124028	-5.3582	-17.3531	5.67769
 360	1	6	-0.119704	-4.64044	-15.5767	4.74308
 361	1	6	-0.115877	-3.70194	-16.3053	6.51745
 362	1	1	-0.024709	-2.44478	-18.6604	5.39736
 363	1	1	-0.076489	-3.08204	-19.251	6.52643
 364	1	1	-0.052344	-2.42683	-20.3119	7.14532
 365	1	1	-0.054202	-1.18416	-19.1677	4.91611
 366	1	1	-0.149083	-0.554564	-20.2399	5.58921
 367	1	1	-0.063027	-1.20928	-20.7752	6.70193
 368	1	3	0.499526	-0.819819	-21.9427	7.52132
 369	1	4	-0.036881	-1.84335	-22.0878	8.45158
 370	1	3	0.443545	-2.85929	-21.1685	8.27111
 371	1	1	0.038197	-1.90918	-23.1006	9.46755
 372	1	1	-0.408621	-2.62878	-24.3044	9.33291
 373	1	1	0.252781	-2.60829	-25.2738	10.3651
 374	1	1	-0.169778	-1.2044	-22.8962	10.6551
 375	1	1	-0.113042	-1.20125	-23.8316	11.6885
 376	1	1	0.016958	-1.88277	-25.0452	11.5358
 377	1	7	0.167832	0.359477	-20.6892	5.22579
 378	1	7	0.134138	-0.704393	-18.7715	4.03253
 379	1	7	0.145229	-4.06176	-18.9299	6.89825
 380	1	2	-0.462312	-3.94418	-21.1333	8.81178
 381	1	2	-0.483102	0.130528	-22.6892	7.3469
 382	1	7	0.144532	-0.639837	-23.6258	12.5985
 383	1	7	0.226042	-3.19979	-24.511	8.43137
 384	1	1	0.12103	-1.94742	-25.6507	13.931
 385	1	1	-0.09864	-3.08688	-25.0704	14.5548
 386	1	1	-0.194398	-3.11543	-24.9263	15.9604
 387	1	1	-0.091961	-1.99407	-25.3178	16.7242
 388	1	1	-0.197799	-0.848026	-25.812	16.0744
 389	1	1	-0.102777	-0.802767	-25.9721	14.6764
 390	1	7	0.132074	-1.98659	-25.205	17.8081
 391	1	7	0.154044	-0.01707	-26.1489	16.6887
 392	1	7	0.145155	-3.95174	-24.7647	13.9615
 393	1	7	0.14558	-0.0635038	-25.2633	14.3273
 394	1	10	-0.24014	-1.88518	-25.9485	12.5577
 395	1	7	0.152938	-0.620985	-21.9936	10.789
 396	1	7	0.151751	-3.97739	-24.511	16.4651
 397	1	1	-0.004194	-3.83028	-3.70777	-5.79818
 398	1	1	-0.097141	-2.9289	-4.823	-5.85457
 399	1	1	-0.172015	-1.57311	-4.59428	-6.16324
 400	1	2	-0.377994	-5.29903	-1.04676	-6.16594
 401	1	1	0.033493	-3.34538	-2.45778	-6.18795
 402	1	1	-0.063739	-1.08745	-3.29491	-6.48498
 403	1	2	-0.398381	-0.96669	-0.335716	-7.65493
 404	1	1	0.032144	-2.01413	-2.23245	-6.51756
 405	1	3	0.032313	-4.09743	-1.18038	-6.3214
 406	1	4	0.461698	-3.13962	-0.246443	-6.7245
 407	1	3	0.091945	-1.87246	-0.806512	-6.9673
 408	1	1	-0.10563	-1.06504	-6.86963	-2.62949
 409	1	5	-0.099376	-3.36449	-6.30887	-5.61355
 410	1	1	-0.043296	-2.38641	-7.03836	-4.69609
 411	1	1	-0.073043	-1.86145	-6.28974	-3.60532
 412	1	1	-0.117827	-0.814237	-8.232	-2.7549
 413	1	1	-0.037562	-2.09507	-8.4316	-4.8052
 414	1	1	-0.083705	-1.3111	-8.99274	-3.78699
 415	1	5	0.396	-4.68584	-6.38662	-4.76333
 416	1	5	0.310495	-3.46653	-6.94916	-7.06194
 417	1	6	-0.130298	-5.07023	-7.60074	-4.31114
 418	1	6	-0.128745	-5.71991	-5.88441	-5.44455
 419	1	6	-0.120019	-4.59618	-5.67736	-3.62609
 420	1	6	-0.104287	-3.86229	-6.09327	-8.0279
 421	1	6	-0.095507	-4.27399	-8.00328	-7.11286
 422	1	6	-0.104872	-2.25656	-7.376	-7.49579
 423	1	3	0.456145	-1.03786	-10.4015	-3.49671
 424	1	3	0.550902	-0.146637	-9.1077	-1.79345
 425	1	4	0.015704	-0.286147	-10.3811	-2.31352
 426	1	2	-0.456801	-1.41542	-11.3393	-4.16552
 427	1	2	-0.487703	0.36462	-8.78548	-0.738943
 428	1	1	-0.116566	0.390755	-11.5453	-1.8498
 429	1	1	-0.050109	-0.135782	-12.3203	-0.804187
 430	1	1	0.154929	0.59311	-13.4392	-0.342356
 431	1	1	0.041555	1.59239	-11.935	-2.51423
 432	1	1	-0.223109	2.30076	-13.072	-2.05173
 433	1	1	-0.080449	1.84232	-13.8005	-0.932289
 434	1	5	-0.108008	2.12626	-11.08	-3.64773
 435	1	5	-0.182228	2.62565	-15.0335	-0.401324
 436	1	5	-0.345523	-1.4827	-11.9811	-0.177051
 437	1	7	0.155183	-4.89529	-3.80369	-5.57952
 438	1	7	0.172904	-0.903175	-5.4447	-6.20646
 439	1	7	0.158028	-0.0513157	-3.16459	-6.79382
 440	1	7	0.153129	-0.69231	-6.28604	-1.79498
 441	1	7	0.142914	-2.15601	-5.26133	-3.47253
 442	1	7	0.135531	-2.56142	-9.06723	-5.55758
 443	1	7	0.17765	3.24461	-13.3635	-2.51903
 444	1	9	0.046541	3.19607	-11.2394	-3.78668
 445	1	9	0.045238	1.99436	-9.99954	-3.50828
 446	1	9	0.051941	1.60457	-11.3593	-4.56673
 447	1	9	0.087961	3.19549	-14.775	0.492467
 448	1	9	0.066782	3.34113	-15.4557	-1.12126
 449	1	9	0.075908	1.96841	-15.8681	-0.116735
 450	1	9	0.105172	-1.88845	-11.0359	-0.565745
 451	1	9	0.115625	-1.45178	-11.8412	0.920275
 452	1	9	0.140296	-2.23921	-12.7541	-0.411292
 453	1	4	0.48116	7.07408	11.7767	-6.95729
 454	1	3	0.034009	7.71564	10.5208	-7.16638
 455	1	1	0.028921	7.7211	9.9081	-5.82383
 456	1	3	0.071556	6.67476	11.982	-5.60269
 457	1	1	0.025276	6.99806	10.6972	-4.94765
 458	1	2	-0.381907	8.20746	10.0314	-8.1906
 459	1	2	-0.393799	6.02708	12.8804	-5.06934
 460	1	1	-0.008998	8.22787	8.65623	-5.46124
 461	1	1	-0.064503	6.64657	10.2121	-3.68154
 462	1	1	-0.16756	7.12241	8.94258	-3.2984
 463	1	1	-0.085161	7.98617	8.1542	-4.14792
 464	1	7	0.158939	8.83659	8.1447	-6.195
 465	1	7	0.163781	5.97545	10.784	-3.04226
 466	1	7	0.161401	6.85269	8.61096	-2.2936
 467	1	5	-0.078003	8.61431	6.79326	-3.66772
 468	1	5	0.303704	9.22868	7.04874	-2.21666
 469	1	6	-0.1084	10.2291	6.1848	-1.88113
 470	1	6	-0.101508	8.28582	6.88853	-1.24435
 471	1	6	-0.111714	9.74665	8.31695	-2.02131
 472	1	5	0.380371	9.78307	6.25315	-4.55934
 473	1	6	-0.124028	9.41097	5.93664	-5.82554
 474	1	6	-0.119704	10.3318	5.12004	-4.05805
 475	1	6	-0.115877	10.8085	7.12805	-4.57001
 476	1	1	-0.024709	7.52684	5.69826	-3.63453
 477	1	1	-0.076489	6.39813	5.83074	-4.48488
 478	1	1	-0.052344	5.31096	4.95888	-4.24844
 479	1	1	-0.054202	7.66629	4.5268	-2.80981
 480	1	1	-0.149083	6.6381	3.57104	-2.71536
 481	1	1	-0.063027	5.44433	3.87584	-3.38948
 482	1	3	0.499526	4.19403	3.0826	-3.47102
 483	1	4	-0.036881	3.35189	3.71798	-4.36261
 484	1	3	0.443545	3.92084	4.91289	-4.84098
 485	1	1	0.038197	2.03237	3.30532	-4.669
 486	1	1	-0.408621	1.78146	2.45127	-5.75938
 487	1	1	0.252781	0.482844	1.96616	-6.01588
 488	1	1	-0.169778	0.998866	3.64149	-3.79935
 489	1	1	-0.113042	-0.298385	3.14534	-4.03122
 490	1	1	0.016958	-0.548882	2.28663	-5.11679
 491	1	7	0.167832	6.73815	2.65644	-2.12345
 492	1	7	0.134138	8.59018	4.33167	-2.26977
 493	1	7	0.145229	6.30417	6.64821	-5.2051
 494	1	2	-0.462312	3.3813	5.81807	-5.45769
 495	1	2	-0.483102	4.02444	2.06534	-2.85172
 496	1	7	0.144532	-1.10673	3.43751	-3.36877
 497	1	7	0.226042	2.56409	2.18317	-6.46603
 498	1	1	0.12103	-2.49705	2.07805	-6.58079
 499	1	1	-0.09864	-2.03899	3.12879	-7.42714
 500	1	1	-0.194398	-2.63528	3.33603	-8.68519
 501	1	1	-0.091961	-3.64964	2.47603	-9.08539
 502	1	1	-0.197799	-3.97302	1.34323	-8.32809
 503	1	1	-0.102777	-3.4382	1.10541	-7.04523
 504	1	7	0.132074	-4.04245	2.55211	-10.0959
 505	1	7	0.154044	-4.6813	0.660039	-8.7759
 506	1	7	0.145155	-1.22051	3.77055	-7.11771
 507	1	7	0.14558	-4.28527	1.15646	-6.36373
 508	1	10	-0.24014	-1.84638	1.8958	-5.36403
 509	1	7	0.152938	1.20268	4.28478	-2.94457
 510	1	7	0.151751	-2.24465	4.09454	-9.35521
 511	1	4	0.48116	18.7363	23.591	-11.841
 512	1	3	0.034009	17.6141	22.8886	-11.4975
 513	1	1	0.028921	17.3256	22.0628	-12.6985
 514	1	3	0.071556	19.2617	23.2617	-13.0619
 515	1	1	0.025276	18.2579	22.3606	-13.6688
 516	1	2	-0.381907	16.8724	23.0762	-10.5473
 517	1	2	-0.393799	20.3128	23.6666	-13.5392
 518	1	1	-0.008998	16.1735	21.2736	-12.9671
 519	1	1	-0.064503	18.0717	21.9942	-14.9984
 520	1	1	-0.16756	16.8792	21.2866	-15.2877
 521	1	1	-0.085161	15.9377	20.8694	-14.307
 522	1	7	0.158939	15.4775	21.1134	-12.1692
 523	1	7	0.163781	18.7945	22.248	-15.7817
 524	1	7	0.161401	16.7894	20.9707	-16.3172
 525	1	5	-0.078003	14.7312	19.9681	-14.7049
 526	1	5	0.303704	14.0112	20.6507	-15.9183
 527	1	6	-0.1084	12.8388	20.078	-16.1284
 528	1	6	-0.101508	14.624	20.528	-17.1312
 529	1	6	-0.111714	13.6699	21.9438	-15.713
 530	1	5	0.380371	15.25	18.5627	-15.2609
 531	1	6	-0.124028	15.8951	17.9579	-14.281
 532	1	6	-0.119704	16.2434	18.6415	-16.1558
 533	1	6	-0.115877	14.322	17.6839	-15.737
 534	1	1	-0.024709	13.6222	19.839	-13.5878
 535	1	1	-0.076489	12.9823	18.62	-13.2579
 536	1	1	-0.052344	11.9541	18.5848	-12.3049
 537	1	1	-0.054202	13.0282	20.9888	-13.0064
 538	1	1	-0.149083	11.9513	20.9649	-12.0803
 539	1	1	-0.063027	11.42	19.7226	-11.7377
 540	1	3	0.499526	10.3526	19.3636	-10.7628
 541	1	4	-0.036881	10.3668	17.9704	-10.7863
 542	1	3	0.443545	11.2586	17.4225	-11.7073
 543	1	1	0.038197	9.59196	17.1617	-9.89865
 544	1	1	-0.408621	9.5086	17.447	-8.50898
 545	1	1	0.252781	8.8184	16.6023	-7.61866
 546	1	1	-0.169778	8.99044	15.9882	-10.3783
 547	1	1	-0.113042	8.22361	15.2	-9.49246
 548	1	1	0.016958	8.17665	15.4729	-8.11992
 549	1	7	0.167832	11.6007	21.8872	-11.5978
 550	1	7	0.134138	13.434	21.9525	-13.2849
 551	1	7	0.145229	13.2697	17.6799	-13.7002
 552	1	2	-0.462312	11.4186	16.2411	-11.9511
 553	1	2	-0.483102	9.70049	20.1389	-10.0618
 554	1	7	0.144532	7.67467	14.3721	-9.90234
 555	1	7	0.226042	10.0551	18.3059	-8.09351
 556	1	1	0.12103	6.44782	13.9556	-7.61298
 557	1	1	-0.09864	5.22378	14.6037	-7.80049
 558	1	1	-0.194398	4.13937	13.9361	-8.42896
 559	1	1	-0.091961	4.36522	12.6585	-8.93682
 560	1	1	-0.197799	5.62923	12.071	-8.79596
 561	1	1	-0.102777	6.67433	12.6404	-8.03731
 562	1	7	0.132074	3.55163	12.1295	-9.43101
 563	1	7	0.154044	5.72798	11.0556	-9.19392
 564	1	7	0.145155	5.11436	15.6352	-7.46412
 565	1	7	0.14558	7.62972	12.5525	-8.54835
 566	1	10	-0.24014	7.54154	14.6601	-7.22151
 567	1	7	0.152938	9.04843	15.7516	-11.4304
 568	1	7	0.151751	3.17417	14.3972	-8.56431
 569	1	1	-0.004194	15.38	33.9609	-16.1791
 570	1	1	-0.097141	16.0367	32.9764	-15.353
 571	1	1	-0.172015	16.2188	31.652	-15.8987
 572	1	2	-0.377994	13.733	35.3961	-18.3199
 573	1	1	0.033493	15.0632	33.5917	-17.4992
 574	1	1	-0.063739	15.8904	31.3538	-17.2412
 575	1	2	-0.398381	15.4692	31.4789	-20.2666
 576	1	1	0.032144	15.4202	32.3786	-18.0364
 577	1	3	0.032313	14.2884	34.3217	-18.5315
 578	1	4	0.461698	14.367	33.5025	-19.6938
 579	1	3	0.091945	15.1282	32.3538	-19.4863
 580	1	1	-0.10563	19.5249	31.0284	-14.0853
 581	1	5	-0.099376	16.4313	33.2846	-13.8631
 582	1	1	-0.043296	17.4737	32.2049	-13.4403
 583	1	1	-0.073043	18.6077	32.0515	-14.2774
 584	1	1	-0.117827	19.3027	30.1187	-13.075
 585	1	1	-0.037562	17.2984	31.2879	-12.3844
 586	1	1	-0.083705	18.2817	30.3085	-12.1734
 587	1	5	0.396	15.0552	33.2872	-13.0519
 588	1	5	0.310495	17.1866	34.7048	-13.6891
 589	1	6	-0.130298	14.3318	32.1503	-13.2102
 590	1	6	-0.128745	14.2446	34.2835	-13.4892
 591	1	6	-0.120019	15.1114	33.4749	-11.7204
 592	1	6	-0.104287	16.3551	35.7635	-13.7296
 593	1	6	-0.095507	18.1505	34.997	-14.6057
 594	1	6	-0.104872	17.8424	34.7383	-12.5076
 595	1	3	0.456145	18.2786	29.1765	-11.2222
 596	1	3	0.550902	20.0993	28.9818	-12.6455
 597	1	4	0.015704	19.3616	28.4277	-11.5997
 598	1	2	-0.456801	17.4251	28.8583	-10.3964
 599	1	2	-0.487703	21.0167	28.5019	-13.3016
 600	1	1	-0.116566	19.5847	27.1309	-11.0731
 601	1	1	-0.050109	19.045	26.0253	-11.7488
 602	1	1	0.154929	19.2053	24.7421	-11.1616
 603	1	1	0.041555	20.2973	26.9661	-9.85003
 604	1	1	-0.223109	20.5371	25.6691	-9.33684
 605	1	1	-0.080449	20.0257	24.5352	-10.0297
 606	1	5	-0.108008	20.778	28.1802	-9.08878
 607	1	5	-0.182228	20.4222	23.1042	-9.67166
 608	1	5	-0.345523	18.362	26.2525	-13.131
 609	1	7	0.155183	15.1123	34.9655	-15.86
 610	1	7	0.172904	16.576	30.8052	-15.3117
 611	1	7	0.158028	16.0407	30.382	-17.6834
 612	1	7	0.153129	20.4098	30.9416	-14.7225
 613	1	7	0.142914	18.7597	32.7128	-15.1301
 614	1	7	0.135531	16.4667	31.37	-11.6945
 615	1	7	0.17765	21.1712	25.5365	-8.46498
 616	1	9	0.046541	21.147	27.977	-8.07522
 617	1	9	0.045238	19.9958	28.9417	-9.00483
 618	1	9	0.051941	21.6145	28.6088	-9.65375
 619	1	9	0.087961	21.1036	22.6838	-10.4202
 620	1	9	0.066782	19.561	22.4473	-9.57801
 621	1	9	0.075908	20.9512	23.0449	-8.70745
 622	1	9	0.105172	19.0858	26.6006	-13.8689
 623	1	9	0.115625	17.5743	26.9985	-13.1019
 624	1	9	0.140296	17.9366	25.3585	-13.5927
 625	1	4	0.48116	9.08332	23.8196	-29.8746
 626	1	3	0.034009	10.0944	24.7206	-30.183
 627	1	1	0.028921	11.3446	24.0948	-29.7051
 628	1	3	0.071556	9.55761	22.626	-29.3823
 629	1	1	0.025276	11.0423	22.8414	-29.2198
 630	1	2	-0.381907	10.0078	25.8162	-30.6961
 631	1	2	-0.393799	8.91934	21.5838	-29.2838
 632	1	1	-0.008998	12.648	24.6192	-29.6313
 633	1	1	-0.064503	12.0553	22.0184	-28.689
 634	1	1	-0.16756	13.3961	22.4614	-28.773
 635	1	1	-0.085161	13.6772	23.8128	-29.0739
 636	1	7	0.158939	12.8315	25.6499	-29.9211