pySIMM System Object

2060 atoms
2261 bonds
3927 angles
6010 dihedrals
664 impropers

10 atom types
12 bond types
21 angle types
8 dihedral types
4 improper types

-165.683173 165.683173 xlo xhi
-165.683173 165.683173 ylo yhi
-165.683173 165.683173 zlo zhi

Masses

   1	14.01	# n
   2	12.01	# c
   3	12.01	# ca
   4	1.008	# hn
   5	16.0	# o
   6	1.008	# ha
   7	12.01	# c3
   8	19.0	# f
   9	16.0	# os
  10	1.008	# hc

Pair Coeffs

   1	0.17	3.249998523775958	# n
   2	0.086	3.3996695084235347	# c
   3	0.086	3.3996695084235347	# ca
   4	0.0157	1.069078461768407	# hn
   5	0.21	2.959921901149463	# o
   6	0.015	2.59964245953351	# ha
   7	0.1094	3.3996695084235347	# c3
   8	0.061	3.1181455134911875	# f
   9	0.17	3.0000123434657784	# os
  10	0.0157	2.649532787749369	# hc

Bond Coeffs

   1	345.8	1.086	# ca,ha
   2	427.6	1.3789	# c,n
   3	637.7	1.2183	# c,o
   4	321.0	1.5156	# c3,ca
   5	300.9	1.5375	# c3,c3
   6	384.2	1.4121	# ca,n
   7	376.6	1.3696	# ca,os
   8	403.2	1.0129	# hn,n
   9	356.9	1.3497	# c3,f
  10	461.1	1.3984	# ca,ca
  11	345.9	1.4906	# c,ca
  12	330.6	1.0969	# c3,hc

Angle Coeffs

   1	48.33	117.55	# c,n,hn
   2	74.22	123.05	# n,c,o
   3	64.28	120.33	# c,ca,ca
   4	66.11	109.24	# c3,c3,f
   5	63.48	119.89	# ca,os,ca
   6	63.53	120.77	# c3,ca,ca
   7	66.62	120.02	# ca,ca,ca
   8	63.15	112.07	# c3,c3,ca
   9	63.82	123.71	# c,n,ca
  10	62.86	111.51	# c3,c3,c3
  11	70.89	107.36	# f,c3,f
  12	67.87	120.19	# ca,ca,n
  13	63.74	127.08	# c,n,c
  14	48.18	119.88	# ca,ca,ha
  15	68.72	122.6	# ca,c,o
  16	63.56	112.24	# ca,c3,ca
  17	69.58	119.2	# ca,ca,os
  18	67.68	115.25	# ca,c,n
  19	49.75	116.02	# ha,ca,n
  20	39.4	107.58	# hc,c3,hc
  21	46.8	110.47	# ca,c3,hc

Dihedral Coeffs

   1	2	2.5	2	180	2.0	1	0	# hn,n,c,o
   2	1	3.625	2	180	# X,ca,ca,X
   3	1	1.0	2	180	# X,c,ca,X
   4	1	0.15555555555555556	3	0	# X,c3,c3,X
   5	1	0.0	2	0	# X,c3,ca,X
   6	1	0.9	2	180	# X,ca,os,X
   7	1	2.5	2	180	# X,c,n,X
   8	1	0.45	2	180	# X,ca,n,X

Improper Coeffs

   1	10.5	-1	2	# c,X,X,o
   2	1.1	-1	2	# ca,X,X,ha
   3	1.1	-1	2	# ca,ca,ca,c3
   4	1.1	-1	2	# n,X,X,hn

Atoms

   1	1	1	0.48116	24.9364	39.0545	35.037
   2	1	2	0.034009	24.7562	39.3537	36.3928
   3	1	3	0.028921	24.2879	40.7568	36.4202
   4	1	2	0.071556	24.6084	40.1328	34.2069
   5	1	3	0.025276	24.2035	41.2225	35.1277
   6	1	5	-0.381907	24.9865	38.659	37.3701
   7	1	5	-0.393799	24.6974	40.2196	32.9923
   8	1	3	-0.008998	24.0107	41.5758	37.5141
   9	1	3	-0.064503	23.8276	42.5399	34.8569
  10	1	3	-0.16756	23.555	43.3915	35.9478
  11	1	3	-0.085161	23.6656	42.934	37.2917
  12	1	6	0.158939	24.1074	41.1659	38.5162
  13	1	6	0.163781	23.7632	42.8917	33.8291
  14	1	6	0.161401	23.2689	44.414	35.7223
  15	1	7	-0.078003	23.4266	43.8464	38.5301
  16	1	7	0.303704	23.4339	45.3882	38.2074
  17	1	8	-0.1084	22.3467	45.782	37.5072
  18	1	8	-0.101508	24.5278	45.7426	37.4963
  19	1	8	-0.111714	23.4636	46.1391	39.3339
  20	1	7	0.380371	22.016	43.4304	39.0965
  21	1	8	-0.124028	22.0464	42.2079	39.6749
  22	1	8	-0.119704	21.0977	43.3577	38.1055
  23	1	8	-0.115877	21.526	44.2921	40.0159
  24	1	3	-0.024709	24.6009	43.6114	39.5217
  25	1	3	-0.076489	25.9095	43.4315	39.0033
  26	1	3	-0.052344	26.9687	43.2037	39.8868
  27	1	3	-0.054202	24.4327	43.6207	40.9351
  28	1	3	-0.149083	25.5214	43.4157	41.8092
  29	1	3	-0.063027	26.7855	43.1955	41.2511
  30	1	2	0.499526	28.1143	43.0024	41.895
  31	1	1	-0.036881	29.0328	42.9174	40.8499
  32	1	2	0.443545	28.4113	43.0038	39.6074
  33	1	3	0.038197	30.4472	42.8059	41.0151
  34	1	3	-0.408621	31.3174	43.5589	40.2027
  35	1	3	0.252781	32.7094	43.4542	40.3507
  36	1	3	-0.169778	31.0031	41.953	41.9888
  37	1	3	-0.113042	32.3977	41.8655	42.1579
  38	1	3	0.016958	33.2597	42.6106	41.3276
  39	1	6	0.167832	25.3907	43.4357	42.8896
  40	1	6	0.134138	23.4587	43.7977	41.3783
  41	1	6	0.145229	26.1112	43.4687	37.9353
  42	1	5	-0.462312	28.915	42.9459	38.4981
  43	1	5	-0.483102	28.3257	42.9748	43.0958
  44	1	6	0.144532	32.7978	41.231	42.9441
  45	1	6	0.226042	30.9267	44.2229	39.4371
  46	1	3	0.12103	35.3139	41.6973	42.2666
  47	1	3	-0.09864	35.203	40.3161	42.0324
  48	1	3	-0.194398	35.8482	39.4072	42.8883
  49	1	3	-0.091961	36.6205	39.8792	43.9632
  50	1	3	-0.197799	36.7602	41.2621	44.1745
  51	1	3	-0.102777	36.1093	42.1713	43.3221
  52	1	6	0.132074	37.1192	39.1746	44.6227
  53	1	6	0.154044	37.3628	41.629	45.0019
  54	1	6	0.145155	34.5979	39.9562	41.2036
  55	1	6	0.14558	36.1943	43.241	43.4898
  56	1	9	-0.24014	34.6333	42.5941	41.4789
  57	1	6	0.152938	30.3534	41.3723	42.6387
  58	1	6	0.151751	35.7504	38.3377	42.7195
  59	1	1	0.48116	12.0407	25.2697	30.9026
  60	1	2	0.034009	12.5633	25.1345	32.1856
  61	1	3	0.028921	13.1505	26.4567	32.4964
  62	1	2	0.071556	12.2354	26.5337	30.3546
  63	1	3	0.025276	12.968	27.2868	31.4084
  64	1	5	-0.381907	12.5943	24.1406	32.893
  65	1	5	-0.393799	11.9086	26.9343	29.2483
  66	1	3	-0.008998	13.8082	26.8789	33.6549
  67	1	3	-0.064503	13.4363	28.6021	31.4273
  68	1	3	-0.16756	14.1019	29.0522	32.5892
  69	1	3	-0.085161	14.3184	28.2017	33.7129
  70	1	6	0.158939	13.9075	26.1726	34.4718
  71	1	6	0.163781	13.2816	29.253	30.5694
  72	1	6	0.161401	14.4601	30.0798	32.6119
  73	1	7	-0.078003	15.0832	28.7468	34.9584
  74	1	7	0.303704	14.0632	29.6231	35.7752
  75	1	8	-0.1084	13.738	30.7582	35.1172
  76	1	8	-0.101508	14.5329	29.983	36.9916
  77	1	8	-0.111714	12.9026	28.9635	35.991
  78	1	7	0.380371	15.6624	27.6237	35.9083
  79	1	8	-0.124028	16.5273	28.1361	36.8144
  80	1	8	-0.119704	14.7127	26.9677	36.6122
  81	1	8	-0.115877	16.3556	26.6904	35.2186
  82	1	3	-0.024709	16.3171	29.5425	34.4463
  83	1	3	-0.076489	16.6988	30.8106	34.9649
  84	1	3	-0.052344	17.8532	31.4274	34.4606
  85	1	3	-0.054202	17.133	28.9482	33.4432
  86	1	3	-0.149083	18.295	29.5759	32.9623
  87	1	3	-0.063027	18.6346	30.82	33.5021
  88	1	2	0.499526	19.7939	31.7005	33.2151
  89	1	1	-0.036881	19.6227	32.8232	34.0167
  90	1	2	0.443545	18.4691	32.7438	34.7905
  91	1	3	0.038197	20.5341	33.9156	34.0463
  92	1	3	-0.408621	21.9102	33.6809	34.2319
  93	1	3	0.252781	22.8212	34.7497	34.24
  94	1	3	-0.169778	20.0796	35.239	33.8883
  95	1	3	-0.113042	20.991	36.31	33.89
  96	1	3	0.016958	22.3638	36.0662	34.0466
  97	1	6	0.167832	18.9198	29.1101	32.2047
  98	1	6	0.134138	16.8688	27.9765	33.034
  99	1	6	0.145229	16.138	31.3241	35.7389
 100	1	5	-0.462312	18.0137	33.581	35.5505
 101	1	5	-0.483102	20.7033	31.4492	32.4439
 102	1	6	0.144532	20.6382	37.3299	33.7604
 103	1	6	0.226042	22.2865	32.6691	34.3503
 104	1	3	0.12103	24.5621	37.1029	33.7257
 105	1	3	-0.09864	25.012	36.3797	32.6059
 106	1	3	-0.194398	26.3755	36.3766	32.2724
 107	1	3	-0.091961	27.2755	37.1378	33.0312
 108	1	3	-0.197799	26.8116	37.8803	34.1285
 109	1	3	-0.102777	25.4605	37.8168	34.5431
 110	1	6	0.132074	28.3252	37.1761	32.751
 111	1	6	0.154044	27.5198	38.4944	34.6853
 112	1	6	0.145155	24.3001	35.8412	31.9869
 113	1	6	0.14558	25.4597	37.2845	35.4863
 114	1	9	-0.24014	23.2223	37.1424	34.0517
 115	1	6	0.152938	19.0184	35.4387	33.7607
 116	1	6	0.151751	26.7242	35.8216	31.4062
 117	1	3	-0.004194	13.2984	16.4717	24.5595
 118	1	3	-0.097141	14.3713	16.9786	23.7793
 119	1	3	-0.172015	14.2544	16.9314	22.3599
 120	1	5	-0.377994	10.6363	15.3001	25.6632
 121	1	3	0.033493	12.1413	16.0289	23.9149
 122	1	3	-0.063739	13.0826	16.4677	21.7297
 123	1	5	-0.398381	10.2704	15.3462	21.0328
 124	1	3	0.032144	12.0314	16.0363	22.5391
 125	1	2	0.032313	10.8843	15.4846	24.4834
 126	1	1	0.461698	10.0874	15.1935	23.3784
 127	1	2	0.091945	10.7026	15.4944	22.1643
 128	1	3	-0.10563	15.2398	18.7462	28.2101
 129	1	7	-0.099376	15.6333	17.5407	24.4961
 130	1	3	-0.043296	15.1616	18.2975	25.7761
 131	1	3	-0.073043	15.7376	18.0925	27.0639
 132	1	3	-0.117827	14.1671	19.6282	28.0547
 133	1	3	-0.037562	14.1051	19.2386	25.661
 134	1	3	-0.083705	13.6335	19.8814	26.8095
 135	1	7	0.396	16.4238	18.5953	23.6278
 136	1	7	0.310495	16.5567	16.3001	24.8046
 137	1	8	-0.130298	15.5984	19.5249	23.095
 138	1	8	-0.128745	17.1045	18.0431	22.6011
 139	1	8	-0.120019	17.332	19.2711	24.3653
 140	1	8	-0.104287	15.9942	15.4795	25.7227
 141	1	8	-0.095507	17.7809	16.6518	25.2606
 142	1	8	-0.104872	16.7653	15.5331	23.7111
 143	1	2	0.456145	12.5628	20.8987	26.9584
 144	1	2	0.550902	13.4202	20.44	29.054
 145	1	1	0.015704	12.5052	21.1781	28.3162
 146	1	5	-0.456801	11.9162	21.3967	26.0545
 147	1	5	-0.487703	13.5848	20.4456	30.2629
 148	1	3	-0.116566	11.6576	22.152	28.9162
 149	1	3	-0.050109	12.2259	23.3442	29.418
 150	1	3	0.154929	11.4297	24.1969	30.2151
 151	1	3	0.041555	10.3011	21.8484	29.1564
 152	1	3	-0.223109	9.50587	22.7474	29.8865
 153	1	3	-0.080449	10.063	23.9123	30.4362
 154	1	7	-0.108008	9.69671	20.5222	28.7077
 155	1	7	-0.182228	9.19472	24.8098	31.3124
 156	1	7	-0.345523	13.7139	23.6568	29.1901
 157	1	6	0.155183	13.3424	16.4393	25.6459
 158	1	6	0.172904	15.0611	17.2639	21.7163
 159	1	6	0.158028	12.9902	16.4431	20.6452
 160	1	6	0.153129	15.6718	18.5686	29.193
 161	1	6	0.142914	16.5684	17.4114	27.2089
 162	1	6	0.135531	13.6401	19.4563	24.7025
 163	1	6	0.17765	8.46506	22.5056	30.0836
 164	1	10	0.046541	10.2212	19.676	29.1684
 165	1	10	0.045238	9.75503	20.4098	27.6195
 166	1	10	0.051941	8.63936	20.4414	28.9878
 167	1	10	0.087961	8.13072	24.551	31.2307
 168	1	10	0.066782	9.29182	25.8663	31.0284
 169	1	10	0.075908	9.47486	24.7125	32.3698
 170	1	10	0.105172	14.3197	23.3173	30.0414
 171	1	10	0.115625	13.8953	24.7295	29.0511
 172	1	10	0.140296	14.115	23.1856	28.2855
 173	1	3	-0.004194	8.53561	4.45679	21.5531
 174	1	3	-0.097141	9.02227	5.12104	22.7103
 175	1	3	-0.172015	10.2183	5.88573	22.5854
 176	1	5	-0.377994	7.93305	3.34293	18.7564
 177	1	3	0.033493	9.23522	4.58708	20.3499
 178	1	3	-0.063739	10.904	6.01039	21.355
 179	1	5	-0.398381	11.83	5.85376	18.3741
 180	1	3	0.032144	10.3829	5.34019	20.2421
 181	1	2	0.032313	8.92132	4.00818	19.0224
 182	1	1	0.461698	9.94805	4.4275	18.1691
 183	1	2	0.091945	10.8613	5.26575	18.8315
 184	1	3	-0.10563	7.95742	8.21235	26.3606
 185	1	7	-0.099376	8.30332	5.05025	24.0945
 186	1	3	-0.043296	8.05767	6.50686	24.5753
 187	1	3	-0.073043	8.09584	6.87091	25.9512
 188	1	3	-0.117827	7.75617	9.1828	25.3754
 189	1	3	-0.037562	7.76474	7.51709	23.6194
 190	1	3	-0.083705	7.636	8.8433	24.0443
 191	1	7	0.396	9.25688	4.21744	25.0499
 192	1	7	0.310495	6.87904	4.37608	24.0348
 193	1	8	-0.130298	10.3511	4.92179	25.4259
 194	1	8	-0.128745	9.73008	3.11235	24.4289
 195	1	8	-0.120019	8.66244	3.79292	26.1907
 196	1	8	-0.104287	6.07889	4.97012	23.1194
 197	1	8	-0.095507	6.22353	4.4784	25.2122
 198	1	8	-0.104872	6.93113	3.06074	23.7335
 199	1	2	0.456145	7.46038	10.0967	23.2573
 200	1	2	0.550902	7.67211	10.659	25.4881
 201	1	1	0.015704	7.51269	11.121	24.1923
 202	1	5	-0.456801	7.41999	10.1984	22.0427
 203	1	5	-0.487703	7.78997	11.3131	26.5095
 204	1	3	-0.116566	7.54309	12.5051	23.8652
 205	1	3	-0.050109	8.79119	13.1472	23.7276
 206	1	3	0.154929	8.83331	14.5415	23.4857
 207	1	3	0.041555	6.34517	13.2368	23.7482
 208	1	3	-0.223109	6.39889	14.6198	23.5146
 209	1	3	-0.080449	7.63104	15.2819	23.3862
 210	1	7	-0.108008	4.9914	12.5571	23.8886
 211	1	7	-0.182228	7.63614	16.79	23.1609
 212	1	7	-0.345523	10.0699	12.3115	23.8801
 213	1	6	0.155183	7.63942	3.84758	21.55
 214	1	6	0.172904	10.6144	6.41525	23.449
 215	1	6	0.158028	11.8116	6.60339	21.2649
 216	1	6	0.153129	8.03195	8.49311	27.4093
 217	1	6	0.142914	8.25943	6.12471	26.7211
 218	1	6	0.135531	7.6833	7.29499	22.5588
 219	1	6	0.17765	5.47367	15.1861	23.4407
 220	1	10	0.046541	4.8359	11.8289	23.0808
 221	1	10	0.045238	4.16884	13.2793	23.8436
 222	1	10	0.051941	4.91204	12.0298	24.8447
 223	1	10	0.087961	6.62035	17.1888	23.0467
 224	1	10	0.066782	8.18921	17.0567	22.2512
 225	1	10	0.075908	8.09755	17.3146	24.0072
 226	1	10	0.105172	10.0122	11.3796	23.3037
 227	1	10	0.115625	10.233	12.0492	24.9342
 228	1	10	0.140296	10.9796	12.8121	23.5326
 229	1	1	0.48116	10.8158	-5.56916	6.75999
 230	1	2	0.034009	11.3509	-4.91871	7.88091
 231	1	3	0.028921	12.8156	-5.17959	7.82132
 232	1	2	0.071556	11.7946	-6.23394	6.01214
 233	1	3	0.025276	13.0748	-5.95422	6.70844
 234	1	5	-0.381907	10.7544	-4.34522	8.77986
 235	1	5	-0.393799	11.643	-7.02093	5.08907
 236	1	3	-0.008998	13.8431	-4.78373	8.68852
 237	1	3	-0.064503	14.3653	-6.38686	6.40594
 238	1	3	-0.16756	15.4128	-6.00122	7.26635
 239	1	3	-0.085161	15.1764	-5.20303	8.42405
 240	1	6	0.158939	13.6002	-4.14504	9.53502
 241	1	6	0.163781	14.5413	-7.03197	5.54338
 242	1	6	0.161401	16.4136	-6.32179	6.99803
 243	1	7	-0.078003	16.3641	-4.68495	9.2972
 244	1	7	0.303704	17.5489	-5.73111	9.3796
 245	1	8	-0.1084	18.3587	-5.72846	8.29884
 246	1	8	-0.101508	17.0861	-6.99746	9.50519
 247	1	8	-0.111714	18.3506	-5.51558	10.4446
 248	1	7	0.380371	16.8386	-3.36487	8.57943
 249	1	8	-0.124028	17.92	-2.8194	9.18766
 250	1	8	-0.119704	15.8395	-2.45184	8.55646
 251	1	8	-0.115877	17.1452	-3.55436	7.27548
 252	1	3	-0.024709	15.8783	-4.4161	10.7611
 253	1	3	-0.076489	15.8771	-3.12278	11.3485
 254	1	3	-0.052344	15.2335	-2.91884	12.5693
 255	1	3	-0.054202	15.3192	-5.47575	11.5286
 256	1	3	-0.149083	14.7279	-5.26026	12.7969
 257	1	3	-0.063027	14.6665	-3.94474	13.2829
 258	1	2	0.499526	13.8938	-3.333	14.4059
 259	1	1	-0.036881	13.9957	-1.94704	14.2387
 260	1	2	0.443545	14.8443	-1.62925	13.1839
 261	1	3	0.038197	13.2493	-0.967403	14.9764
 262	1	3	-0.408621	12.6888	0.145236	14.3199
 263	1	3	0.252781	11.9869	1.1311	15.0297
 264	1	3	-0.169778	13.0696	-1.07095	16.3713
 265	1	3	-0.113042	12.3424	-0.0913915	17.0843
 266	1	3	0.016958	11.7901	1.01454	16.4146
 267	1	6	0.167832	14.2482	-6.07352	13.3406
 268	1	6	0.134138	15.2928	-6.48234	11.1156
 269	1	6	0.145229	16.2662	-2.24365	10.8482
 270	1	5	-0.462312	15.1297	-0.528067	12.7391
 271	1	5	-0.483102	13.1912	-3.94851	15.1883
 272	1	6	0.144532	12.1939	-0.196647	18.1551
 273	1	6	0.226042	12.8019	0.269753	13.2473
 274	1	3	0.12103	10.0123	2.67808	16.5936
 275	1	3	-0.09864	8.98008	2.00302	15.9156
 276	1	3	-0.194398	7.94168	2.7265	15.3106
 277	1	3	-0.091961	7.9599	4.12696	15.3585
 278	1	3	-0.197799	8.98472	4.79017	16.0561
 279	1	3	-0.102777	9.98009	4.08046	16.7731
 280	1	6	0.132074	7.17438	4.69818	14.8673
 281	1	6	0.154044	8.97587	5.87883	16.0843
 282	1	6	0.145155	8.99258	0.918953	15.8586
 283	1	6	0.14558	10.9634	4.49356	16.5827
 284	1	9	-0.24014	11.0694	1.96185	17.1204
 285	1	6	0.152938	13.4838	-1.91936	16.911
 286	1	6	0.151751	7.14105	2.20501	14.7925
 287	1	1	0.48116	11.1954	-1.7083	-12.0455
 288	1	2	0.034009	10.2854	-2.67032	-11.6184
 289	1	3	0.028921	10.9044	-3.24498	-10.3968
 290	1	2	0.071556	12.3409	-1.64187	-11.2639
 291	1	3	0.025276	12.113	-2.61988	-10.1791
 292	1	5	-0.381907	9.1915	-2.94745	-12.0841
 293	1	5	-0.393799	13.31	-0.917372	-11.4063
 294	1	3	-0.008998	10.4095	-4.20741	-9.51254
 295	1	3	-0.064503	12.8802	-2.89998	-9.04929
 296	1	3	-0.16756	12.3672	-3.82133	-8.11247
 297	1	3	-0.085161	11.1305	-4.49466	-8.31586
 298	1	6	0.158939	9.46032	-4.66076	-9.77064
 299	1	6	0.163781	13.8252	-2.3893	-8.88719
 300	1	6	0.161401	12.9439	-4.00836	-7.21103
 301	1	7	-0.078003	10.632	-5.49825	-7.22967
 302	1	7	0.303704	9.1784	-6.01101	-7.55026
 303	1	8	-0.1084	8.65978	-6.77165	-6.56717
 304	1	8	-0.101508	9.10744	-6.74729	-8.68325
 305	1	8	-0.111714	8.31321	-4.9779	-7.67853
 306	1	7	0.380371	11.6594	-6.70306	-7.19638
 307	1	8	-0.124028	12.0425	-7.0773	-8.44049
 308	1	8	-0.119704	11.1669	-7.81296	-6.59952
 309	1	8	-0.115877	12.79	-6.38021	-6.52503
 310	1	3	-0.024709	10.5442	-4.79755	-5.83779
 311	1	3	-0.076489	10.6133	-5.55117	-4.63103
 312	1	3	-0.052344	10.4848	-4.89499	-3.39705
 313	1	3	-0.054202	10.2929	-3.39708	-5.74132
 314	1	3	-0.149083	10.143	-2.75756	-4.493
 315	1	3	-0.063027	10.2629	-3.53452	-3.32986
 316	1	2	0.499526	10.1135	-3.15837	-1.89464
 317	1	1	-0.036881	10.2309	-4.34256	-1.17048
 318	1	2	0.443545	10.47	-5.4374	-2.00443
 319	1	3	0.038197	10.0484	-4.43567	0.243766
 320	1	3	-0.408621	10.9796	-5.11351	1.0555
 321	1	3	0.252781	10.8	-5.17893	2.45099
 322	1	3	-0.169778	8.90928	-3.8679	0.853219
 323	1	3	-0.113042	8.71655	-3.9354	2.24603
 324	1	3	0.016958	9.67078	-4.58703	3.04646
 325	1	6	0.167832	9.9308	-1.69426	-4.42535
 326	1	6	0.134138	10.1811	-2.79994	-6.63982
 327	1	6	0.145229	10.7359	-6.63072	-4.61917
 328	1	5	-0.462312	10.6426	-6.60678	-1.69723
 329	1	5	-0.483102	9.9007	-2.03086	-1.48029
 330	1	6	0.144532	7.85193	-3.46197	2.70657
 331	1	6	0.226042	11.8487	-5.58891	0.61953
 332	1	3	0.12103	9.05103	-5.63859	5.15403
 333	1	3	-0.09864	8.1923	-6.58834	4.56426
 334	1	3	-0.194398	7.67329	-7.64304	5.3314
 335	1	3	-0.091961	7.99006	-7.72295	6.6936
 336	1	3	-0.197799	8.85265	-6.7815	7.2765
 337	1	3	-0.102777	9.41159	-5.72039	6.52096
 338	1	6	0.132074	7.557	-8.51471	7.30356
 339	1	6	0.154044	9.06965	-6.86329	8.34189
 340	1	6	0.145155	7.92696	-6.51232	3.51204
 341	1	6	0.14558	9.15108	-4.77315	6.98271
 342	1	9	-0.24014	9.53785	-4.57533	4.41848
 343	1	6	0.152938	8.18606	-3.33428	0.241573
 344	1	6	0.151751	7.01379	-8.37921	4.87765
 345	1	3	-0.004194	16.8638	0.230526	-23.5747
 346	1	3	-0.097141	16.2771	-0.382715	-22.4356
 347	1	3	-0.172015	15.6193	-1.63141	-22.5918
 348	1	5	-0.377994	18.1415	0.840397	-26.3103
 349	1	3	0.033493	16.7853	-0.443767	-24.7933
 350	1	3	-0.063739	15.5213	-2.27053	-23.8352
 351	1	5	-0.398381	15.9175	-3.22137	-26.7259
 352	1	3	0.032144	16.134	-1.65319	-24.9172
 353	1	2	0.032313	17.457	-0.141442	-26.0742
 354	1	1	0.461698	17.1722	-1.24051	-26.8849
 355	1	2	0.091945	16.3404	-2.17081	-26.2789
 356	1	3	-0.10563	12.62	0.0800204	-20.1929
 357	1	7	-0.099376	16.4652	0.135667	-20.9912
 358	1	3	-0.043296	15.1121	0.00540854	-20.2171
 359	1	3	-0.073043	13.854	0.135917	-20.8843
 360	1	3	-0.117827	12.6551	-0.0560517	-18.7994
 361	1	3	-0.037562	15.0932	-0.110029	-18.8054
 362	1	3	-0.083705	13.8643	-0.119162	-18.1374
 363	1	7	0.396	16.8569	1.65593	-20.917
 364	1	7	0.310495	17.6301	-0.764385	-20.3998
 365	1	8	-0.130298	16.8399	2.10635	-19.642
 366	1	8	-0.128745	18.095	1.91026	-21.395
 367	1	8	-0.120019	15.9737	2.42052	-21.6034
 368	1	8	-0.104287	17.2438	-2.04878	-20.1937
 369	1	8	-0.095507	18.123	-0.318488	-19.2264
 370	1	8	-0.104872	18.6891	-0.822656	-21.2408
 371	1	2	0.456145	13.6059	-0.11632	-16.6791
 372	1	2	0.550902	11.5701	-0.0644751	-17.7734
 373	1	1	0.015704	12.2234	-0.0638587	-16.544
 374	1	5	-0.456801	14.4597	-0.0506632	-15.8128
 375	1	5	-0.487703	10.3691	-0.0591931	-17.9879
 376	1	3	-0.116566	11.5584	0.071667	-15.2903
 377	1	3	-0.050109	11.5725	-0.984971	-14.3471
 378	1	3	0.154929	10.9668	-0.78172	-13.0868
 379	1	3	0.041555	10.93	1.29981	-14.9706
 380	1	3	-0.223109	10.2636	1.4463	-13.7437
 381	1	3	-0.080449	10.2791	0.416102	-12.793
 382	1	7	-0.108008	10.9843	2.50786	-15.9008
 383	1	7	-0.182228	9.60801	0.638984	-11.4418
 384	1	7	-0.345523	12.3074	-2.30764	-14.6168
 385	1	6	0.155183	17.4343	1.15192	-23.5327
 386	1	6	0.172904	15.2045	-2.14308	-21.727
 387	1	6	0.158028	15.046	-3.24248	-23.9443
 388	1	6	0.153129	11.6727	0.18453	-20.7207
 389	1	6	0.142914	13.8244	0.308816	-21.9577
 390	1	6	0.135531	16.0009	-0.134876	-18.2123
 391	1	6	0.17765	9.76811	2.3855	-13.5146
 392	1	10	0.046541	10.229	2.42588	-16.6966
 393	1	10	0.045238	11.9683	2.62185	-16.3697
 394	1	10	0.051941	10.7857	3.4385	-15.3553
 395	1	10	0.087961	8.79366	-0.0798058	-11.2803
 396	1	10	0.066782	9.17252	1.64337	-11.3675
 397	1	10	0.075908	10.3268	0.538581	-10.6185
 398	1	10	0.105172	11.7532	-3.17099	-14.227
 399	1	10	0.115625	13.3003	-2.30141	-14.1457
 400	1	10	0.140296	12.455	-2.51012	-15.6828
 401	1	3	-0.004194	14.3869	3.26665	-37.33
 402	1	3	-0.097141	15.0332	2.02251	-37.0946
 403	1	3	-0.172015	16.4583	1.99136	-37.1339
 404	1	5	-0.377994	13.5675	6.15105	-38.0917
 405	1	3	0.033493	15.1582	4.39535	-37.6155
 406	1	3	-0.063739	17.2182	3.14727	-37.4295
 407	1	5	-0.398381	18.1905	5.99738	-38.3274
 408	1	3	0.032144	16.5352	4.34417	-37.671
 409	1	2	0.032313	14.7172	5.74988	-38.0251
 410	1	1	0.461698	15.8886	6.43712	-38.3268
 411	1	2	0.091945	17.0323	5.6723	-38.1272
 412	1	3	-0.10563	15.1058	-2.43668	-34.8193
 413	1	7	-0.099376	14.2377	0.680347	-37.0032
 414	1	3	-0.043296	14.7822	-0.20644	-35.8404
 415	1	3	-0.073043	14.6769	-1.628	-35.8866
 416	1	3	-0.117827	15.6603	-1.81169	-33.7034
 417	1	3	-0.037562	15.3165	0.388938	-34.6635
 418	1	3	-0.083705	15.7708	-0.440132	-33.6275
 419	1	7	0.396	14.3985	0.0119142	-38.427
 420	1	7	0.310495	12.6988	0.87054	-36.7191
 421	1	8	-0.130298	13.5137	-0.984987	-38.6654
 422	1	8	-0.128745	15.6327	-0.515272	-38.5986
 423	1	8	-0.120019	14.2247	0.922884	-39.4146
 424	1	8	-0.104287	12.4842	1.67141	-35.649
 425	1	8	-0.095507	12.0908	-0.308649	-36.4505
 426	1	8	-0.104872	12.0268	1.40103	-37.7681
 427	1	2	0.456145	16.4816	-0.111056	-32.3616
 428	1	2	0.550902	16.2787	-2.4099	-32.4964
 429	1	1	0.015704	16.7876	-1.33747	-31.7764
 430	1	5	-0.456801	16.8	1.00483	-31.9872
 431	1	5	-0.487703	16.3921	-3.60559	-32.2768
 432	1	3	-0.116566	17.5655	-1.48825	-30.5911
 433	1	3	-0.050109	16.9529	-1.30812	-29.3302
 434	1	3	0.154929	17.7381	-1.46058	-28.1615
 435	1	3	0.041555	18.9355	-1.83561	-30.6787
 436	1	3	-0.223109	19.6762	-2.05699	-29.5073
 437	1	3	-0.080449	19.0882	-1.87699	-28.2471
 438	1	7	-0.108008	19.6353	-2.01228	-32.0214
 439	1	7	-0.182228	19.9264	-2.14453	-26.9995
 440	1	7	-0.345523	15.4564	-0.94676	-29.2702
 441	1	6	0.155183	13.3084	3.37577	-37.3622
 442	1	6	0.172904	16.9845	1.05244	-36.9892
 443	1	6	0.158028	18.3007	3.1067	-37.5075
 444	1	6	0.153129	15.0271	-3.51969	-34.8653
 445	1	6	0.142914	14.2417	-2.13289	-36.7408
 446	1	6	0.135531	15.3975	1.46832	-34.5578
 447	1	6	0.17765	20.7127	-2.3778	-29.5798
 448	1	10	0.046541	19.4957	-1.13073	-32.6612
 449	1	10	0.045238	19.2455	-2.88577	-32.5552
 450	1	10	0.051941	20.7176	-2.15858	-31.8977
 451	1	10	0.087961	20.9392	-2.47813	-27.258
 452	1	10	0.066782	19.4755	-2.93345	-26.3796
 453	1	10	0.075908	20.0338	-1.24301	-26.3865
 454	1	10	0.105172	15.2404	-0.0523413	-29.8671
 455	1	10	0.115625	15.0799	-0.730953	-28.2639
 456	1	10	0.140296	14.844	-1.76824	-29.6647
 457	1	3	-0.004194	10.9457	9.62647	-49.1947
 458	1	3	-0.097141	11.3098	9.27694	-47.8666
 459	1	3	-0.172015	12.1492	8.14371	-47.6648
 460	1	5	-0.377994	10.6504	9.91344	-52.291
 461	1	3	0.033493	11.4746	8.88267	-50.2554
 462	1	3	-0.063739	12.6806	7.41662	-48.7449
 463	1	5	-0.398381	13.5736	6.39487	-51.5342
 464	1	3	0.032144	12.3307	7.82227	-50.0334
 465	1	2	0.032313	11.3066	9.05445	-51.7244
 466	1	1	0.461698	12.0987	8.05551	-52.2872
 467	1	2	0.091945	12.7588	7.27992	-51.3424
 468	1	3	-0.10563	14.4579	10.705	-45.3491
 469	1	7	-0.099376	10.8321	10.0818	-46.6275
 470	1	3	-0.043296	12.0507	10.1818	-45.6557
 471	1	3	-0.073043	13.3004	10.6536	-46.154
 472	1	3	-0.117827	14.3526	10.271	-44.0229
 473	1	3	-0.037562	11.9905	9.7676	-44.2998
 474	1	3	-0.083705	13.1511	9.81852	-43.5196
 475	1	7	0.396	10.395	11.5617	-46.9731
 476	1	7	0.310495	9.59743	9.29813	-46.0345
 477	1	8	-0.130298	9.19537	11.6406	-47.5941
 478	1	8	-0.128745	11.2922	12.173	-47.7839
 479	1	8	-0.120019	10.3003	12.3247	-45.8599
 480	1	8	-0.104287	9.01236	9.94983	-45.0064
 481	1	8	-0.095507	9.93889	8.07146	-45.5833
 482	1	8	-0.104872	8.63509	9.08093	-46.9604
 483	1	2	0.456145	13.3572	9.41991	-42.1035
 484	1	2	0.550902	15.3768	10.1606	-42.9464
 485	1	1	0.015704	14.7037	9.64655	-41.8427
 486	1	5	-0.456801	12.5108	8.95259	-41.3607
 487	1	5	-0.487703	16.5637	10.4123	-43.0555
 488	1	3	-0.116566	15.3085	9.36384	-40.58
 489	1	3	-0.050109	15.4789	8.0236	-40.1582
 490	1	3	0.154929	15.8943	7.76683	-38.8254
 491	1	3	0.041555	15.6353	10.4257	-39.7077
 492	1	3	-0.223109	16.1173	10.1534	-38.4182
 493	1	3	-0.080449	16.2208	8.83361	-37.9577
 494	1	7	-0.108008	15.4214	11.8755	-40.1145
 495	1	7	-0.182228	16.6208	8.59312	-36.5052
 496	1	7	-0.345523	15.1607	6.86461	-41.1165
 497	1	6	0.155183	10.285	10.4552	-49.4266
 498	1	6	0.172904	12.414	7.8299	-46.6568
 499	1	6	0.158028	13.3462	6.56938	-48.5943
 500	1	6	0.153129	15.4078	11.0538	-45.7483
 501	1	6	0.142914	13.3878	10.9586	-47.1927
 502	1	6	0.135531	11.081	9.40118	-43.8336
 503	1	6	0.17765	16.3542	10.9772	-37.7502
 504	1	10	0.046541	15.5384	12.5564	-39.2628
 505	1	10	0.045238	14.4108	12.0306	-40.5149
 506	1	10	0.051941	16.1442	12.1774	-40.8801
 507	1	10	0.087961	16.8135	9.53431	-35.9731
 508	1	10	0.066782	17.5391	7.99286	-36.4396
 509	1	10	0.075908	15.8275	8.07031	-35.9574
 510	1	10	0.105172	14.1161	6.54267	-41.0029
 511	1	10	0.115625	15.8035	5.99254	-40.9464
 512	1	10	0.140296	15.315	7.13582	-42.1676
 513	1	3	-0.004194	11.6083	0.23942	-60.4518
 514	1	3	-0.097141	10.2111	0.0301528	-60.6125
 515	1	3	-0.172015	9.77853	-1.22968	-61.1173
 516	1	5	-0.377994	14.6825	-0.0117423	-60.0817
 517	1	3	0.033493	12.4939	-0.809707	-60.7243
 518	1	3	-0.063739	10.692	-2.26438	-61.4097
 519	1	5	-0.398381	13.1908	-4.11213	-61.6658
 520	1	3	0.032144	12.0516	-2.02712	-61.1952
 521	1	2	0.032313	13.9625	-0.893111	-60.5218
 522	1	1	0.461698	14.3114	-2.19289	-60.8864
 523	1	2	0.091945	13.2186	-2.94057	-61.3251
 524	1	3	-0.10563	10.8665	1.74833	-56.7896
 525	1	7	-0.099376	9.21655	1.18114	-60.2546
 526	1	3	-0.043296	9.78085	1.9273	-59.0111
 527	1	3	-0.073043	10.259	1.15528	-57.9124
 528	1	3	-0.117827	10.9666	3.13991	-56.7722
 529	1	3	-0.037562	9.86322	3.34179	-58.9265
 530	1	3	-0.083705	10.46	3.90735	-57.7981
 531	1	7	0.396	7.77298	0.681995	-59.8486
 532	1	7	0.310495	9.10326	2.09555	-61.5331
 533	1	8	-0.130298	7.0353	1.68115	-59.3138
 534	1	8	-0.128745	7.81611	-0.295112	-58.9151
 535	1	8	-0.120019	7.05462	0.197695	-60.8839
 536	1	8	-0.104287	8.82458	1.36513	-62.6359
 537	1	8	-0.095507	10.2656	2.74082	-61.7868
 538	1	8	-0.104872	8.12772	3.02996	-61.4403
 539	1	2	0.456145	10.7313	5.33006	-57.496
 540	1	2	0.550902	11.6214	4.04447	-55.7954
 541	1	1	0.015704	11.4397	5.33362	-56.2964
 542	1	5	-0.456801	10.4135	6.26451	-58.2117
 543	1	5	-0.487703	12.2334	3.68238	-54.8045
 544	1	3	-0.116566	11.9881	6.49998	-55.6778
 545	1	3	-0.050109	11.5982	6.85464	-54.364
 546	1	3	0.154929	12.3108	7.86402	-53.6757
 547	1	3	0.041555	12.9936	7.24478	-56.3381
 548	1	3	-0.223109	13.6424	8.2886	-55.6613
 549	1	3	-0.080449	13.3396	8.57864	-54.3241
 550	1	7	-0.108008	13.4324	6.94326	-57.7682
 551	1	7	-0.182228	14.1512	9.64733	-53.5995
 552	1	7	-0.345523	10.4235	6.14674	-53.6821
 553	1	6	0.155183	12.0104	1.18527	-60.0896
 554	1	6	0.172904	8.72685	-1.43324	-61.2869
 555	1	6	0.158028	10.3549	-3.2332	-61.7741
 556	1	6	0.153129	11.2713	1.1472	-55.9764
 557	1	6	0.142914	10.1944	0.070553	-57.9444
 558	1	6	0.135531	9.50867	4.00428	-59.7092
 559	1	6	0.17765	14.424	8.84801	-56.1676
 560	1	10	0.046541	14.4205	7.36464	-57.9801
 561	1	10	0.045238	12.7322	7.38333	-58.4929
 562	1	10	0.051941	13.4985	5.86858	-57.9595
 563	1	10	0.087961	14.6927	9.22201	-52.7437
 564	1	10	0.066782	13.5037	10.4526	-53.2328
 565	1	10	0.075908	14.8987	10.1075	-54.2585
 566	1	10	0.105172	9.88254	6.80813	-52.9925
 567	1	10	0.115625	10.7673	5.27394	-53.1121
 568	1	10	0.140296	9.67255	5.80759	-54.4059
 569	1	3	-0.004194	17.5061	-9.07466	-50.9869
 570	1	3	-0.097141	17.278	-8.07676	-51.9781
 571	1	3	-0.172015	15.9365	-7.85908	-52.4045
 572	1	5	-0.377994	17.3454	-11.3605	-48.8867
 573	1	3	0.033493	16.4161	-9.80216	-50.4855
 574	1	3	-0.063739	14.8554	-8.59657	-51.88
 575	1	5	-0.398381	12.9919	-10.5058	-50.284
 576	1	3	0.032144	15.1273	-9.57089	-50.9147
 577	1	2	0.032313	16.3764	-10.8579	-49.4346
 578	1	1	0.461698	15.0154	-11.1712	-49.2643
 579	1	2	0.091945	14.2041	-10.4517	-50.1499
 580	1	3	-0.10563	17.6238	-7.95687	-56.24
 581	1	7	-0.099376	18.4007	-7.12868	-52.5207
 582	1	3	-0.043296	18.2202	-6.94271	-54.0581
 583	1	3	-0.073043	17.917	-8.07582	-54.865
 584	1	3	-0.117827	17.6387	-6.67811	-56.7999
 585	1	3	-0.037562	18.3094	-5.67408	-54.6952
 586	1	3	-0.083705	17.9946	-5.57568	-56.0539
 587	1	7	0.396	19.8616	-7.67873	-52.292
 588	1	7	0.310495	18.2138	-5.77336	-51.7368
 589	1	8	-0.130298	20.2258	-7.72295	-50.9904
 590	1	8	-0.128745	20.7916	-6.91971	-52.9147
 591	1	8	-0.120019	19.9967	-8.92807	-52.7946
 592	1	8	-0.104287	17.1103	-5.0977	-52.1322
 593	1	8	-0.095507	19.251	-4.91768	-51.8705
 594	1	8	-0.104872	18.0643	-5.99565	-50.4144
 595	1	2	0.456145	17.9258	-4.37781	-56.9324
 596	1	2	0.550902	17.3013	-6.22087	-58.1712
 597	1	1	0.015704	17.467	-4.84319	-58.16
 598	1	5	-0.456801	18.2214	-3.23763	-56.6201
 599	1	5	-0.487703	16.9173	-6.92914	-59.0847
 600	1	3	-0.116566	17.1833	-4.00976	-59.2841
 601	1	3	-0.050109	15.874	-3.51994	-59.5187
 602	1	3	0.154929	15.6129	-2.72899	-60.6694
 603	1	3	0.041555	18.2166	-3.7254	-60.1988
 604	1	3	-0.223109	17.9435	-2.94583	-61.3339
 605	1	3	-0.080449	16.6568	-2.43773	-61.5765
 606	1	7	-0.108008	19.6195	-4.29426	-60.0087
 607	1	7	-0.182228	16.4185	-1.59455	-62.8262
 608	1	7	-0.345523	14.7443	-3.87558	-58.5461
 609	1	6	0.155183	18.4857	-9.28779	-50.5745
 610	1	6	0.172904	15.7186	-7.08484	-53.1371
 611	1	6	0.158028	13.8308	-8.41227	-52.1963
 612	1	6	0.153129	17.3647	-8.82648	-56.8416
 613	1	6	0.142914	17.8731	-9.06302	-54.4111
 614	1	6	0.135531	18.5692	-4.76435	-54.1645
 615	1	6	0.17765	18.7447	-2.73343	-62.037
 616	1	10	0.046541	19.6197	-5.38279	-60.1376
 617	1	10	0.045238	20.0109	-4.06748	-59.0091
 618	1	10	0.051941	20.3284	-3.87727	-60.7342
 619	1	10	0.087961	16.1306	-0.567764	-62.5659
 620	1	10	0.066782	15.625	-2.02573	-63.4513
 621	1	10	0.075908	17.3191	-1.52826	-63.4495
 622	1	10	0.105172	13.947	-3.1252	-58.5165
 623	1	10	0.115625	15.0989	-3.95704	-57.5109
 624	1	10	0.140296	14.2874	-4.83548	-58.8262
 625	1	1	0.48116	18.4385	-7.14628	-30.1128
 626	1	2	0.034009	18.6173	-6.16809	-31.078
 627	1	3	0.028921	18.3303	-6.84516	-32.3575
 628	1	2	0.071556	18.0473	-8.37804	-30.6422
 629	1	3	0.025276	18.0058	-8.16081	-32.114
 630	1	5	-0.381907	19.1118	-5.06326	-30.9433
 631	1	5	-0.393799	17.9572	-9.45024	-30.0676
 632	1	3	-0.008998	18.5181	-6.35473	-33.6412
 633	1	3	-0.064503	17.8715	-9.0694	-33.1716
 634	1	3	-0.16756	18.085	-8.59486	-34.4907
 635	1	3	-0.085161	18.3938	-7.22442	-34.7538
 636	1	6	0.158939	18.8158	-5.31899	-33.7195
 637	1	6	0.163781	17.6776	-10.1204	-32.9706
 638	1	6	0.161401	18.026	-9.30687	-35.3125
 639	1	7	-0.078003	18.6498	-6.69956	-36.2046
 640	1	7	0.303704	18.2619	-5.16545	-36.3221
 641	1	8	-0.1084	17.0512	-4.94019	-35.7732
 642	1	8	-0.101508	18.1767	-4.74954	-37.6036
 643	1	8	-0.111714	19.1263	-4.30702	-35.7286
 644	1	7	0.380371	20.1868	-6.88496	-36.5265
 645	1	8	-0.124028	20.9675	-6.36424	-35.5522
 646	1	8	-0.119704	20.572	-6.26825	-37.6697