pySIMM System Object

2564 atoms
2810 bonds
4900 angles
7452 dihedrals
808 impropers

10 atom types
12 bond types
21 angle types
8 dihedral types
4 improper types

-173.446047 173.446047 xlo xhi
-173.446047 173.446047 ylo yhi
-173.446047 173.446047 zlo zhi

Masses

   1	12.01	# ca
   2	16.0	# o
   3	12.01	# c
   4	14.01	# n
   5	12.01	# c3
   6	19.0	# f
   7	1.008	# ha
   8	1.008	# hn
   9	1.008	# hc
  10	16.0	# os

Pair Coeffs

   1	0.086	3.3996695084235347	# ca
   2	0.21	2.959921901149463	# o
   3	0.086	3.3996695084235347	# c
   4	0.17	3.249998523775958	# n
   5	0.1094	3.3996695084235347	# c3
   6	0.061	3.1181455134911875	# f
   7	0.015	2.59964245953351	# ha
   8	0.0157	1.069078461768407	# hn
   9	0.0157	2.649532787749369	# hc
  10	0.17	3.0000123434657784	# os

Bond Coeffs

   1	345.8	1.086	# ca,ha
   2	300.9	1.5375	# c3,c3
   3	637.7	1.2183	# c,o
   4	356.9	1.3497	# c3,f
   5	427.6	1.3789	# c,n
   6	345.9	1.4906	# c,ca
   7	330.6	1.0969	# c3,hc
   8	384.2	1.4121	# ca,n
   9	321.0	1.5156	# c3,ca
  10	403.2	1.0129	# hn,n
  11	461.1	1.3984	# ca,ca
  12	376.6	1.3696	# ca,os

Angle Coeffs

   1	68.72	122.6	# ca,c,o
   2	48.33	117.55	# c,n,hn
   3	67.68	115.25	# ca,c,n
   4	63.15	112.07	# c3,c3,ca
   5	62.86	111.51	# c3,c3,c3
   6	63.82	123.71	# c,n,ca
   7	67.87	120.19	# ca,ca,n
   8	63.53	120.77	# c3,ca,ca
   9	63.56	112.24	# ca,c3,ca
  10	63.74	127.08	# c,n,c
  11	48.18	119.88	# ca,ca,ha
  12	64.28	120.33	# c,ca,ca
  13	70.89	107.36	# f,c3,f
  14	39.4	107.58	# hc,c3,hc
  15	74.22	123.05	# n,c,o
  16	66.11	109.24	# c3,c3,f
  17	46.8	110.47	# ca,c3,hc
  18	66.62	120.02	# ca,ca,ca
  19	63.48	119.89	# ca,os,ca
  20	69.58	119.2	# ca,ca,os
  21	49.75	116.02	# ha,ca,n

Dihedral Coeffs

   1	2	2.5	2	180	2.0	1	0	# hn,n,c,o
   2	1	3.625	2	180	# X,ca,ca,X
   3	1	1.0	2	180	# X,c,ca,X
   4	1	0.15555555555555556	3	0	# X,c3,c3,X
   5	1	0.0	2	0	# X,c3,ca,X
   6	1	2.5	2	180	# X,c,n,X
   7	1	0.45	2	180	# X,ca,n,X
   8	1	0.9	2	180	# X,ca,os,X

Improper Coeffs

   1	1.1	-1	2	# ca,ca,ca,c3
   2	1.1	-1	2	# ca,X,X,ha
   3	1.1	-1	2	# n,X,X,hn
   4	10.5	-1	2	# c,X,X,o

Atoms

   1	1	1	-0.004194	-52.7121	-106.994	-20.6794
   2	1	1	-0.097141	-53.203	-106.442	-19.4549
   3	1	1	-0.172015	-52.2692	-106.257	-18.3922
   4	1	2	-0.377994	-51.1188	-108.255	-23.0295
   5	1	1	0.033493	-51.3529	-107.316	-20.8096
   6	1	1	-0.063739	-50.916	-106.625	-18.537
   7	1	2	-0.398381	-48.0978	-107.513	-19.6041
   8	1	1	0.032144	-50.4761	-107.134	-19.7632
   9	1	3	0.032313	-50.6273	-107.892	-21.9721
  10	1	4	0.461698	-49.3184	-108.048	-21.5214
  11	1	3	0.091945	-49.1358	-107.574	-20.2268
  12	1	1	-0.10563	-56.4208	-104.888	-15.9254
  13	1	5	-0.099376	-54.642	-105.813	-19.3339
  14	1	1	-0.043296	-55.1952	-105.879	-17.8575
  15	1	1	-0.073043	-55.7128	-104.754	-17.1402
  16	1	1	-0.117827	-56.6005	-106.171	-15.412
  17	1	1	-0.037562	-55.3811	-107.15	-17.2641
  18	1	1	-0.083705	-56.1048	-107.266	-16.072
  19	1	5	0.396	-55.674	-106.579	-20.2559
  20	1	5	0.310495	-54.5523	-104.333	-19.837
  21	1	6	-0.130298	-55.5439	-107.921	-20.1101
  22	1	6	-0.128745	-55.5474	-106.321	-21.5813
  23	1	6	-0.120019	-56.958	-106.274	-19.9436
  24	1	6	-0.104287	-55.7621	-103.707	-19.8695
  25	1	6	-0.095507	-54.06	-104.241	-21.0875
  26	1	6	-0.104872	-53.7388	-103.623	-19.0143
  27	1	3	0.456145	-56.4938	-108.469	-15.3081
  28	1	3	0.550902	-57.3576	-106.639	-14.2303
  29	1	4	0.015704	-57.2237	-108.019	-14.218
  30	1	2	-0.456801	-56.2626	-109.613	-15.651
  31	1	2	-0.487703	-58.0056	-105.926	-13.4844
  32	1	1	-0.116566	-57.799	-108.876	-13.2304
  33	1	1	-0.050109	-56.9444	-109.525	-12.301
  34	1	1	0.154929	-57.5091	-110.345	-11.296
  35	1	1	0.041555	-59.2108	-109.011	-13.1102
  36	1	1	-0.223109	-59.7406	-109.82	-12.0968
  37	1	1	-0.080449	-58.9002	-110.507	-11.204
  38	1	5	-0.108008	-60.1966	-108.313	-14.0499
  39	1	5	-0.182228	-59.4947	-111.464	-10.19
  40	1	5	-0.345523	-55.4269	-109.335	-12.3265
  41	1	7	0.155183	-53.3419	-107.127	-21.5517
  42	1	7	0.172904	-52.5763	-105.79	-17.4591
  43	1	7	0.158028	-50.2045	-106.498	-17.7234
  44	1	7	0.153129	-56.8407	-104.024	-15.418
  45	1	7	0.142914	-55.6066	-103.746	-17.5084
  46	1	7	0.135531	-55.0259	-108.049	-17.753
  47	1	7	0.17765	-60.8091	-109.897	-11.9813
  48	1	9	0.046541	-59.8368	-108.352	-15.086
  49	1	9	0.045238	-60.3472	-107.269	-13.7687
  50	1	9	0.051941	-61.1765	-108.81	-14.0363
  51	1	9	0.087961	-59.5303	-111.008	-9.18602
  52	1	9	0.066782	-58.9049	-112.376	-10.1118
  53	1	9	0.075908	-60.5186	-111.768	-10.4545
  54	1	9	0.105172	-54.9676	-109.641	-13.2745
  55	1	9	0.115625	-54.932	-109.912	-11.5363
  56	1	9	0.140296	-55.1721	-108.288	-12.1538
  57	1	1	-0.004194	-40.2432	-106.293	-29.3945
  58	1	1	-0.097141	-41.5341	-106.784	-29.7628
  59	1	1	-0.172015	-41.6291	-108.101	-30.2788
  60	1	2	-0.377994	-37.2429	-105.929	-28.7578
  61	1	1	0.033493	-39.1299	-107.117	-29.6092
  62	1	1	-0.063739	-40.5003	-108.904	-30.5039
  63	1	2	-0.398381	-37.6953	-110.041	-30.7981
  64	1	1	0.032144	-39.2577	-108.347	-30.2054
  65	1	3	0.032313	-37.6789	-106.875	-29.3801
  66	1	4	0.461698	-37.012	-107.998	-29.9008
  67	1	3	0.091945	-37.9188	-108.93	-30.3762
  68	1	1	-0.10563	-46.3409	-107.421	-28.6965
  69	1	5	-0.099376	-42.8708	-105.975	-29.7109
  70	1	1	-0.043296	-43.9555	-106.824	-28.9672
  71	1	1	-0.073043	-45.2781	-106.908	-29.4696
  72	1	1	-0.117827	-46.056	-107.977	-27.4499
  73	1	1	-0.037562	-43.7108	-107.402	-27.6859
  74	1	1	-0.083705	-44.7692	-107.96	-26.941
  75	1	5	0.396	-42.7718	-104.649	-28.8996
  76	1	5	0.310495	-43.1927	-105.592	-31.2313
  77	1	6	-0.130298	-43.994	-104.087	-28.7018
  78	1	6	-0.128745	-41.956	-103.759	-29.4854
  79	1	6	-0.120019	-42.2332	-104.866	-27.6902
  80	1	6	-0.104287	-43.5084	-106.664	-31.9886
  81	1	6	-0.095507	-42.1264	-105.052	-31.8415
  82	1	6	-0.104872	-44.2213	-104.729	-31.3867
  83	1	3	0.456145	-44.8045	-108.564	-25.5686
  84	1	3	0.550902	-46.9676	-108.54	-26.4166
  85	1	4	0.015704	-46.168	-108.78	-25.3083
  86	1	2	-0.456801	-43.8534	-108.708	-24.8145
  87	1	2	-0.487703	-48.1733	-108.686	-26.5202
  88	1	1	-0.116566	-46.7441	-109.186	-24.0602
  89	1	1	-0.050109	-47.6017	-108.32	-23.3085
  90	1	1	0.154929	-48.3319	-108.827	-22.2007
  91	1	1	0.041555	-46.6213	-110.546	-23.7008
  92	1	1	-0.223109	-47.3057	-111.013	-22.5644
  93	1	1	-0.080449	-48.1228	-110.169	-21.7923
  94	1	5	-0.108008	-45.7852	-111.527	-24.5417
  95	1	5	-0.182228	-48.7606	-110.755	-20.5392
  96	1	5	-0.345523	-47.8584	-106.88	-23.7571
  97	1	7	0.155183	-40.0797	-105.294	-29.0002
  98	1	7	0.172904	-42.6039	-108.513	-30.5105
  99	1	7	0.158028	-40.5757	-109.928	-30.882
 100	1	7	0.153129	-47.3672	-107.381	-29.0573
 101	1	7	0.142914	-45.537	-106.484	-30.4279
 102	1	7	0.135531	-42.7186	-107.373	-27.248
 103	1	7	0.17765	-47.1935	-112.058	-22.2812
 104	1	9	0.046541	-45.8837	-111.344	-25.6172
 105	1	9	0.045238	-46.0884	-112.564	-24.3549
 106	1	9	0.051941	-44.7211	-111.435	-24.2855
 107	1	9	0.087961	-49.8523	-110.686	-20.5512
 108	1	9	0.066782	-48.3709	-110.273	-19.6337
 109	1	9	0.075908	-48.5024	-111.812	-20.4213
 110	1	9	0.105172	-47.0753	-106.499	-24.4285
 111	1	9	0.115625	-47.9077	-106.198	-22.9055
 112	1	9	0.140296	-48.8325	-106.811	-24.2734
 113	1	1	-0.004194	-26.1726	-104.036	-36.3376
 114	1	1	-0.097141	-26.8758	-104.946	-35.5133
 115	1	1	-0.172015	-26.6247	-106.329	-35.7166
 116	1	2	-0.377994	-24.3554	-102.538	-38.3606
 117	1	1	0.033493	-25.2716	-104.524	-37.2855
 118	1	1	-0.063739	-25.7286	-106.813	-36.7008
 119	1	2	-0.398381	-23.7691	-107.096	-39.0883
 120	1	1	0.032144	-25.0651	-105.872	-37.4855
 121	1	3	0.032313	-24.4543	-103.76	-38.2728
 122	1	4	0.461698	-23.8562	-104.74	-39.0486
 123	1	3	0.091945	-24.1482	-106.031	-38.636
 124	1	1	-0.10563	-30.8024	-106.88	-34.9695
 125	1	5	-0.099376	-27.8084	-104.469	-34.3472
 126	1	1	-0.043296	-28.9796	-105.462	-34.0886
 127	1	1	-0.073043	-29.6578	-106.073	-35.1923
 128	1	1	-0.117827	-31.3044	-107.008	-33.6506
 129	1	1	-0.037562	-29.5304	-105.638	-32.7801
 130	1	1	-0.083705	-30.6651	-106.421	-32.5815
 131	1	5	0.396	-28.5184	-103.084	-34.6311
 132	1	5	0.310495	-26.8412	-104.306	-33.0995
 133	1	6	-0.130298	-27.6556	-102.042	-34.5194
 134	1	6	-0.128745	-29.5324	-102.775	-33.7917
 135	1	6	-0.120019	-29.0285	-103.042	-35.8745
 136	1	6	-0.104287	-25.7378	-103.596	-33.4243
 137	1	6	-0.095507	-26.3764	-105.5	-32.6446
 138	1	6	-0.104872	-27.38	-103.606	-32.0744
 139	1	3	0.456145	-31.4384	-106.668	-31.3308
 140	1	3	0.550902	-32.5233	-107.688	-33.1128
 141	1	4	0.015704	-32.4917	-107.481	-31.7331
 142	1	2	-0.456801	-31.1724	-106.253	-30.2123
 143	1	2	-0.487703	-33.3338	-108.342	-33.7506
 144	1	1	-0.116566	-33.3873	-108.095	-30.8474
 145	1	1	-0.050109	-34.7279	-107.662	-30.751
 146	1	1	0.154929	-35.6159	-108.285	-29.8378
 147	1	1	0.041555	-32.9493	-109.214	-30.1112
 148	1	1	-0.223109	-33.8016	-109.772	-29.158
 149	1	1	-0.080449	-35.1204	-109.305	-28.9963
 150	1	5	-0.108008	-31.5386	-109.791	-30.2656
 151	1	5	-0.182228	-35.9505	-109.976	-27.9105
 152	1	5	-0.345523	-35.2584	-106.494	-31.5821
 153	1	7	0.155183	-26.2757	-102.964	-36.2336
 154	1	7	0.172904	-27.15	-107.06	-35.1057
 155	1	7	0.158028	-25.5654	-107.881	-36.8355
 156	1	7	0.153129	-31.3172	-107.357	-35.8023
 157	1	7	0.142914	-29.3025	-105.947	-36.2146
 158	1	7	0.135531	-29.0972	-105.175	-31.911
 159	1	7	0.17765	-33.4374	-110.612	-28.5658
 160	1	9	0.046541	-31.3733	-110.211	-31.2659
 161	1	9	0.045238	-31.3529	-110.587	-29.5407
 162	1	9	0.051941	-30.7705	-109.026	-30.1285
 163	1	9	0.087961	-36.5591	-109.253	-27.3438
 164	1	9	0.066782	-35.2949	-110.48	-27.1852
 165	1	9	0.075908	-36.6295	-110.719	-28.3297
 166	1	9	0.105172	-35.64	-105.686	-30.9362
 167	1	9	0.115625	-36.0702	-106.803	-32.2447
 168	1	9	0.140296	-34.493	-106.049	-32.224
 169	1	1	-0.004194	-12.5874	-100.582	-41.2423
 170	1	1	-0.097141	-13.3387	-99.9992	-42.3004
 171	1	1	-0.172015	-13.0246	-98.6548	-42.6705
 172	1	2	-0.377994	-10.4822	-101.32	-39.0578
 173	1	1	0.033493	-11.6026	-99.8233	-40.6011
 174	1	1	-0.063739	-12.0466	-97.9109	-42.0059
 175	1	2	-0.398381	-9.84075	-96.8533	-40.1597
 176	1	1	0.032144	-11.3904	-98.5093	-40.9488
 177	1	3	0.032313	-10.6498	-100.19	-39.5018
 178	1	4	0.461698	-9.8733	-99.0473	-39.2753
 179	1	3	0.091945	-10.2706	-97.9927	-40.1153
 180	1	1	-0.10563	-16.9832	-100.709	-40.1278
 181	1	5	-0.099376	-14.3861	-100.876	-43.0347
 182	1	1	-0.043296	-15.4403	-101.321	-41.9637
 183	1	1	-0.073043	-15.8583	-100.431	-40.9254
 184	1	1	-0.117827	-17.7114	-101.874	-40.4093
 185	1	1	-0.037562	-16.1172	-102.57	-42.0827
 186	1	1	-0.083705	-17.2482	-102.814	-41.2981
 187	1	5	0.396	-13.6174	-102.089	-43.7731
 188	1	5	0.310495	-15.1889	-100.016	-44.104
 189	1	6	-0.130298	-12.5572	-101.704	-44.5528
 190	1	6	-0.128745	-14.4744	-102.799	-44.5339
 191	1	6	-0.120019	-13.1096	-103.009	-42.9302
 192	1	6	-0.104287	-14.4507	-99.5144	-45.1237
 193	1	6	-0.095507	-15.8225	-98.9891	-43.5046
 194	1	6	-0.104872	-16.1594	-100.722	-44.7098
 195	1	3	0.456145	-18.2931	-103.904	-41.4352
 196	1	3	0.550902	-19.078	-102.298	-39.9944
 197	1	4	0.015704	-19.4032	-103.417	-40.7625
 198	1	2	-0.456801	-18.2314	-104.899	-42.1355
 199	1	2	-0.487703	-19.8514	-101.632	-39.3328
 200	1	1	-0.116566	-20.7865	-103.802	-40.9921
 201	1	1	-0.050109	-21.6174	-104.314	-39.9577
 202	1	1	0.154929	-23.0203	-104.432	-40.1596
 203	1	1	0.041555	-21.3471	-103.622	-42.2762
 204	1	1	-0.223109	-22.7151	-103.827	-42.4866
 205	1	1	-0.080449	-23.5652	-104.201	-41.442
 206	1	5	-0.108008	-20.4908	-103.169	-43.4383
 207	1	5	-0.182228	-25.0391	-104.42	-41.7813
 208	1	5	-0.345523	-20.9898	-104.736	-38.6368
 209	1	7	0.155183	-12.7326	-101.609	-40.9374
 210	1	7	0.172904	-13.5125	-98.1516	-43.5004
 211	1	7	0.158028	-11.8063	-96.8994	-42.3056
 212	1	7	0.153129	-17.3661	-99.9788	-39.424
 213	1	7	0.142914	-15.3736	-99.4746	-40.7899
 214	1	7	0.135531	-15.8828	-103.301	-42.8426
 215	1	7	0.17765	-23.1414	-103.647	-43.4617
 216	1	9	0.046541	-21.0757	-102.554	-44.1371
 217	1	9	0.045238	-20.1125	-104.044	-43.9776
 218	1	9	0.051941	-19.6388	-102.545	-43.1403
 219	1	9	0.087961	-25.6484	-103.597	-41.4039
 220	1	9	0.066782	-25.436	-105.347	-41.3732
 221	1	9	0.075908	-25.2117	-104.416	-42.8575
 222	1	9	0.105172	-20.2182	-105.489	-38.825
 223	1	9	0.115625	-21.6397	-105.213	-37.8864
 224	1	9	0.140296	-20.5207	-103.864	-38.1523
 225	1	4	0.48116	8.62319	-102.716	-43.2598
 226	1	3	0.034009	8.10919	-103.934	-42.8125
 227	1	1	0.028921	6.86903	-103.567	-42.1068
 228	1	3	0.071556	7.85411	-101.613	-42.9507
 229	1	1	0.025276	6.74995	-102.191	-42.1482
 230	1	2	-0.381907	8.56769	-105.051	-42.9618
 231	1	2	-0.393799	8.0559	-100.439	-43.2393
 232	1	1	-0.008998	5.92252	-104.367	-41.471
 233	1	1	-0.064503	5.67419	-101.53	-41.5467
 234	1	1	-0.16756	4.70203	-102.321	-40.9272
 235	1	1	-0.085161	4.78454	-103.741	-40.8713
 236	1	7	0.158939	6.12115	-105.433	-41.4339
 237	1	7	0.163781	5.60863	-100.439	-41.5535
 238	1	7	0.161401	3.86555	-101.822	-40.4355
 239	1	5	-0.078003	3.58138	-104.497	-40.1969
 240	1	5	0.303704	3.8055	-104.481	-38.6299
 241	1	6	-0.1084	2.85966	-105.179	-37.9318
 242	1	6	-0.101508	3.82477	-103.225	-38.1523
 243	1	6	-0.111714	4.99898	-105.014	-38.3175
 244	1	5	0.380371	3.52344	-106.006	-40.688
 245	1	6	-0.124028	4.52246	-106.762	-40.2122
 246	1	6	-0.119704	3.60927	-106.099	-42.0344
 247	1	6	-0.115877	2.41438	-106.65	-40.2606
 248	1	1	-0.024709	2.24714	-103.786	-40.6926
 249	1	1	-0.076489	1.22315	-103.326	-39.8156
 250	1	1	-0.052344	0.0870168	-102.705	-40.3663
 251	1	1	-0.054202	2.05277	-103.586	-42.0947
 252	1	1	-0.149083	0.932108	-102.919	-42.6181
 253	1	1	-0.063027	-0.0495576	-102.505	-41.7179
 254	1	3	0.499526	-1.3105	-101.733	-41.9727
 255	1	4	-0.036881	-1.93193	-101.59	-40.7248
 256	1	3	0.443545	-1.15377	-102.175	-39.7086
 257	1	1	0.038197	-3.25255	-101.004	-40.5516
 258	1	1	-0.408621	-4.2925	-101.22	-41.495
 259	1	1	0.252781	-5.55407	-100.62	-41.329
 260	1	1	-0.169778	-3.55936	-100.269	-39.3952
 261	1	1	-0.113042	-4.8295	-99.6894	-39.2228
 262	1	1	0.016958	-5.83864	-99.8887	-40.1774
 263	1	7	0.167832	0.80453	-102.734	-43.6856
 264	1	7	0.134138	2.83288	-103.867	-42.7893
 265	1	7	0.145229	1.29443	-103.462	-38.7367
 266	1	2	-0.462312	-1.41471	-102.185	-38.5211
 267	1	2	-0.483102	-1.65973	-101.3	-43.0669
 268	1	7	0.144532	-5.05412	-99.1142	-38.3311
 269	1	7	0.226042	-4.11365	-101.803	-42.3983
 270	1	1	0.12103	-7.59188	-98.5681	-39.034
 271	1	1	-0.09864	-6.94825	-97.3337	-38.831
 272	1	1	-0.194398	-7.41794	-96.4222	-37.8742
 273	1	1	-0.091961	-8.49917	-96.7885	-37.0657
 274	1	1	-0.197799	-9.10592	-98.0417	-37.2517
 275	1	1	-0.102777	-8.76956	-98.8975	-38.341
 276	1	7	0.132074	-8.93634	-96.0937	-36.3518
 277	1	7	0.154044	-9.94342	-98.3119	-36.6076
 278	1	7	0.145155	-6.08296	-97.096	-39.4221
 279	1	7	0.14558	-8.75953	-99.937	-38.0425
 280	1	10	-0.24014	-7.11895	-99.397	-40.0329
 281	1	7	0.152938	-2.80506	-100.173	-38.6115
 282	1	7	0.151751	-6.94463	-95.4481	-37.7457
 283	1	1	-0.004194	16.2417	-96.1359	-38.8194
 284	1	1	-0.097141	16.7738	-97.219	-39.5904
 285	1	1	-0.172015	17.3453	-96.9142	-40.8501
 286	1	2	-0.377994	15.0756	-93.3753	-37.8341
 287	1	1	0.033493	16.2292	-94.848	-39.371
 288	1	1	-0.063739	17.3014	-95.6219	-41.3963
 289	1	2	-0.398381	16.7078	-92.7542	-42.106
 290	1	1	0.032144	16.7384	-94.6171	-40.6239
 291	1	3	0.032313	15.6625	-93.5555	-38.8819
 292	1	4	0.461698	15.8857	-92.6077	-39.8902
 293	1	3	0.091945	16.476	-93.2123	-40.9994
 294	1	1	-0.10563	16.49	-101.854	-41.4673
 295	1	5	-0.099376	16.7159	-98.719	-39.1368
 296	1	1	-0.043296	16.3915	-99.6261	-40.3819
 297	1	1	-0.073043	16.9875	-100.906	-40.5584
 298	1	1	-0.117827	15.3404	-101.501	-42.1665
 299	1	1	-0.037562	15.3282	-99.2676	-41.2535
 300	1	1	-0.083705	14.8059	-100.224	-42.1222
 301	1	5	0.396	18.1079	-99.1039	-38.4919
 302	1	5	0.310495	15.5775	-99.0031	-38.0847
 303	1	6	-0.130298	18.4898	-98.2618	-37.5223
 304	1	6	-0.128745	19.0932	-99.0554	-39.4133
 305	1	6	-0.120019	18.1464	-100.325	-37.9069
 306	1	6	-0.104287	15.3334	-100.332	-37.9823
 307	1	6	-0.095507	14.447	-98.439	-38.5059
 308	1	6	-0.104872	15.8259	-98.5279	-36.8351
 309	1	3	0.456145	13.5723	-100.206	-42.9476
 310	1	3	0.550902	14.4051	-102.35	-42.9472
 311	1	4	0.015704	13.3551	-101.533	-43.3027
 312	1	2	-0.456801	12.8428	-99.2399	-43.0861
 313	1	2	-0.487703	14.4424	-103.566	-43.0619
 314	1	1	-0.116566	12.2055	-102.025	-43.9849
 315	1	1	-0.050109	11.0082	-102.26	-43.2761
 316	1	1	0.154929	9.82708	-102.58	-43.985
 317	1	1	0.041555	12.2678	-102.187	-45.3925
 318	1	1	-0.223109	11.0548	-102.399	-46.0957
 319	1	1	-0.080449	9.8429	-102.604	-45.4016
 320	1	5	-0.108008	13.5527	-101.91	-46.184
 321	1	5	-0.182228	8.58451	-102.84	-46.2308
 322	1	5	-0.345523	11.0017	-102.306	-41.7428
 323	1	7	0.155183	15.7962	-96.2894	-37.8448
 324	1	7	0.172904	17.7752	-97.7063	-41.4582
 325	1	7	0.158028	17.7104	-95.3949	-42.3798
 326	1	7	0.153129	16.9083	-102.854	-41.5378
 327	1	7	0.142914	17.812	-101.23	-39.9709
 328	1	7	0.135531	14.8376	-98.3016	-41.1796
 329	1	7	0.17765	11.0892	-102.423	-47.1806
 330	1	9	0.046541	13.3693	-101.976	-47.2698
 331	1	9	0.045238	14.3243	-102.652	-45.9629
 332	1	9	0.051941	13.936	-100.894	-45.9622
 333	1	9	0.087961	8.74872	-102.578	-47.2819
 334	1	9	0.066782	7.76497	-102.227	-45.8617
 335	1	9	0.075908	8.25897	-103.885	-46.1872
 336	1	9	0.105172	10.2428	-102.999	-41.3576
 337	1	9	0.115625	10.7779	-101.323	-41.3355
 338	1	9	0.140296	11.9511	-102.629	-41.2927
 339	1	4	0.48116	15.8748	-76.691	-28.7902
 340	1	3	0.034009	15.0919	-76.5693	-29.9332
 341	1	1	0.028921	15.7626	-77.4317	-30.9641
 342	1	3	0.071556	16.9695	-77.5282	-28.9752
 343	1	1	0.025276	16.9125	-77.9552	-30.4057
 344	1	2	-0.381907	14.0405	-75.9654	-30.0333
 345	1	2	-0.393799	17.7256	-77.9225	-28.1035
 346	1	1	-0.008998	15.3468	-77.7998	-32.2542
 347	1	1	-0.064503	17.746	-78.8077	-31.1498
 348	1	1	-0.16756	17.3599	-79.1536	-32.4705
 349	1	1	-0.085161	16.1427	-78.6879	-33.0486
 350	1	7	0.158939	14.4056	-77.3904	-32.5899
 351	1	7	0.163781	18.6537	-79.2183	-30.7099
 352	1	7	0.161401	18.0008	-79.8192	-33.0427
 353	1	5	-0.078003	15.7491	-79.124	-34.5197
 354	1	5	0.303704	16.6151	-78.2258	-35.4903
 355	1	6	-0.1084	16.554	-76.9322	-35.1234
 356	1	6	-0.101508	17.9253	-78.566	-35.4887
 357	1	6	-0.111714	16.2096	-78.2791	-36.7714
 358	1	5	0.380371	14.2083	-78.9034	-34.7948
 359	1	6	-0.124028	13.8436	-77.6069	-34.7688
 360	1	6	-0.119704	13.4486	-79.5589	-33.8753
 361	1	6	-0.115877	13.8131	-79.4051	-35.9856
 362	1	1	-0.024709	15.962	-80.6685	-34.7289
 363	1	1	-0.076489	16.4497	-81.2991	-35.9245
 364	1	1	-0.052344	16.5145	-82.7175	-35.9846
 365	1	1	-0.054202	15.5451	-81.5057	-33.6673
 366	1	1	-0.149083	15.636	-82.9008	-33.7454
 367	1	1	-0.063027	16.1293	-83.4885	-34.9077
 368	1	3	0.499526	16.3575	-84.9327	-35.2199
 369	1	4	-0.036881	16.8163	-84.9572	-36.5308
 370	1	3	0.443545	16.9974	-83.6722	-37.0406
 371	1	1	0.038197	16.952	-86.1715	-37.2645
 372	1	1	-0.408621	18.1828	-86.5676	-37.8096
 373	1	1	0.252781	18.3176	-87.8436	-38.3955
 374	1	1	-0.169778	15.8589	-87.0467	-37.3584
 375	1	1	-0.113042	15.9884	-88.3101	-37.9392
 376	1	1	0.016958	17.2169	-88.7236	-38.4506
 377	1	7	0.167832	15.3585	-83.5201	-32.8978
 378	1	7	0.134138	15.1666	-81.0708	-32.7431
 379	1	7	0.145229	16.7614	-80.7183	-36.7881
 380	1	2	-0.462312	17.4569	-83.3618	-38.1229
 381	1	2	-0.483102	15.9649	-85.869	-34.5429
 382	1	7	0.144532	15.1266	-88.9695	-37.9757
 383	1	7	0.226042	19.0511	-85.9208	-37.7316
 384	1	1	0.12103	16.4424	-90.2828	-40.0776
 385	1	1	-0.09864	16.335	-89.3135	-41.0918
 386	1	1	-0.194398	15.1707	-89.241	-41.8818
 387	1	1	-0.091961	14.1266	-90.1588	-41.6705
 388	1	1	-0.197799	14.2564	-91.1545	-40.6769
 389	1	1	-0.102777	15.4174	-91.2482	-39.8684
 390	1	7	0.132074	13.2122	-90.0914	-42.2643
 391	1	7	0.154044	13.4627	-91.8856	-40.5446
 392	1	7	0.145155	17.1285	-88.5856	-41.2128
 393	1	7	0.14558	15.1413	-91.2286	-38.825
 394	1	10	-0.24014	17.3073	-89.9762	-39.0482
 395	1	7	0.152938	14.8958	-86.7663	-36.9385
 396	1	7	0.151751	15.0853	-88.4586	-42.6319
 397	1	1	-0.004194	19.16	-66.5025	-20.9863
 398	1	1	-0.097141	18.5754	-67.3215	-21.9896
 399	1	1	-0.172015	19.0027	-67.1356	-23.3346
 400	1	2	-0.377994	20.589	-64.2589	-19.3306
 401	1	1	0.033493	20.0579	-65.4967	-21.3543
 402	1	1	-0.063739	19.9093	-66.1171	-23.6889
 403	1	2	-0.398381	21.9879	-63.8131	-23.7259
 404	1	1	0.032144	20.4153	-65.3048	-22.6729
 405	1	3	0.032313	20.7221	-64.4453	-20.5283
 406	1	4	0.461698	21.4728	-63.6908	-21.4291
 407	1	3	0.091945	21.3788	-64.1756	-22.7324
 408	1	1	-0.10563	15.6214	-69.3769	-24.9404
 409	1	5	-0.099376	17.4816	-68.3688	-21.6292
 410	1	1	-0.043296	17.0359	-69.2118	-22.8987
 411	1	1	-0.073043	16.2003	-68.621	-23.894
 412	1	1	-0.117827	15.9298	-70.738	-25.0318
 413	1	1	-0.037562	17.4101	-70.5767	-23.1216
 414	1	1	-0.083705	16.8299	-71.3041	-24.1656
 415	1	5	0.396	18.0363	-69.3498	-20.5262
 416	1	5	0.310495	16.2269	-67.6048	-21.0032
 417	1	6	-0.130298	17.1788	-70.3609	-20.2337
 418	1	6	-0.128745	18.3354	-68.7496	-19.3607
 419	1	6	-0.120019	19.2077	-69.8979	-20.9075
 420	1	6	-0.104287	15.6956	-66.6439	-21.772
 421	1	6	-0.095507	16.5092	-66.9108	-19.884
 422	1	6	-0.104872	15.221	-68.4664	-20.7143
 423	1	3	0.456145	16.9531	-72.7451	-24.5268
 424	1	3	0.550902	15.3308	-71.8206	-25.8731
 425	1	4	0.015704	15.9843	-72.9827	-25.4996
 426	1	2	-0.456801	17.7436	-73.5522	-24.0583
 427	1	2	-0.487703	14.4103	-71.6957	-26.6669
 428	1	1	-0.116566	15.592	-74.2949	-25.9015
 429	1	1	-0.050109	15.8733	-74.7938	-27.2001
 430	1	1	0.154929	15.5304	-76.1359	-27.5225
 431	1	1	0.041555	14.9809	-75.1361	-24.9423
 432	1	1	-0.223109	14.6369	-76.4471	-25.2845
 433	1	1	-0.080449	14.9282	-76.9679	-26.5485
 434	1	5	-0.108008	14.641	-74.6641	-23.5381
 435	1	5	-0.182228	14.574	-78.4316	-26.799
 436	1	5	-0.345523	16.5916	-73.8944	-28.2148
 437	1	7	0.155183	18.9071	-66.5711	-19.933
 438	1	7	0.172904	18.629	-67.7557	-24.1395
 439	1	7	0.158028	20.2126	-65.954	-24.7214
 440	1	7	0.153129	14.9207	-68.9296	-25.6432
 441	1	7	0.142914	15.9398	-67.5707	-23.8424
 442	1	7	0.135531	18.0868	-71.1252	-22.4765
 443	1	7	0.17765	14.1772	-77.094	-24.5371
 444	1	9	0.046541	14.2707	-73.6298	-23.5364
 445	1	9	0.045238	15.5267	-74.7356	-22.892
 446	1	9	0.051941	13.8537	-75.2869	-23.0894
 447	1	9	0.087961	13.7237	-78.7261	-26.1757
 448	1	9	0.066782	15.4042	-79.1022	-26.5526
 449	1	9	0.075908	14.2829	-78.615	-27.8394
 450	1	9	0.105172	16.6502	-74.3081	-29.2294
 451	1	9	0.115625	17.6156	-73.7023	-27.8812
 452	1	9	0.140296	16.0842	-72.9282	-28.325
 453	1	1	-0.004194	21.2903	-50.4677	-20.4668
 454	1	1	-0.097141	21.5513	-51.8579	-20.2719
 455	1	1	-0.172015	22.7423	-52.2427	-19.5893
 456	1	2	-0.377994	21.4532	-47.2839	-20.5729
 457	1	1	0.033493	22.2523	-49.5268	-20.0441
 458	1	1	-0.063739	23.6722	-51.2863	-19.14
 459	1	2	-0.398381	25.4392	-48.8712	-18.7817
 460	1	1	0.032144	23.4151	-49.9471	-19.4202
 461	1	3	0.032313	22.3125	-48.0309	-20.1292
 462	1	4	0.461698	23.5624	-47.6841	-19.5977
 463	1	3	0.091945	24.2861	-48.79	-19.1673
 464	1	1	-0.10563	20.9926	-55.9833	-18.3599
 465	1	5	-0.099376	20.5581	-52.9488	-20.8211
 466	1	1	-0.043296	20.9314	-54.374	-20.2663
 467	1	1	-0.073043	20.7402	-54.6963	-18.8896
 468	1	1	-0.117827	21.5134	-56.9607	-19.2126
 469	1	1	-0.037562	21.4759	-55.4125	-21.0742
 470	1	1	-0.083705	21.754	-56.6667	-20.5302
 471	1	5	0.396	20.6093	-52.96	-22.4004
 472	1	5	0.310495	19.0557	-52.6309	-20.3855
 473	1	6	-0.130298	20.2112	-51.7936	-22.9812
 474	1	6	-0.128745	19.8604	-53.9765	-22.9018
 475	1	6	-0.120019	21.879	-53.1339	-22.8351
 476	1	6	-0.104287	18.4826	-51.588	-21.0352
 477	1	6	-0.095507	18.9833	-52.2798	-19.0784
 478	1	6	-0.104872	18.2264	-53.6831	-20.5746
 479	1	3	0.456145	22.2142	-57.8946	-21.2293
 480	1	3	0.550902	21.8422	-58.4048	-19.0048
 481	1	4	0.015704	22.2687	-58.8912	-20.2535
 482	1	2	-0.456801	22.4546	-57.9644	-22.4232
 483	1	2	-0.487703	21.7842	-58.9882	-17.9381
 484	1	1	-0.116566	22.7333	-60.2413	-20.4953
 485	1	1	-0.050109	21.8313	-61.2786	-20.8749
 486	1	1	0.154929	22.3237	-62.6025	-21.0584
 487	1	1	0.041555	24.1162	-60.5371	-20.3539
 488	1	1	-0.223109	24.576	-61.8597	-20.5036
 489	1	1	-0.080449	23.6857	-62.8932	-20.8384
 490	1	5	-0.108008	25.0995	-59.4441	-19.9488
 491	1	5	-0.182228	24.2141	-64.3304	-20.8581
 492	1	5	-0.345523	20.3458	-60.9429	-21.0233
 493	1	7	0.155183	20.3958	-50.1071	-20.9627
 494	1	7	0.172904	22.996	-53.2835	-19.428
 495	1	7	0.158028	24.6059	-51.5898	-18.6718
 496	1	7	0.153129	20.7936	-56.1984	-17.3094
 497	1	7	0.142914	20.3783	-53.9375	-18.1883
 498	1	7	0.135531	21.6587	-55.33	-22.1375
 499	1	7	0.17765	25.6306	-62.0748	-20.3773
 500	1	9	0.046541	24.8797	-59.1042	-18.9322
 501	1	9	0.045238	25.0573	-58.5823	-20.6208
 502	1	9	0.051941	26.1335	-59.7975	-19.9484
 503	1	9	0.087961	23.7123	-64.9586	-20.1132
 504	1	9	0.066782	25.2822	-64.3638	-20.6124
 505	1	9	0.075908	24.1032	-64.7977	-21.8458
 506	1	9	0.105172	19.7717	-61.7386	-21.5111
 507	1	9	0.115625	20.2088	-60.0402	-21.6415
 508	1	9	0.140296	19.8954	-60.7481	-20.0339
 509	1	4	0.48116	25.8713	-35.6029	-7.16256
 510	1	3	0.034009	26.2008	-36.3237	-8.35605
 511	1	1	0.028921	25.7018	-35.528	-9.4733
 512	1	3	0.071556	25.1645	-34.3547	-7.28784
 513	1	1	0.025276	24.9786	-34.1307	-8.74271
 514	1	2	-0.381907	26.6334	-37.4558	-8.48134
 515	1	2	-0.393799	24.7605	-33.6033	-6.40943
 516	1	1	-0.008998	25.7245	-35.7232	-11.2778
 517	1	1	-0.064503	24.2561	-32.8233	-9.7462
 518	1	1	-0.16756	24.2957	-32.9891	-11.589
 519	1	1	-0.085161	25.0465	-34.4558	-12.3419
 520	1	7	0.158939	26.1712	-36.6126	-11.7021
 521	1	7	0.163781	23.944	-31.8974	-9.29734
 522	1	7	0.161401	23.915	-32.1733	-12.2221
 523	1	5	-0.078003	25.1907	-34.6613	-13.8844
 524	1	5	0.303704	24.5794	-33.446	-14.7254
 525	1	6	-0.1084	23.2402	-33.2559	-14.5806
 526	1	6	-0.101508	24.7183	-33.6395	-16.0454
 527	1	6	-0.111714	25.1716	-32.2547	-14.4694
 528	1	5	0.380371	26.7293	-34.702	-14.2619
 529	1	6	-0.124028	27.3505	-35.7248	-13.6422
 530	1	6	-0.119704	27.0129	-34.8592	-15.5662
 531	1	6	-0.115877	27.3597	-33.5885	-13.8585
 532	1	1	-0.024709	24.4197	-35.9763	-14.2376
 533	1	1	-0.076489	25.0095	-37.0673	-14.965
 534	1	1	-0.052344	24.2295	-38.1993	-15.2552
 535	1	1	-0.054202	23.0261	-36.0976	-13.9056
 536	1	1	-0.149083	22.2673	-37.2519	-14.1977
 537	1	1	-0.063027	22.9083	-38.3032	-14.8482
 538	1	3	0.499526	22.4163	-39.6611	-15.1845
 539	1	4	-0.036881	23.4947	-40.3083	-15.7829
 540	1	3	0.443545	24.6191	-39.4803	-15.8984
 541	1	1	0.038197	23.4555	-41.6825	-16.1813
 542	1	1	-0.408621	23.752	-42.0379	-17.505
 543	1	1	0.252781	23.7656	-43.3858	-17.8926
 544	1	1	-0.169778	23.0438	-42.7023	-15.2945
 545	1	1	-0.113042	23.0432	-44.0581	-15.6926
 546	1	1	0.016958	23.4314	-44.413	-16.9844
 547	1	7	0.167832	21.2204	-37.3531	-13.9061
 548	1	7	0.134138	22.5054	-35.3085	-13.4035
 549	1	7	0.145229	26.0625	-37.0908	-15.2569
 550	1	2	-0.462312	25.7433	-39.7223	-16.3091
 551	1	2	-0.483102	21.3185	-40.1353	-14.9579
 552	1	7	0.144532	22.7989	-44.8461	-14.9865
 553	1	7	0.226042	24.1073	-41.291	-18.2025
 554	1	1	0.12103	24.5078	-46.027	-18.2763
 555	1	1	-0.09864	25.8416	-45.812	-17.9302
 556	1	1	-0.194398	26.8159	-45.7408	-18.9307
 557	1	1	-0.091961	26.4414	-45.9447	-20.2619
 558	1	1	-0.197799	25.1103	-46.2623	-20.5827
 559	1	1	-0.102777	24.1159	-46.3717	-19.5842
 560	1	7	0.132074	27.1849	-45.8469	-21.0622
 561	1	7	0.154044	24.8414	-46.4268	-21.6238
 562	1	7	0.145155	26.1045	-45.5922	-16.8919
 563	1	7	0.14558	23.2029	-45.8538	-19.8682
 564	1	10	-0.24014	23.5688	-45.735	-17.3263
 565	1	7	0.152938	22.7281	-42.4429	-14.2908
 566	1	7	0.151751	27.8297	-45.4923	-18.6799
 567	1	4	0.48116	32.0793	-23.4025	-1.46005
 568	1	3	0.034009	31.9716	-24.0635	-0.249326
 569	1	1	0.028921	32.7377	-25.3161	-0.421391
 570	1	3	0.071556	32.7431	-24.1313	-2.43197
 571	1	1	0.025276	33.1867	-25.3491	-1.72546
 572	1	2	-0.381907	31.5582	-23.6225	0.802401
 573	1	2	-0.393799	32.9293	-23.8309	-3.60767
 574	1	1	-0.008998	32.992	-26.3786	0.470694
 575	1	1	-0.064503	33.9895	-26.368	-2.20565
 576	1	1	-0.16756	34.3194	-27.3915	-1.31397
 577	1	1	-0.085161	33.8206	-27.4452	0.0210206
 578	1	7	0.158939	32.6209	-26.3139	1.49079
 579	1	7	0.163781	34.3737	-26.3632	-3.22742
 580	1	7	0.161401	34.9799	-28.1671	-1.69435
 581	1	5	-0.078003	34.2053	-28.654	0.939434
 582	1	5	0.303704	35.5871	-28.3231	1.65514
 583	1	6	-0.1084	35.4644	-27.4528	2.67887
 584	1	6	-0.101508	36.5065	-27.7435	0.835593
 585	1	6	-0.111714	36.1609	-29.4152	2.19899
 586	1	5	0.380371	33.1385	-29.0735	2.02632
 587	1	6	-0.124028	33.3335	-30.3542	2.43626
 588	1	6	-0.119704	31.8942	-28.9979	1.54093
 589	1	6	-0.115877	33.0684	-28.3158	3.1382
 590	1	1	-0.024709	34.2357	-29.842	-0.0525491
 591	1	1	-0.076489	33.0628	-30.1451	-0.768889
 592	1	1	-0.052344	33.0935	-31.0217	-1.84026
 593	1	1	-0.054202	35.4123	-30.5149	-0.452846
 594	1	1	-0.149083	35.4475	-31.3689	-1.59786
 595	1	1	-0.063027	34.2523	-31.6277	-2.30342
 596	1	3	0.499526	33.8506	-32.5687	-3.42111
 597	1	4	-0.036881	32.4532	-32.4668	-3.46327
 598	1	3	0.443545	31.9374	-31.5534	-2.56944
 599	1	1	0.038197	31.5323	-33.2344	-4.22549
 600	1	1	-0.408621	31.3774	-33.0292	-5.61172
 601	1	1	0.252781	30.3609	-33.7181	-6.31043
 602	1	1	-0.169778	30.5804	-34.0282	-3.5558
 603	1	1	-0.113042	29.582	-34.7201	-4.24269
 604	1	1	0.016958	29.4884	-34.6081	-5.63291
 605	1	7	0.167832	36.3961	-31.8034	-1.91947
 606	1	7	0.134138	36.3661	-30.2749	0.000412284
 607	1	7	0.145229	32.1159	-29.6411	-0.588521
 608	1	2	-0.462312	30.7673	-31.3676	-2.28378
 609	1	2	-0.483102	34.5515	-33.3692	-4.03213
 610	1	7	0.144532	28.8471	-35.2738	-3.6693
 611	1	7	0.226042	32.1108	-32.4563	-6.16516
 612	1	1	0.12103	27.6617	-36.2777	-5.72147
 613	1	1	-0.09864	28.2218	-37.3827	-5.03422
 614	1	1	-0.194398	27.4088	-38.4371	-4.60315
 615	1	1	-0.091961	26.0471	-38.4001	-4.92155
 616	1	1	-0.197799	25.4652	-37.2653	-5.52107
 617	1	1	-0.102777	26.2668	-36.1586	-5.9012
 618	1	7	0.132074	25.4351	-39.2681	-4.67713
 619	1	7	0.154044	24.398	-37.2506	-5.74005
 620	1	7	0.145155	29.2984	-37.4383	-4.89347
 621	1	7	0.14558	25.9761	-35.3195	-5.2766
 622	1	10	-0.24014	28.5203	-35.3503	-6.2975
 623	1	7	0.152938	30.6082	-34.0977	-2.46459
 624	1	7	0.151751	27.8371	-39.3017	-4.08837
 625	1	1	-0.004194	35.3216	-10.8418	0.779386
 626	1	1	-0.097141	35.4976	-12.1572	1.27446