pySIMM System Object

2672 atoms
2926 bonds
5112 angles
7748 dihedrals
832 impropers

10 atom types
12 bond types
21 angle types
8 dihedral types
4 improper types

-175.978464 175.978464 xlo xhi
-175.978464 175.978464 ylo yhi
-175.978464 175.978464 zlo zhi

Masses

   1	12.01	# ca
   2	16.0	# o
   3	12.01	# c
   4	14.01	# n
   5	12.01	# c3
   6	19.0	# f
   7	1.008	# ha
   8	1.008	# hn
   9	1.008	# hc
  10	16.0	# os

Pair Coeffs

   1	0.086	3.3996695084235347	# ca
   2	0.21	2.959921901149463	# o
   3	0.086	3.3996695084235347	# c
   4	0.17	3.249998523775958	# n
   5	0.1094	3.3996695084235347	# c3
   6	0.061	3.1181455134911875	# f
   7	0.015	2.59964245953351	# ha
   8	0.0157	1.069078461768407	# hn
   9	0.0157	2.649532787749369	# hc
  10	0.17	3.0000123434657784	# os

Bond Coeffs

   1	345.8	1.086	# ca,ha
   2	300.9	1.5375	# c3,c3
   3	637.7	1.2183	# c,o
   4	356.9	1.3497	# c3,f
   5	427.6	1.3789	# c,n
   6	345.9	1.4906	# c,ca
   7	330.6	1.0969	# c3,hc
   8	384.2	1.4121	# ca,n
   9	321.0	1.5156	# c3,ca
  10	403.2	1.0129	# hn,n
  11	461.1	1.3984	# ca,ca
  12	376.6	1.3696	# ca,os

Angle Coeffs

   1	68.72	122.6	# ca,c,o
   2	48.33	117.55	# c,n,hn
   3	67.68	115.25	# ca,c,n
   4	63.15	112.07	# c3,c3,ca
   5	62.86	111.51	# c3,c3,c3
   6	63.82	123.71	# c,n,ca
   7	67.87	120.19	# ca,ca,n
   8	63.53	120.77	# c3,ca,ca
   9	63.56	112.24	# ca,c3,ca
  10	63.74	127.08	# c,n,c
  11	48.18	119.88	# ca,ca,ha
  12	64.28	120.33	# c,ca,ca
  13	70.89	107.36	# f,c3,f
  14	39.4	107.58	# hc,c3,hc
  15	74.22	123.05	# n,c,o
  16	66.11	109.24	# c3,c3,f
  17	46.8	110.47	# ca,c3,hc
  18	66.62	120.02	# ca,ca,ca
  19	63.48	119.89	# ca,os,ca
  20	69.58	119.2	# ca,ca,os
  21	49.75	116.02	# ha,ca,n

Dihedral Coeffs

   1	2	2.5	2	180	2.0	1	0	# hn,n,c,o
   2	1	3.625	2	180	# X,ca,ca,X
   3	1	1.0	2	180	# X,c,ca,X
   4	1	0.15555555555555556	3	0	# X,c3,c3,X
   5	1	0.0	2	0	# X,c3,ca,X
   6	1	2.5	2	180	# X,c,n,X
   7	1	0.45	2	180	# X,ca,n,X
   8	1	0.9	2	180	# X,ca,os,X

Improper Coeffs

   1	1.1	-1	2	# ca,ca,ca,c3
   2	1.1	-1	2	# ca,X,X,ha
   3	1.1	-1	2	# n,X,X,hn
   4	10.5	-1	2	# c,X,X,o

Atoms

   1	1	1	-0.004194	149.543	-36.1878	-23.5368
   2	1	1	-0.097141	150.607	-35.8592	-22.6548
   3	1	1	-0.172015	151.015	-36.8356	-21.6998
   4	1	2	-0.377994	147.349	-37.5558	-25.2522
   5	1	1	0.033493	148.948	-37.4518	-23.4415
   6	1	1	-0.063739	150.388	-38.0979	-21.6148
   7	1	2	-0.398381	148.656	-40.6575	-22.0582
   8	1	1	0.032144	149.348	-38.3788	-22.5024
   9	1	3	0.032313	147.881	-38.0613	-24.2763
  10	1	4	0.461698	147.696	-39.3426	-23.7558
  11	1	3	0.091945	148.538	-39.6124	-22.677
  12	1	1	-0.10563	154.957	-35.6409	-22.8032
  13	1	5	-0.099376	151.244	-34.438	-22.6162
  14	1	1	-0.043296	152.765	-34.5818	-22.2967
  15	1	1	-0.073043	153.566	-35.4996	-23.039
  16	1	1	-0.117827	155.544	-34.8436	-21.8123
  17	1	1	-0.037562	153.406	-33.7926	-21.3089
  18	1	1	-0.083705	154.777	-33.957	-21.088
  19	1	5	0.396	150.422	-33.6348	-21.5238
  20	1	5	0.310495	151.159	-33.6707	-23.9966
  21	1	6	-0.130298	149.085	-33.7489	-21.7121
  22	1	6	-0.128745	150.701	-32.3097	-21.5134
  23	1	6	-0.120019	150.632	-34.1056	-20.2726
  24	1	6	-0.104287	151.485	-34.4637	-25.0404
  25	1	6	-0.095507	152.012	-32.6225	-24.0495
  26	1	6	-0.104872	149.936	-33.1621	-24.2636
  27	1	3	0.456145	155.657	-33.2571	-20.1203
  28	1	3	0.550902	156.961	-34.7079	-21.352
  29	1	4	0.015704	156.936	-33.748	-20.3474
  30	1	2	-0.456801	155.294	-32.4241	-19.3057
  31	1	2	-0.487703	157.925	-35.3169	-21.7869
  32	1	1	-0.116566	158.067	-33.3375	-19.5763
  33	1	1	-0.050109	158.623	-34.2229	-18.6264
  34	1	1	0.154929	159.65	-33.7765	-17.7763
  35	1	1	0.041555	158.583	-32.024	-19.6966
  36	1	1	-0.223109	159.594	-31.5898	-18.8166
  37	1	1	-0.080449	160.117	-32.4541	-17.8437
  38	1	5	-0.108008	158.063	-31.0502	-20.7468
  39	1	5	-0.182228	161.162	-31.9549	-16.8614
  40	1	5	-0.345523	158.083	-35.6367	-18.448
  41	1	7	0.155183	149.162	-35.4926	-24.2782
  42	1	7	0.172904	151.798	-36.6063	-20.9883
  43	1	7	0.158028	150.696	-38.8352	-20.8805
  44	1	7	0.153129	155.561	-36.3374	-23.3859
  45	1	7	0.142914	153.11	-36.1022	-23.8137
  46	1	7	0.135531	152.879	-33.0587	-20.714
  47	1	7	0.17765	159.964	-30.5685	-18.883
  48	1	9	0.046541	158.044	-31.5149	-21.7446
  49	1	9	0.045238	158.701	-30.1591	-20.821
  50	1	9	0.051941	157.048	-30.704	-20.5091
  51	1	9	0.087961	160.695	-31.7008	-15.905
  52	1	9	0.066782	161.669	-31.0482	-17.2334
  53	1	9	0.075908	161.929	-32.713	-16.6726
  54	1	9	0.105172	158.308	-36.2598	-19.3205
  55	1	9	0.115625	156.994	-35.6315	-18.2936
  56	1	9	0.140296	158.53	-36.1294	-17.5749
  57	1	1	-0.004194	135.665	-44.8936	-23.7784
  58	1	1	-0.097141	136.709	-44.1379	-23.1714
  59	1	1	-0.172015	136.371	-42.8753	-22.6093
  60	1	2	-0.377994	132.965	-46.0297	-24.887
  61	1	1	0.033493	134.354	-44.3874	-23.769
  62	1	1	-0.063739	135.051	-42.3801	-22.6138
  63	1	2	-0.398381	131.983	-42.0136	-22.7994
  64	1	1	0.032144	134.058	-43.1716	-23.1939
  65	1	3	0.032313	133.081	-44.9777	-24.2832
  66	1	4	0.461698	132.076	-44.084	-23.9061
  67	1	3	0.091945	132.592	-42.964	-23.2581
  68	1	1	-0.10563	139.769	-41.7844	-25.1258
  69	1	5	-0.099376	138.181	-44.6618	-23.0136
  70	1	1	-0.043296	139.198	-43.6069	-23.5453
  71	1	1	-0.073043	138.829	-42.6678	-24.5487
  72	1	1	-0.117827	141.102	-41.8508	-24.6916
  73	1	1	-0.037562	140.555	-43.6238	-23.1261
  74	1	1	-0.083705	141.465	-42.7383	-23.7053
  75	1	5	0.396	138.409	-44.949	-21.4774
  76	1	5	0.310495	138.467	-45.9972	-23.8028
  77	1	6	-0.130298	139.468	-45.7501	-21.2272
  78	1	6	-0.128745	138.624	-43.8134	-20.779
  79	1	6	-0.120019	137.339	-45.5504	-20.9162
  80	1	6	-0.104287	137.797	-47.0507	-23.2898
  81	1	6	-0.095507	138.136	-45.8912	-25.102
  82	1	6	-0.104872	139.77	-46.347	-23.7916
  83	1	3	0.456145	142.929	-42.6514	-23.5075
  84	1	3	0.550902	142.343	-41.1641	-25.1756
  85	1	4	0.015704	143.394	-41.7369	-24.4473
  86	1	2	-0.456801	143.569	-43.3414	-22.7326
  87	1	2	-0.487703	142.395	-40.3304	-26.0652
  88	1	1	-0.116566	144.793	-41.55	-24.7124
  89	1	1	-0.050109	145.516	-40.4891	-24.1105
  90	1	1	0.154929	146.906	-40.3517	-24.377
  91	1	1	0.041555	145.456	-42.4551	-25.5821
  92	1	1	-0.223109	146.831	-42.3009	-25.8386
  93	1	1	-0.080449	147.559	-41.2551	-25.2488
  94	1	5	-0.108008	144.703	-43.588	-26.2811
  95	1	5	-0.182228	149.04	-41.1002	-25.5984
  96	1	5	-0.345523	144.78	-39.5103	-23.1874
  97	1	7	0.155183	135.826	-45.8741	-24.2132
  98	1	7	0.172904	137.141	-42.2757	-22.1333
  99	1	7	0.158028	134.794	-41.4284	-22.156
 100	1	7	0.153129	139.482	-41.0958	-25.9173
 101	1	7	0.142914	137.81	-42.645	-24.923
 102	1	7	0.135531	140.937	-44.3409	-22.408
 103	1	7	0.17765	147.329	-42.9894	-26.5161
 104	1	9	0.046541	145.344	-44.119	-26.9954
 105	1	9	0.045238	143.843	-43.2031	-26.8437
 106	1	9	0.051941	144.34	-44.3243	-25.5572
 107	1	9	0.087961	149.679	-41.2194	-24.7132
 108	1	9	0.066782	149.241	-40.1164	-26.044
 109	1	9	0.075908	149.362	-41.8551	-26.3285
 110	1	9	0.105172	143.812	-39.2134	-23.6093
 111	1	9	0.115625	145.326	-38.5764	-23.0265
 112	1	9	0.140296	144.596	-39.9634	-22.2042
 113	1	1	-0.004194	123.636	-49.1794	-15.6985
 114	1	1	-0.097141	124.283	-48.2775	-16.5882
 115	1	1	-0.172015	123.501	-47.2597	-17.2043
 116	1	2	-0.377994	121.677	-50.779	-13.903
 117	1	1	0.033493	122.264	-49.0417	-15.4828
 118	1	1	-0.063739	122.111	-47.1529	-16.9815
 119	1	2	-0.398381	119.163	-47.5065	-16.0407
 120	1	1	0.032144	121.522	-48.0588	-16.1078
 121	1	3	0.032313	121.375	-49.8037	-14.572
 122	1	4	0.461698	120.13	-49.1887	-14.7073
 123	1	3	0.091945	120.117	-48.1604	-15.6475
 124	1	1	-0.10563	125.642	-48.4482	-20.7231
 125	1	5	-0.099376	125.825	-48.2986	-16.84
 126	1	1	-0.043296	126.077	-47.9302	-18.3361
 127	1	1	-0.073043	125.418	-48.6861	-19.3483
 128	1	1	-0.117827	126.49	-47.3947	-21.0886
 129	1	1	-0.037562	126.943	-46.8821	-18.7553
 130	1	1	-0.083705	127.101	-46.6209	-20.1266
 131	1	5	0.396	126.486	-49.7181	-16.6182
 132	1	5	0.310495	126.478	-47.2983	-15.8075
 133	1	6	-0.130298	125.758	-50.7014	-17.1816
 134	1	6	-0.128745	126.612	-50.0544	-15.3188
 135	1	6	-0.120019	127.726	-49.8056	-17.1545
 136	1	6	-0.104287	127.829	-47.2683	-15.9011
 137	1	6	-0.095507	126.194	-47.6249	-14.5219
 138	1	6	-0.104872	126.012	-46.0394	-15.969
 139	1	3	0.456145	127.92	-45.5878	-20.815
 140	1	3	0.550902	126.948	-46.9154	-22.4325
 141	1	4	0.015704	127.8	-45.8444	-22.1766
 142	1	2	-0.456801	128.604	-44.7379	-20.2699
 143	1	2	-0.487703	126.685	-47.4341	-23.5065
 144	1	1	-0.116566	128.529	-45.1147	-23.1703
 145	1	1	-0.050109	129.952	-45.0896	-23.1416
 146	1	1	0.154929	130.669	-44.2939	-24.0694
 147	1	1	0.041555	127.838	-44.3742	-24.1618
 148	1	1	-0.223109	128.57	-43.685	-25.1439
 149	1	1	-0.080449	129.972	-43.6306	-25.1013
 150	1	5	-0.108008	126.316	-44.262	-24.2043
 151	1	5	-0.182228	130.723	-42.8239	-26.1524
 152	1	5	-0.345523	130.753	-45.8928	-22.1058
 153	1	7	0.155183	124.17	-49.9629	-15.1665
 154	1	7	0.172904	123.972	-46.52	-17.8452
 155	1	7	0.158028	121.518	-46.3658	-17.4354
 156	1	7	0.153129	125.166	-49.057	-21.4866
 157	1	7	0.142914	124.733	-49.4791	-19.0696
 158	1	7	0.135531	127.477	-46.2517	-18.0516
 159	1	7	0.17765	128.037	-43.1533	-25.9274
 160	1	9	0.046541	126.003	-43.3262	-24.6905
 161	1	9	0.045238	125.881	-44.2576	-23.196
 162	1	9	0.051941	125.871	-45.0963	-24.7706
 163	1	9	0.087961	131.015	-41.8415	-25.7571
 164	1	9	0.066782	130.103	-42.653	-27.0433
 165	1	9	0.075908	131.631	-43.3434	-26.4948
 166	1	9	0.105172	131.129	-45.2403	-21.3179
 167	1	9	0.115625	131.607	-46.4232	-22.5549
 168	1	9	0.140296	130.167	-46.6809	-21.6141
 169	1	1	-0.004194	114.564	-48.289	-4.82707
 170	1	1	-0.097141	115.979	-48.1659	-4.69696
 171	1	1	-0.172015	116.658	-49.1565	-3.93117
 172	1	2	-0.377994	111.532	-49.1538	-4.73986
 173	1	1	0.033493	113.881	-49.3439	-4.18116
 174	1	1	-0.063739	115.962	-50.2098	-3.31003
 175	1	2	-0.398381	113.891	-52.2395	-2.17013
 176	1	1	0.032144	114.57	-50.275	-3.43319
 177	1	3	0.032313	112.44	-49.7488	-4.18269
 178	1	4	0.461698	112.38	-50.9654	-3.45059
 179	1	3	0.091945	113.626	-51.3085	-2.9168
 180	1	1	-0.10563	116.185	-45.8304	-9.08748
 181	1	5	-0.099376	116.732	-46.9696	-5.38629
 182	1	1	-0.043296	116.426	-46.9741	-6.91336
 183	1	1	-0.073043	116.321	-45.7813	-7.68295
 184	1	1	-0.117827	116.219	-47.0771	-9.71942
 185	1	1	-0.037562	116.432	-48.2164	-7.6018
 186	1	1	-0.083705	116.367	-48.2392	-9.00097
 187	1	5	0.396	118.308	-47.0823	-5.3266
 188	1	5	0.310495	116.291	-45.6439	-4.63957
 189	1	6	-0.130298	118.906	-46.1413	-6.08971
 190	1	6	-0.128745	118.771	-48.2434	-5.83239
 191	1	6	-0.120019	118.803	-46.9617	-4.07771
 192	1	6	-0.104287	117.112	-44.5867	-4.85582
 193	1	6	-0.095507	116.283	-45.8543	-3.30044
 194	1	6	-0.104872	115.051	-45.2238	-5.00091
 195	1	3	0.456145	116.631	-49.3423	-9.96558
 196	1	3	0.550902	116.346	-47.3942	-11.1655
 197	1	4	0.015704	116.7	-48.7345	-11.2132
 198	1	2	-0.456801	116.875	-50.5078	-9.69112
 199	1	2	-0.487703	116.281	-46.5888	-12.0765
 200	1	1	-0.116566	117.21	-49.3945	-12.3685
 201	1	1	-0.050109	118.498	-49.0521	-12.8641
 202	1	1	0.154929	118.946	-49.6445	-14.0715
 203	1	1	0.041555	116.416	-50.3559	-13.032
 204	1	1	-0.223109	116.928	-51.0119	-14.1618
 205	1	1	-0.080449	118.176	-50.652	-14.6893
 206	1	5	-0.108008	115.018	-50.7153	-12.534
 207	1	5	-0.182228	118.663	-51.3493	-15.9475
 208	1	5	-0.345523	119.381	-48.0626	-12.0775
 209	1	7	0.155183	113.994	-47.5836	-5.43446
 210	1	7	0.172904	117.729	-49.1202	-3.76791
 211	1	7	0.158028	116.492	-50.9612	-2.72333
 212	1	7	0.153129	116.143	-44.9206	-9.68275
 213	1	7	0.142914	116.385	-44.8069	-7.21133
 214	1	7	0.135531	116.608	-49.1476	-7.07337
 215	1	7	0.17765	116.331	-51.7667	-14.6647
 216	1	9	0.046541	115.077	-51.2671	-11.5921
 217	1	9	0.045238	114.484	-51.3518	-13.2456
 218	1	9	0.051941	114.399	-49.8268	-12.3702
 219	1	9	0.087961	118.066	-52.249	-16.1536
 220	1	9	0.066782	119.705	-51.6714	-15.8489
 221	1	9	0.075908	118.591	-50.6847	-16.8253
 222	1	9	0.105172	119.355	-48.2849	-11.0069
 223	1	9	0.115625	119.028	-47.0327	-12.2192
 224	1	9	0.140296	120.442	-48.0831	-12.3511
 225	1	4	0.48116	97.3876	-42.448	1.43872
 226	1	3	0.034009	97.9735	-42.3683	2.6996
 227	1	1	0.028921	99.4339	-42.4904	2.46945
 228	1	3	0.071556	98.3367	-42.5945	0.425962
 229	1	1	0.025276	99.6576	-42.594	1.10999
 230	1	2	-0.381907	97.4016	-42.3378	3.7739
 231	1	2	-0.393799	98.1307	-42.8002	-0.759295
 232	1	1	-0.008998	100.476	-42.6106	3.39495
 233	1	1	-0.064503	100.944	-42.7797	0.59214
 234	1	1	-0.16756	102.01	-42.8877	1.5069
 235	1	1	-0.085161	101.801	-42.8246	2.9165
 236	1	7	0.158939	100.221	-42.5609	4.44798
 237	1	7	0.163781	101.083	-42.8713	-0.482981
 238	1	7	0.161401	103.004	-43.0896	1.1116
 239	1	5	-0.078003	103.028	-43.114	3.83835
 240	1	5	0.303704	104.016	-41.8678	3.72272
 241	1	6	-0.1084	104.568	-41.7647	2.50001
 242	1	6	-0.101508	105.075	-41.9095	4.55112
 243	1	6	-0.111714	103.413	-40.679	3.96277
 244	1	5	0.380371	102.638	-43.3269	5.35566
 245	1	6	-0.124028	102.151	-42.2031	5.93688
 246	1	6	-0.119704	101.685	-44.2748	5.54619
 247	1	6	-0.115877	103.719	-43.7082	6.07932
 248	1	1	-0.024709	103.622	-44.4782	3.33333
 249	1	1	-0.076489	104.995	-44.6476	2.99883
 250	1	1	-0.052344	105.443	-45.8618	2.45414
 251	1	1	-0.054202	102.756	-45.5789	3.10237
 252	1	1	-0.149083	103.227	-46.7973	2.55903
 253	1	1	-0.063027	104.582	-46.9119	2.25188
 254	1	3	0.499526	105.321	-48.0247	1.58945
 255	1	4	-0.036881	106.623	-47.5521	1.4068
 256	1	3	0.443545	106.783	-46.2608	1.91891
 257	1	1	0.038197	107.653	-48.3007	0.721493
 258	1	1	-0.408621	107.767	-49.7072	0.879433
 259	1	1	0.252781	108.777	-50.4307	0.212271
 260	1	1	-0.169778	108.574	-47.6598	-0.134071
 261	1	1	-0.113042	109.588	-48.3831	-0.788405
 262	1	1	0.016958	109.686	-49.7744	-0.639243
 263	1	7	0.167832	102.539	-47.6211	2.35501
 264	1	7	0.134138	101.7	-45.4829	3.2924
 265	1	7	0.145229	105.718	-43.8503	3.13129
 266	1	2	-0.462312	107.777	-45.5443	1.85678
 267	1	2	-0.483102	104.845	-49.1118	1.27994
 268	1	7	0.144532	110.292	-47.8819	-1.44587
 269	1	7	0.226042	107.072	-50.2525	1.51432
 270	1	1	0.12103	110.742	-51.6639	-1.86739
 271	1	1	-0.09864	110.579	-52.8015	-1.04969
 272	1	1	-0.194398	110.748	-54.091	-1.58082
 273	1	1	-0.091961	111.122	-54.2339	-2.92627
 274	1	1	-0.197799	111.344	-53.0964	-3.71745
 275	1	1	-0.102777	111.208	-51.78	-3.2007
 276	1	7	0.132074	111.253	-55.2311	-3.35024
 277	1	7	0.154044	111.671	-53.2429	-4.7451
 278	1	7	0.145155	110.357	-52.6831	0.00659823
 279	1	7	0.14558	110.555	-51.2066	-3.8466
 280	1	10	-0.24014	110.729	-50.4075	-1.29133
 281	1	7	0.152938	108.539	-46.5852	-0.28287
 282	1	7	0.151751	110.601	-54.9667	-0.95329
 283	1	1	-0.004194	87.301	-34.3835	-0.914237
 284	1	1	-0.097141	88.0464	-35.4646	-0.363258
 285	1	1	-0.172015	87.3467	-36.6256	0.0741418
 286	1	2	-0.377994	85.0457	-32.4847	-2.03547
 287	1	1	0.033493	85.9046	-34.5061	-0.994486
 288	1	1	-0.063739	85.9619	-36.7544	-0.082089
 289	1	2	-0.398381	83.0029	-36.4808	-0.914143
 290	1	1	0.032144	85.2669	-35.6735	-0.618292
 291	1	3	0.032313	84.8852	-33.6034	-1.58232
 292	1	4	0.461698	83.6972	-34.3247	-1.5143
 293	1	3	0.091945	83.8359	-35.5916	-0.975028
 294	1	1	-0.10563	90.5346	-38.7553	-1.71421
 295	1	5	-0.099376	89.5855	-35.3706	-0.103383
 296	1	1	-0.043296	90.2598	-36.7678	-0.267468
 297	1	1	-0.073043	89.9089	-37.5323	-1.41607
 298	1	1	-0.117827	91.5106	-39.2146	-0.817649
 299	1	1	-0.037562	91.2587	-37.2809	0.60917
 300	1	1	-0.083705	91.8436	-38.5182	0.32492
 301	1	5	0.396	89.7122	-34.7808	1.35577
 302	1	5	0.310495	90.3642	-34.4436	-1.12398
 303	1	6	-0.130298	90.9906	-34.4423	1.65006
 304	1	6	-0.128745	89.3116	-35.6927	2.26974
 305	1	6	-0.120019	88.9328	-33.6895	1.56759
 306	1	6	-0.104287	90.129	-33.1374	-0.893531
 307	1	6	-0.095507	90.0272	-34.6544	-2.40902
 308	1	6	-0.104872	91.7066	-34.6441	-1.05465
 309	1	3	0.456145	92.7932	-39.3335	1.1082
 310	1	3	0.550902	92.286	-40.4841	-0.844753
 311	1	4	0.015704	92.9848	-40.4896	0.357825
 312	1	2	-0.456801	93.2645	-39.0675	2.19947
 313	1	2	-0.487703	92.2633	-41.3318	-1.72764
 314	1	1	-0.116566	93.7859	-41.5786	0.785419
 315	1	1	-0.050109	95.1946	-41.4664	0.79408
 316	1	1	0.154929	95.9791	-42.5516	1.25422
 317	1	1	0.041555	93.1486	-42.7677	1.20174
 318	1	1	-0.223109	93.9405	-43.8535	1.60653
 319	1	1	-0.080449	95.3442	-43.7578	1.62517
 320	1	5	-0.108008	91.6296	-42.9094	1.17214
 321	1	5	-0.182228	96.1542	-44.986	2.01814
 322	1	5	-0.345523	95.842	-40.1395	0.34267
 323	1	7	0.155183	87.767	-33.4727	-1.27311
 324	1	7	0.172904	87.8773	-37.4396	0.570454
 325	1	7	0.158028	85.438	-37.6627	0.206222
 326	1	7	0.153129	90.2523	-39.3405	-2.59462
 327	1	7	0.142914	89.1504	-37.1688	-2.09914
 328	1	7	0.135531	91.5541	-36.7825	1.52694
 329	1	7	0.17765	93.4643	-44.7712	1.90522
 330	1	9	0.046541	91.2925	-43.074	0.154143
 331	1	9	0.045238	91.1182	-42.0055	1.53872
 332	1	9	0.051941	91.2911	-43.7623	1.76273
 333	1	9	0.087961	96.4452	-44.939	3.07121
 334	1	9	0.066782	97.0671	-45.0725	1.42353
 335	1	9	0.075908	95.6022	-45.9176	1.86924
 336	1	9	0.105172	96.905	-40.2359	0.0892635
 337	1	9	0.115625	95.7547	-39.3686	1.13056
 338	1	9	0.140296	95.3667	-39.7577	-0.560995
 339	1	1	-0.004194	73.456	-26.9071	0.949376
 340	1	1	-0.097141	73.6235	-27.7467	-0.185613
 341	1	1	-0.172015	73.1359	-27.249	-1.44416
 342	1	2	-0.377994	72.5751	-24.8259	3.09215
 343	1	1	0.033493	72.7155	-25.7239	0.839955
 344	1	1	-0.063739	72.3383	-26.0822	-1.51907
 345	1	2	-0.398381	70.3866	-23.7089	-0.843367
 346	1	1	0.032144	72.1208	-25.3502	-0.348168
 347	1	3	0.032313	72.1878	-24.8535	1.93414
 348	1	4	0.461698	71.191	-24.0938	1.33696
 349	1	3	0.091945	71.1325	-24.2649	-0.0532296
 350	1	1	-0.10563	77.75	-28.5728	-1.35256
 351	1	5	-0.099376	74.111	-29.2463	-0.0809484
 352	1	1	-0.043296	75.5306	-29.4381	-0.69833
 353	1	1	-0.073043	76.4003	-28.3395	-0.980024
 354	1	1	-0.117827	78.2197	-29.9011	-1.45043
 355	1	1	-0.037562	76.0306	-30.7584	-0.881309
 356	1	1	-0.083705	77.3691	-30.9613	-1.23639
 357	1	5	0.396	74.1563	-29.7454	1.41851
 358	1	5	0.310495	73.0299	-30.1276	-0.811255
 359	1	6	-0.130298	74.4748	-31.0525	1.58572
 360	1	6	-0.128745	72.9656	-29.5405	2.02994
 361	1	6	-0.120019	75.1065	-29.0941	2.11085
 362	1	6	-0.104287	73.2526	-30.1385	-2.144
 363	1	6	-0.095507	71.7878	-29.6362	-0.566422
 364	1	6	-0.104872	72.9523	-31.4315	-0.43848
 365	1	3	0.456145	78.1291	-32.2373	-1.51581
 366	1	3	0.550902	79.5605	-30.455	-1.83424
 367	1	4	0.015704	79.4215	-31.8478	-1.85253
 368	1	2	-0.456801	77.6978	-33.3812	-1.4772
 369	1	2	-0.487703	80.5646	-29.8206	-2.11322
 370	1	1	-0.116566	80.4097	-32.7507	-2.35574
 371	1	1	-0.050109	81.5472	-33.1265	-1.60546
 372	1	1	0.154929	82.54	-33.9355	-2.22097
 373	1	1	0.041555	80.2707	-33.2063	-3.68747
 374	1	1	-0.223109	81.2484	-34.0253	-4.26657
 375	1	1	-0.080449	82.3845	-34.3929	-3.54607
 376	1	5	-0.108008	79.0873	-32.792	-4.55179
 377	1	5	-0.182228	83.3879	-35.3385	-4.2132
 378	1	5	-0.345523	81.6878	-32.6223	-0.16896
 379	1	7	0.155183	73.7616	-27.1944	1.94007
 380	1	7	0.172904	73.2749	-27.8039	-2.36435
 381	1	7	0.158028	71.8344	-25.7854	-2.43725
 382	1	7	0.153129	78.4271	-27.7377	-1.53432
 383	1	7	0.142914	76.0627	-27.3129	-0.869499
 384	1	7	0.135531	75.4104	-31.6299	-0.705975
 385	1	7	0.17765	81.1348	-34.356	-5.29144
 386	1	9	0.046541	79.1897	-33.1927	-5.57095
 387	1	9	0.045238	79.0039	-31.71	-4.62766
 388	1	9	0.051941	78.1369	-33.1964	-4.14084
 389	1	9	0.087961	83.336	-35.29	-5.30973
 390	1	9	0.066782	83.1751	-36.3688	-3.92489
 391	1	9	0.075908	84.431	-35.1123	-3.92325
 392	1	9	0.105172	82.3272	-33.2655	0.447203
 393	1	9	0.115625	80.7245	-32.5851	0.350022
 394	1	9	0.140296	82.1235	-31.6143	-0.144792
 395	1	1	-0.004194	67.7448	-11.6909	4.20656
 396	1	1	-0.097141	67.8393	-13.0989	4.39093
 397	1	1	-0.172015	66.7207	-13.7431	4.99252
 398	1	2	-0.377994	67.1025	-8.69467	4.41226
 399	1	1	0.033493	66.5786	-11.0219	4.59597
 400	1	1	-0.063739	65.5507	-13.0616	5.37516
 401	1	2	-0.398381	63.5389	-10.9719	6.2924
 402	1	1	0.032144	65.5149	-11.6904	5.1516
 403	1	3	0.032313	66.3235	-9.57138	4.72715
 404	1	4	0.461698	65.0745	-9.44157	5.34797
 405	1	3	0.091945	64.5418	-10.7013	5.65419
 406	1	1	-0.10563	67.3919	-16.677	2.04897
 407	1	5	-0.099376	69.1583	-13.8941	4.12037
 408	1	1	-0.043296	68.7867	-15.2953	3.55488
 409	1	1	-0.073043	67.7655	-15.4194	2.58063
 410	1	1	-0.117827	68.137	-17.8071	2.44434
 411	1	1	-0.037562	69.5122	-16.4481	3.90716
 412	1	1	-0.083705	69.1793	-17.6608	3.32122
 413	1	5	0.396	70.0715	-13.2258	3.04147
 414	1	5	0.310495	69.9437	-13.9382	5.49342
 415	1	6	-0.130298	71.1266	-14.0007	2.72951
 416	1	6	-0.128745	70.6124	-12.0734	3.47052
 417	1	6	-0.120019	69.3961	-12.9718	1.88221
 418	1	6	-0.104287	71.2119	-14.375	5.45604
 419	1	6	-0.095507	69.2935	-14.7525	6.35164
 420	1	6	-0.104872	70.0	-12.7389	6.10261
 421	1	3	0.456145	69.849	-18.9585	3.47574
 422	1	3	0.550902	68.0873	-19.2396	2.01008
 423	1	4	0.015704	69.1243	-19.8449	2.71189
 424	1	2	-0.456801	70.7332	-19.1941	4.27533
 425	1	2	-0.487703	67.2242	-19.7829	1.33246
 426	1	1	-0.116566	69.2633	-21.247	2.81393
 427	1	1	-0.050109	70.1684	-21.9436	1.99692
 428	1	1	0.154929	70.2639	-23.3587	2.12625
 429	1	1	0.041555	68.4689	-21.9348	3.76671
 430	1	1	-0.223109	68.5339	-23.3288	3.83462
 431	1	1	-0.080449	69.4122	-24.0545	3.02535
 432	1	5	-0.108008	67.5126	-21.2122	4.72052
 433	1	5	-0.182228	69.4599	-25.5684	3.20508
 434	1	5	-0.345523	70.9346	-21.1701	0.931194
 435	1	7	0.155183	68.5818	-11.1004	3.85944
 436	1	7	0.172904	66.7638	-14.7946	5.20888
 437	1	7	0.158028	64.728	-13.5688	5.87226
 438	1	7	0.153129	66.5735	-16.7822	1.31891
 439	1	7	0.142914	67.2449	-14.5195	2.26298
 440	1	7	0.135531	70.334	-16.4405	4.61211
 441	1	7	0.17765	67.9272	-23.8684	4.54136
 442	1	9	0.046541	66.8411	-20.5338	4.1805
 443	1	9	0.045238	68.0503	-20.6141	5.46595
 444	1	9	0.051941	66.8707	-21.9084	5.27051
 445	1	9	0.087961	69.5144	-26.1056	2.23728
 446	1	9	0.066782	68.5722	-25.951	3.73345
 447	1	9	0.075908	70.3095	-25.8606	3.82305
 448	1	9	0.105172	71.8918	-21.6358	0.684486
 449	1	9	0.115625	71.1613	-20.14	1.22514
 450	1	9	0.140296	70.3181	-21.1184	0.0191794
 451	1	4	0.48116	47.2387	-10.7718	-0.873527
 452	1	3	0.034009	47.2522	-11.0581	0.491214
 453	1	1	0.028921	48.1993	-10.0921	1.05446
 454	1	3	0.071556	48.0245	-9.66262	-1.21001
 455	1	1	0.025276	48.6857	-9.28151	0.043401
 456	1	2	-0.381907	46.7486	-11.9938	1.08206
 457	1	2	-0.393799	48.2538	-9.14899	-2.2942
 458	1	1	-0.008998	48.7417	-10.0842	2.33751
 459	1	1	-0.064503	49.715	-8.36718	0.26691
 460	1	1	-0.16756	50.297	-8.36888	1.56018
 461	1	1	-0.085161	49.8464	-9.22597	2.60728
 462	1	7	0.158939	48.3615	-10.8016	3.05174
 463	1	7	0.163781	50.1011	-7.743	-0.537398
 464	1	7	0.161401	51.1584	-7.71839	1.71988
 465	1	5	-0.078003	50.6705	-9.24321	3.94886
 466	1	5	0.303704	50.3835	-7.88194	4.68963
 467	1	6	-0.1084	51.0478	-7.73907	5.85532
 468	1	6	-0.101508	50.7153	-6.81884	3.92075
 469	1	6	-0.111714	49.0787	-7.74435	5.00256
 470	1	5	0.380371	50.2888	-10.4003	4.92593
 471	1	6	-0.124028	51.0738	-10.3948	6.01798
 472	1	6	-0.119704	50.4597	-11.6104	4.37016
 473	1	6	-0.115877	49.0239	-10.3545	5.35008
 474	1	1	-0.024709	52.1908	-9.47085	3.5904
 475	1	1	-0.076489	53.2702	-8.83866	4.27514
 476	1	1	-0.052344	54.6077	-9.14224	3.91645
 477	1	1	-0.054202	52.5545	-10.4145	2.57166
 478	1	1	-0.149083	53.8993	-10.7206	2.24868
 479	1	1	-0.063027	54.9268	-10.0527	2.94385
 480	1	3	0.499526	56.4272	-10.0758	2.81547
 481	1	4	-0.036881	56.9518	-9.14954	3.70757
 482	1	3	0.443545	55.8919	-8.55365	4.41786
 483	1	1	0.038197	58.3647	-8.86652	3.86433
 484	1	1	-0.408621	58.8309	-7.57316	4.20116
 485	1	1	0.252781	60.1985	-7.33751	4.45087
 486	1	1	-0.169778	59.351	-9.88147	3.70276
 487	1	1	-0.113042	60.7314	-9.63505	3.89062
 488	1	1	0.016958	61.153	-8.3639	4.28649
 489	1	7	0.167832	54.1477	-11.4236	1.45102
 490	1	7	0.134138	51.7636	-10.925	2.00582
 491	1	7	0.145229	53.1237	-8.04116	4.99194
 492	1	2	-0.462312	55.9581	-7.64717	5.23309
 493	1	2	-0.483102	57.047	-10.7701	2.03709
 494	1	7	0.144532	61.456	-10.4249	3.76727
 495	1	7	0.226042	58.1119	-6.76944	4.33429
 496	1	1	0.12103	63.1156	-8.18832	5.75456
 497	1	1	-0.09864	62.3298	-8.20538	6.93199
 498	1	1	-0.194398	62.937	-8.22398	8.18404
 499	1	1	-0.091961	64.3288	-8.09256	8.26637
 500	1	1	-0.197799	65.108	-7.96846	7.10254
 501	1	1	-0.102777	64.5259	-8.2052	5.83099
 502	1	7	0.132074	64.8111	-8.03511	9.23599
 503	1	7	0.154044	66.1796	-7.8365	7.18626
 504	1	7	0.145155	61.2503	-8.23413	6.86353
 505	1	7	0.14558	64.954	-7.58174	5.04641
 506	1	10	-0.24014	62.5094	-8.16076	4.51605
 507	1	7	0.152938	59.0576	-10.9006	3.44411
 508	1	7	0.151751	62.3082	-8.28479	9.07791
 509	1	1	-0.004194	34.9846	-11.4949	-2.45843
 510	1	1	-0.097141	36.2393	-11.1218	-2.99156
 511	1	1	-0.172015	36.8653	-9.97031	-2.43848
 512	1	2	-0.377994	32.3149	-11.8161	-1.02773
 513	1	1	0.033493	34.4199	-10.7482	-1.41848
 514	1	1	-0.063739	36.2754	-9.21256	-1.39761
 515	1	2	-0.398381	34.2799	-8.00849	0.739134
 516	1	1	0.032144	35.0235	-9.62321	-0.911199
 517	1	3	0.032313	33.0942	-10.9141	-0.779664
 518	1	4	0.461698	32.9543	-9.83414	0.0758487
 519	1	3	0.091945	34.0865	-9.01346	0.079232
 520	1	1	-0.10563	39.6276	-13.2109	-1.48961
 521	1	5	-0.099376	36.9977	-11.9636	-4.0612
 522	1	1	-0.043296	38.3936	-12.3393	-3.45952
 523	1	1	-0.073043	38.4201	-12.886	-2.13445
 524	1	1	-0.117827	40.815	-12.9451	-2.16823
 525	1	1	-0.037562	39.6313	-12.1485	-4.14862
 526	1	1	-0.083705	40.8128	-12.4198	-3.44516
 527	1	5	0.396	37.0755	-11.1064	-5.39124
 528	1	5	0.310495	36.3032	-13.3369	-4.3973
 529	1	6	-0.130298	37.6015	-11.7943	-6.41751
 530	1	6	-0.128745	37.8363	-9.99954	-5.24266
 531	1	6	-0.120019	35.846	-10.702	-5.82931
 532	1	6	-0.104287	35.144	-13.1799	-5.03864
 533	1	6	-0.095507	37.0369	-14.0812	-5.2385
 534	1	6	-0.104872	36.0473	-14.1188	-3.3214
 535	1	3	0.456145	42.2194	-12.1984	-3.88637
 536	1	3	0.550902	42.2261	-13.0865	-1.74677
 537	1	4	0.015704	42.9795	-12.5268	-2.77594
 538	1	2	-0.456801	42.6014	-11.7352	-4.95135
 539	1	2	-0.487703	42.6016	-13.4339	-0.639044
 540	1	1	-0.116566	44.4075	-12.4488	-2.73881
 541	1	1	-0.050109	45.0975	-11.556	-1.8765
 542	1	1	0.154929	46.5208	-11.5568	-1.81019
 543	1	1	0.041555	45.1475	-13.4008	-3.47184
 544	1	1	-0.223109	46.5433	-13.413	-3.37636
 545	1	1	-0.080449	47.2409	-12.4533	-2.63119
 546	1	5	-0.108008	44.4836	-14.4809	-4.32514
 547	1	5	-0.182228	48.7808	-12.4697	-2.75881
 548	1	5	-0.345523	44.3113	-10.5289	-1.03938
 549	1	7	0.155183	34.4292	-12.3674	-2.79882
 550	1	7	0.172904	37.8338	-9.64887	-2.82064
 551	1	7	0.158028	36.7502	-8.31294	-1.00548
 552	1	7	0.153129	39.6521	-13.6503	-0.496829
 553	1	7	0.142914	37.4937	-13.0537	-1.56736
 554	1	7	0.135531	39.6945	-11.7811	-5.17363
 555	1	7	0.17765	47.1021	-14.1183	-3.97651
 556	1	9	0.046541	43.7432	-15.04	-3.7389
 557	1	9	0.045238	45.2096	-15.2106	-4.69158
 558	1	9	0.051941	43.9935	-14.0585	-5.21199
 559	1	9	0.087961	49.143	-11.4703	-3.0138
 560	1	9	0.066782	49.1066	-13.1188	-3.58298
 561	1	9	0.075908	49.2687	-12.8063	-1.83762
 562	1	9	0.105172	43.2249	-10.554	-1.23307
 563	1	9	0.115625	44.6522	-9.52237	-1.25543
 564	1	9	0.140296	44.4474	-10.715	0.0245446
 565	1	1	-0.004194	21.0382	-10.3805	-0.625042
 566	1	1	-0.097141	22.0627	-9.39331	-0.513709
 567	1	1	-0.172015	22.5689	-9.15778	0.79184
 568	1	2	-0.377994	18.7763	-12.4431	-0.0908527
 569	1	1	0.033493	20.6399	-11.0686	0.546036
 570	1	1	-0.063739	22.2373	-9.92249	1.92053
 571	1	2	-0.398381	20.7598	-11.7196	3.99005
 572	1	1	0.032144	21.245	-10.8732	1.7704
 573	1	3	0.032313	19.5101	-12.0026	0.766851
 574	1	4	0.461698	19.4527	-12.2437	2.1395
 575	1	3	0.091945	20.526	-11.6701	2.79804
 576	1	1	-0.10563	25.5287	-5.96918	-0.793145
 577	1	5	-0.099376	22.4942	-8.39111	-1.64681
 578	1	1	-0.043296	23.9279	-7.84869	-1.30143
 579	1	1	-0.073043	24.2662	-6.46141	-1.20506
 580	1	1	-0.117827	26.5287	-6.91563	-0.512812
 581	1	1	-0.037562	24.943	-8.75996	-0.932336
 582	1	1	-0.083705	26.2054	-8.27414	-0.537613
 583	1	5	0.396	21.4311	-7.2294	-1.6793
 584	1	5	0.310495	22.5715	-9.0477	-3.05849
 585	1	6	-0.130298	21.7235	-6.27486	-2.60587
 586	1	6	-0.128745	21.3506	-6.64871	-0.462282
 587	1	6	-0.120019	20.1692	-7.65106	-1.95527
 588	1	6	-0.104287	23.0799	-8.18141	-3.96776
 589	1	6	-0.095507	21.3895	-9.54678	-3.52754
 590	1	6	-0.104872	23.3955	-10.1022	-3.00056
 591	1	3	0.456145	27.3729	-9.05397	-0.0663712
 592	1	3	0.550902	27.9509	-6.80037	0.0106992
 593	1	4	0.015704	28.3329	-8.11842	0.284983
 594	1	2	-0.456801	27.3673	-10.2613	0.115429
 595	1	2	-0.487703	28.6817	-5.81723	0.100336
 596	1	1	-0.116566	29.5289	-8.5562	0.925894
 597	1	1	-0.050109	30.6954	-8.89469	0.200647
 598	1	1	0.154929	31.7819	-9.54378	0.828752
 599	1	1	0.041555	29.4504	-8.86164	2.29726
 600	1	1	-0.223109	30.5127	-9.55077	2.90613
 601	1	1	-0.080449	31.675	-9.91478	2.19406
 602	1	5	-0.108008	28.2721	-8.43543	3.16716
 603	1	5	-0.182228	32.8246	-10.6256	2.93679
 604	1	5	-0.345523	30.6869	-8.64301	-1.29776
 605	1	7	0.155183	20.4858	-10.537	-1.53992
 606	1	7	0.172904	23.2417	-8.32317	0.971533
 607	1	7	0.158028	22.6689	-9.72287	2.89802
 608	1	7	0.153129	25.7156	-4.8942	-0.755105
 609	1	7	0.142914	23.5546	-5.67955	-1.43308
 610	1	7	0.135531	24.7595	-9.83276	-0.913266
 611	1	7	0.17765	30.4244	-9.81504	3.95579
 612	1	9	0.046541	27.8685	-7.46629	2.8534
 613	1	9	0.045238	28.5318	-8.30255	4.22626
 614	1	9	0.051941	27.457	-9.15893	3.11587
 615	1	9	0.087961	33.2657	-11.4402	2.35127
 616	1	9	0.066782	32.4849	-11.0717	3.87988
 617	1	9	0.075908	33.6213	-9.91031	3.18256
 618	1	9	0.105172	31.6881	-8.48365	-1.70487
 619	1	9	0.115625	30.1087	-7.752	-1.56923
 620	1	9	0.140296	30.2479	-9.508	-1.80767
 621	1	1	-0.004194	8.73357	-9.01235	8.95811
 622	1	1	-0.097141	9.68507	-9.81204	8.26621
 623	1	1	-0.172015	9.52011	-11.2187	8.30642
 624	1	2	-0.377994	6.58498	-7.91876	10.8806
 625	1	1	0.033493	7.64788	-9.63906	9.5914
 626	1	1	-0.063739	8.40794	-11.8157	8.93908
 627	1	2	-0.398381	5.53743	-12.3662	10.17
 628	1	1	0.032144	7.44097	-10.9975	9.53068
 629	1	3	0.032313	6.57688	-9.05629	10.4449
 630	1	4	0.461698	5.67518	-10.0909	10.7483
 631	1	3	0.091945	6.1319	-11.3044	10.2024
 632	1	1	-0.10563	14.0328	-11.1647	8.35692
 633	1	5	-0.099376	10.7905	-9.23254	7.33325
 634	1	1	-0.043296	12.0353	-10.1971	7.24968
 635	1	1	-0.073043	12.76	-10.549	8.42835
 636	1	1	-0.117827	14.5394	-11.5169	7.095