pySIMM System Object

1252 atoms
1371 bonds
2392 angles
3628 dihedrals
392 impropers

10 atom types
12 bond types
21 angle types
8 dihedral types
4 improper types

-136.636836 136.636836 xlo xhi
-136.636836 136.636836 ylo yhi
-136.636836 136.636836 zlo zhi

Masses

   1	12.01	# ca
   2	16.0	# o
   3	12.01	# c
   4	14.01	# n
   5	12.01	# c3
   6	19.0	# f
   7	1.008	# ha
   8	1.008	# hn
   9	1.008	# hc
  10	16.0	# os

Pair Coeffs

   1	0.086	3.3996695084235347	# ca
   2	0.21	2.959921901149463	# o
   3	0.086	3.3996695084235347	# c
   4	0.17	3.249998523775958	# n
   5	0.1094	3.3996695084235347	# c3
   6	0.061	3.1181455134911875	# f
   7	0.015	2.59964245953351	# ha
   8	0.0157	1.069078461768407	# hn
   9	0.0157	2.649532787749369	# hc
  10	0.17	3.0000123434657784	# os

Bond Coeffs

   1	345.8	1.086	# ca,ha
   2	300.9	1.5375	# c3,c3
   3	637.7	1.2183	# c,o
   4	356.9	1.3497	# c3,f
   5	427.6	1.3789	# c,n
   6	345.9	1.4906	# c,ca
   7	330.6	1.0969	# c3,hc
   8	384.2	1.4121	# ca,n
   9	321.0	1.5156	# c3,ca
  10	403.2	1.0129	# hn,n
  11	461.1	1.3984	# ca,ca
  12	376.6	1.3696	# ca,os

Angle Coeffs

   1	68.72	122.6	# ca,c,o
   2	48.33	117.55	# c,n,hn
   3	67.68	115.25	# ca,c,n
   4	63.15	112.07	# c3,c3,ca
   5	62.86	111.51	# c3,c3,c3
   6	63.82	123.71	# c,n,ca
   7	67.87	120.19	# ca,ca,n
   8	63.53	120.77	# c3,ca,ca
   9	63.56	112.24	# ca,c3,ca
  10	63.74	127.08	# c,n,c
  11	48.18	119.88	# ca,ca,ha
  12	64.28	120.33	# c,ca,ca
  13	70.89	107.36	# f,c3,f
  14	39.4	107.58	# hc,c3,hc
  15	74.22	123.05	# n,c,o
  16	66.11	109.24	# c3,c3,f
  17	46.8	110.47	# ca,c3,hc
  18	66.62	120.02	# ca,ca,ca
  19	63.48	119.89	# ca,os,ca
  20	69.58	119.2	# ca,ca,os
  21	49.75	116.02	# ha,ca,n

Dihedral Coeffs

   1	2	2.5	2	180	2.0	1	0	# hn,n,c,o
   2	1	3.625	2	180	# X,ca,ca,X
   3	1	1.0	2	180	# X,c,ca,X
   4	1	0.15555555555555556	3	0	# X,c3,c3,X
   5	1	0.0	2	0	# X,c3,ca,X
   6	1	2.5	2	180	# X,c,n,X
   7	1	0.45	2	180	# X,ca,n,X
   8	1	0.9	2	180	# X,ca,os,X

Improper Coeffs

   1	1.1	-1	2	# ca,ca,ca,c3
   2	1.1	-1	2	# ca,X,X,ha
   3	1.1	-1	2	# n,X,X,hn
   4	10.5	-1	2	# c,X,X,o

Atoms

   1	1	1	-0.004194	18.5586	-14.7726	29.0893
   2	1	1	-0.097141	19.3126	-13.5976	28.8849
   3	1	1	-0.172015	18.7549	-12.3677	29.3485
   4	1	2	-0.377994	16.7291	-17.0079	30.1486
   5	1	1	0.033493	17.3654	-14.7086	29.8227
   6	1	1	-0.063739	17.5422	-12.3082	30.0652
   7	1	2	-0.398381	15.0964	-12.9621	31.8151
   8	1	1	0.032144	16.887	-13.5181	30.3237
   9	1	3	0.032313	16.5435	-15.8224	30.3863
  10	1	4	0.461698	15.5629	-15.2282	31.2059
  11	1	3	0.091945	15.7397	-13.8178	31.2332
  12	1	1	-0.10563	21.7095	-12.4073	31.8604
  13	1	5	-0.099376	20.7783	-13.6667	28.3634
  14	1	1	-0.043296	21.5821	-12.8876	29.4369
  15	1	1	-0.073043	21.2737	-13.1941	30.7913
  16	1	1	-0.117827	22.5465	-11.3463	31.5608
  17	1	1	-0.037562	22.4202	-11.7688	29.177
  18	1	1	-0.083705	22.9004	-11.0204	30.272
  19	1	5	0.396	21.3991	-15.1229	28.2131
  20	1	5	0.310495	20.7441	-13.0002	26.9496
  21	1	6	-0.130298	22.6714	-15.0712	27.786
  22	1	6	-0.128745	21.4632	-15.8129	29.384
  23	1	6	-0.120019	20.7621	-15.8643	27.2869
  24	1	6	-0.104287	19.8918	-13.6465	26.1263
  25	1	6	-0.095507	21.9432	-12.9795	26.3304
  26	1	6	-0.104872	20.3371	-11.7293	27.0251
  27	1	3	0.456145	23.7283	-9.77666	30.3791
  28	1	3	0.550902	23.1331	-10.3712	32.4887
  29	1	4	0.015704	23.8353	-9.46084	31.7297
  30	1	2	-0.456801	24.1467	-9.09112	29.4707
  31	1	2	-0.487703	22.9517	-10.3802	33.6868
  32	1	1	-0.116566	24.534	-8.31461	32.2866
  33	1	1	-0.050109	25.9534	-8.25315	32.3028
  34	1	1	0.154929	26.6072	-7.16153	32.9228
  35	1	1	0.041555	23.8166	-7.25577	32.9077
  36	1	1	-0.223109	24.4907	-6.17103	33.4949
  37	1	1	-0.080449	25.8808	-6.11939	33.5222
  38	1	5	-0.108008	22.2953	-7.22435	32.9344
  39	1	5	-0.182228	26.5597	-4.94377	34.222
  40	1	5	-0.345523	26.8014	-9.3561	31.6805
  41	1	7	0.155183	18.9095	-15.7626	28.8126
  42	1	7	0.172904	19.3321	-11.4545	29.23
  43	1	7	0.158028	17.1851	-11.3831	30.5049
  44	1	7	0.153129	21.4263	-12.6274	32.8909
  45	1	7	0.142914	20.6086	-14.0255	31.0222
  46	1	7	0.135531	22.6731	-11.4645	28.1683
  47	1	7	0.17765	23.9229	-5.35939	33.9492
  48	1	9	0.046541	21.9003	-7.7975	33.7844
  49	1	9	0.045238	21.8648	-7.6426	32.0162
  50	1	9	0.051941	21.9147	-6.19975	33.0237
  51	1	9	0.087961	26.233	-3.98606	33.7924
  52	1	9	0.066782	27.6532	-4.99488	34.1282
  53	1	9	0.075908	26.3183	-4.93036	35.2907
  54	1	9	0.105172	26.5406	-10.3443	32.0836
  55	1	9	0.115625	27.8752	-9.20151	31.8559
  56	1	9	0.140296	26.6545	-9.38064	30.5907
  57	1	4	0.48116	3.12316	-8.74262	26.4493
  58	1	3	0.034009	2.32146	-9.53562	27.2738
  59	1	1	0.028921	2.8943	-9.40602	28.6203
  60	1	3	0.071556	4.14388	-8.09424	27.1807
  61	1	1	0.025276	3.97195	-8.55771	28.5689
  62	1	2	-0.381907	1.30719	-10.1853	27.0388
  63	1	2	-0.393799	5.06902	-7.38502	26.8106
  64	1	1	-0.008998	2.45378	-10.0115	29.7801
  65	1	1	-0.064503	4.70902	-8.26541	29.7086
  66	1	1	-0.16756	4.30707	-8.91309	30.8938
  67	1	1	-0.085161	3.1759	-9.77345	30.9693
  68	1	7	0.158939	1.59502	-10.6545	29.7016
  69	1	7	0.163781	5.55857	-7.58581	29.7057
  70	1	7	0.161401	4.91058	-8.70908	31.7748
  71	1	5	-0.078003	2.83484	-10.4561	32.32
  72	1	5	0.303704	2.58725	-9.29015	33.3537
  73	1	6	-0.1084	3.74206	-8.83602	33.9278
  74	1	6	-0.101508	1.74435	-9.60944	34.3407
  75	1	6	-0.111714	1.95103	-8.26017	32.7259
  76	1	5	0.380371	1.58598	-11.4143	32.231
  77	1	6	-0.124028	1.74644	-12.3753	31.309
  78	1	6	-0.119704	0.471068	-10.7461	31.8896
  79	1	6	-0.115877	1.33532	-12.0783	33.3719
  80	1	1	-0.024709	4.03841	-11.3395	32.7173
  81	1	1	-0.076489	4.8619	-11.8629	31.6747
  82	1	1	-0.052344	6.09327	-12.4725	31.9828
  83	1	1	-0.054202	4.42	-11.5886	34.0676
  84	1	1	-0.149083	5.66434	-12.1908	34.3563
  85	1	1	-0.063027	6.48103	-12.6267	33.2903
  86	1	3	0.499526	7.76394	-13.4016	33.2821
  87	1	4	-0.036881	8.1817	-13.4147	31.945
  88	1	3	0.443545	7.19864	-12.9435	31.0935
  89	1	1	0.038197	9.4135	-13.8982	31.3711
  90	1	1	-0.408621	10.5353	-13.0994	31.0592
  91	1	1	0.252781	11.7302	-13.6899	30.5834
  92	1	1	-0.169778	9.44306	-15.2283	30.9698
  93	1	1	-0.113042	10.6077	-15.8277	30.4872
  94	1	1	0.016958	11.7725	-15.0751	30.3442
  95	1	7	0.167832	5.99056	-12.3528	35.3882
  96	1	7	0.134138	3.81196	-11.2125	34.8861
  97	1	7	0.145229	4.61386	-11.7195	30.6229
  98	1	2	-0.462312	7.22948	-12.9778	29.8635
  99	1	2	-0.483102	8.33274	-13.847	34.269
 100	1	7	0.144532	10.6079	-16.8868	30.2367
 101	1	7	0.226042	10.5427	-12.0587	31.3586
 102	1	1	0.12103	13.6322	-16.5145	30.8695
 103	1	1	-0.09864	13.552	-17.9045	30.6365
 104	1	1	-0.194398	14.1933	-18.8096	31.4966
 105	1	1	-0.091961	14.9365	-18.3318	32.5738
 106	1	1	-0.197799	15.064	-16.9397	32.7512
 107	1	1	-0.102777	14.5112	-15.9883	31.8551
 108	1	7	0.132074	15.42	-19.0336	33.2386
 109	1	7	0.154044	15.6374	-16.5913	33.6094
 110	1	7	0.145155	12.9504	-18.2846	29.81
 111	1	7	0.14558	14.066	-15.1406	32.3756
 112	1	10	-0.24014	12.9551	-15.676	29.9773
 113	1	7	0.152938	8.55091	-15.8384	31.085
 114	1	7	0.151751	14.1095	-19.8957	31.3343
 115	1	4	0.48116	-1.30692	1.36006	10.4691
 116	1	3	0.034009	0.0727305	1.134	10.7546
 117	1	1	0.028921	0.125853	0.912516	12.212
 118	1	3	0.071556	-2.1252	1.28539	11.6216
 119	1	1	0.025276	-1.13247	1.11497	12.7529
 120	1	2	-0.381907	1.0559	1.08046	10.0294
 121	1	2	-0.393799	-3.34211	1.38657	11.6911
 122	1	1	-0.008998	1.22416	0.609975	13.037
 123	1	1	-0.064503	-1.32727	1.0927	14.1412
 124	1	1	-0.16756	-0.250895	0.778237	15.003
 125	1	1	-0.085161	1.04425	0.524737	14.4558
 126	1	7	0.158939	2.19841	0.546184	12.5738
 127	1	7	0.163781	-2.32158	1.20807	14.54
 128	1	7	0.161401	-0.43059	0.710371	16.0693
 129	1	5	-0.078003	2.24947	0.347965	15.4528
 130	1	5	0.303704	3.6497	-0.116474	14.8198
 131	1	6	-0.1084	4.50255	-0.653777	15.7363
 132	1	6	-0.101508	4.27899	0.913373	14.1749
 133	1	6	-0.111714	3.52673	-1.05678	13.8723
 134	1	5	0.380371	2.43284	1.7686	16.1211
 135	1	6	-0.124028	2.38037	2.73631	15.1375
 136	1	6	-0.119704	3.58007	1.91541	16.835
 137	1	6	-0.115877	1.49174	2.07179	17.0455
 138	1	1	-0.024709	1.81664	-0.717898	16.4822
 139	1	1	-0.076489	2.3262	-0.728161	17.8072
 140	1	1	-0.052344	1.88004	-1.73097	18.6938
 141	1	1	-0.054202	0.92708	-1.75895	16.1101
 142	1	1	-0.149083	0.342318	-2.62569	17.0548
 143	1	1	-0.063027	0.82192	-2.54799	18.3581
 144	1	3	0.499526	0.513191	-3.44371	19.4856
 145	1	4	-0.036881	1.48156	-3.16272	20.4464
 146	1	3	0.443545	2.32979	-2.12901	20.0481
 147	1	1	0.038197	1.66949	-3.96073	21.5999
 148	1	1	-0.408621	2.02644	-3.36198	22.8228
 149	1	1	0.252781	2.45709	-4.15109	23.8956
 150	1	1	-0.169778	1.59829	-5.38147	21.4933
 151	1	1	-0.113042	1.87324	-6.16621	22.6142
 152	1	1	0.016958	2.34305	-5.55655	23.7913
 153	1	7	0.167832	-0.381476	-3.38631	16.7765
 154	1	7	0.134138	0.580506	-1.84607	15.0888
 155	1	7	0.145229	3.11412	-0.051264	18.1266
 156	1	2	-0.462312	3.23864	-1.58381	20.6627
 157	1	2	-0.483102	-0.303173	-4.35771	19.4277
 158	1	7	0.144532	1.75677	-7.24972	22.5351
 159	1	7	0.226042	2.07045	-2.28349	22.9285
 160	1	1	0.12103	3.45906	-7.5371	24.4909
 161	1	1	-0.09864	4.57196	-7.45508	23.6346
 162	1	1	-0.194398	5.22582	-8.62324	23.1962
 163	1	1	-0.091961	4.76281	-9.8654	23.6236
 164	1	1	-0.197799	3.70385	-9.94539	24.53
 165	1	1	-0.102777	3.06267	-8.78704	25.0242
 166	1	7	0.132074	5.26882	-10.7525	23.2836
 167	1	7	0.154044	3.39588	-10.9225	24.9112
 168	1	7	0.145155	4.89008	-6.47232	23.2978
 169	1	7	0.14558	1.98478	-8.8888	24.989
 170	1	10	-0.24014	2.72722	-6.38815	24.8056
 171	1	7	0.152938	1.32929	-5.86863	20.5574
 172	1	7	0.151751	6.02313	-8.57714	22.4564
 173	1	1	-0.004194	-6.7022	10.0145	2.71335
 174	1	1	-0.097141	-5.87848	9.20978	3.5395
 175	1	1	-0.172015	-5.60536	7.86116	3.11416
 176	1	2	-0.377994	-8.54375	11.2742	0.545025
 177	1	1	0.033493	-7.223	9.49508	1.5263
 178	1	1	-0.063739	-6.1084	7.36933	1.88812
 179	1	2	-0.398381	-7.25042	7.15673	-1.03527
 180	1	1	0.032144	-6.92381	8.20832	1.1159
 181	1	3	0.032313	-8.03847	10.1722	0.466839
 182	1	4	0.461698	-8.1676	9.24046	-0.551644
 183	1	3	0.091945	-7.47166	8.07028	-0.265269
 184	1	1	-0.10563	-1.94134	7.69161	4.92003
 185	1	5	-0.099376	-5.33173	9.70739	4.90489
 186	1	1	-0.043296	-4.21177	8.69595	5.33411
 187	1	1	-0.073043	-2.93458	8.67786	4.66248
 188	1	1	-0.117827	-2.26922	6.65812	5.81366
 189	1	1	-0.037562	-4.44244	7.63671	6.26709
 190	1	1	-0.083705	-3.49146	6.61078	6.47142
 191	1	5	0.396	-6.504	9.71961	5.92136
 192	1	5	0.310495	-4.6888	11.1415	4.82824
 193	1	6	-0.130298	-7.20615	8.57796	5.99419
 194	1	6	-0.128745	-7.45343	10.5849	5.54799
 195	1	6	-0.120019	-6.02531	9.97346	7.17873
 196	1	6	-0.104287	-5.47291	12.1724	5.19444
 197	1	6	-0.095507	-4.22659	11.3908	3.58654
 198	1	6	-0.104872	-3.66442	11.2597	5.69699
 199	1	3	0.456145	-3.69845	5.23859	7.12022
 200	1	3	0.550902	-1.5954	5.33763	6.04613
 201	1	4	0.015704	-2.50817	4.55623	6.78835
 202	1	2	-0.456801	-4.70123	4.7521	7.68921
 203	1	2	-0.487703	-0.484305	5.024	5.64464
 204	1	1	-0.116566	-2.22129	3.21588	7.22957
 205	1	1	-0.050109	-1.89078	2.92767	8.59836
 206	1	1	0.154929	-1.80011	1.60739	9.12857
 207	1	1	0.041555	-2.31001	2.11528	6.331
 208	1	1	-0.223109	-2.15175	0.830632	6.84685
 209	1	1	-0.080449	-1.99523	0.547924	8.22263
 210	1	5	-0.108008	-2.48908	2.14634	4.82101
 211	1	5	-0.182228	-1.88851	-0.921778	8.64157
 212	1	5	-0.345523	-1.7838	4.06918	9.56939
 213	1	7	0.155183	-6.974	11.0258	3.00422
 214	1	7	0.172904	-5.03021	7.15672	3.7021
 215	1	7	0.158028	-5.82598	6.39856	1.5232
 216	1	7	0.153129	-0.980782	7.67718	4.40099
 217	1	7	0.142914	-2.71187	9.41701	3.89155
 218	1	7	0.135531	-5.36175	7.54077	6.82824
 219	1	7	0.17765	-2.22539	-0.0151356	6.17485
 220	1	9	0.046541	-1.55356	1.84878	4.32837
 221	1	9	0.045238	-2.7807	3.12996	4.43175
 222	1	9	0.051941	-3.26387	1.4649	4.46548
 223	1	9	0.087961	-1.08279	-1.10729	9.3621
 224	1	9	0.066782	-1.68572	-1.56429	7.78144
 225	1	9	0.075908	-2.85398	-1.23965	9.04081
 226	1	9	0.105172	-1.1409	4.86046	9.17661
 227	1	9	0.115625	-1.40884	3.81285	10.573
 228	1	9	0.140296	-2.76499	4.54826	9.72288
 229	1	1	-0.004194	-18.6518	4.43182	-3.71525
 230	1	1	-0.097141	-17.3928	4.47424	-4.39147
 231	1	1	-0.172015	-17.393	4.87401	-5.76216
 232	1	2	-0.377994	-21.6426	4.42921	-2.87842
 233	1	1	0.033493	-19.8167	4.74697	-4.42728
 234	1	1	-0.063739	-18.5798	5.22333	-6.43749
 235	1	2	-0.398381	-21.4925	5.95158	-7.28825
 236	1	1	0.032144	-19.7892	5.13009	-5.751
 237	1	3	0.032313	-21.2321	4.77137	-3.97846
 238	1	4	0.461698	-21.9744	5.28175	-5.05882
 239	1	3	0.091945	-21.1677	5.52635	-6.1836
 240	1	1	-0.10563	-15.0088	7.88345	-4.47394
 241	1	5	-0.099376	-16.0199	4.199	-3.6705
 242	1	1	-0.043296	-15.0985	5.44746	-3.97383
 243	1	1	-0.073043	-15.7221	6.71144	-4.18835
 244	1	1	-0.117827	-13.6215	7.82172	-4.4369
 245	1	1	-0.037562	-13.6716	5.4363	-4.01458
 246	1	1	-0.083705	-12.9581	6.64138	-4.24558
 247	1	5	0.396	-15.4663	2.83097	-4.22857
 248	1	5	0.310495	-16.1811	4.04875	-2.10064
 249	1	6	-0.130298	-14.9857	3.0247	-5.46786
 250	1	6	-0.128745	-16.4247	1.87318	-4.32459
 251	1	6	-0.120019	-14.476	2.28189	-3.48286
 252	1	6	-0.104287	-15.0199	3.98236	-1.41519
 253	1	6	-0.095507	-16.9157	3.00225	-1.65545
 254	1	6	-0.104872	-16.8384	5.11049	-1.64354
 255	1	3	0.456145	-11.4951	6.97389	-4.16894
 256	1	3	0.550902	-12.6386	8.93146	-4.44723
 257	1	4	0.015704	-11.3917	8.3676	-4.19706
 258	1	2	-0.456801	-10.5791	6.18002	-4.02531
 259	1	2	-0.487703	-12.9682	10.0978	-4.51656
 260	1	1	-0.116566	-10.2289	9.0698	-3.71461
 261	1	1	-0.050109	-9.88799	8.97283	-2.31732
 262	1	1	0.154929	-8.64547	9.5099	-1.86039
 263	1	1	0.041555	-9.32268	9.69874	-4.61785
 264	1	1	-0.223109	-8.1091	10.2071	-4.13165
 265	1	1	-0.080449	-7.73653	10.0728	-2.78207
 266	1	5	-0.108008	-9.50916	9.75982	-6.13508
 267	1	5	-0.182228	-6.33614	10.5203	-2.34263
 268	1	5	-0.345523	-10.817	8.28459	-1.27756
 269	1	7	0.155183	-18.7722	4.17294	-2.66721
 270	1	7	0.172904	-16.4453	4.94329	-6.30429
 271	1	7	0.158028	-18.5672	5.55649	-7.47575
 272	1	7	0.153129	-15.5214	8.84038	-4.56446
 273	1	7	0.142914	-16.7973	6.82614	-4.08061
 274	1	7	0.135531	-13.131	4.51223	-3.8344
 275	1	7	0.17765	-7.4274	10.6774	-4.82414
 276	1	9	0.046541	-10.108	10.6445	-6.39824
 277	1	9	0.045238	-10.0127	8.86729	-6.52282
 278	1	9	0.051941	-8.55608	9.82317	-6.6749
 279	1	9	0.087961	-6.37474	11.2103	-1.5002
 280	1	9	0.066782	-5.81986	11.027	-3.16338
 281	1	9	0.075908	-5.71184	9.6648	-2.07382
 282	1	9	0.105172	-10.9598	8.92845	-0.403327
 283	1	9	0.115625	-10.3568	7.34738	-0.926214
 284	1	9	0.140296	-11.8187	8.04247	-1.64782
 285	1	4	0.48116	-10.9298	6.27801	2.84969
 286	1	3	0.034009	-10.9618	7.54396	2.25735
 287	1	1	0.028921	-12.3669	8.00075	2.35455
 288	1	3	0.071556	-12.1816	5.90842	3.3725
 289	1	1	0.025276	-13.0857	7.04593	3.0365
 290	1	2	-0.381907	-10.0442	8.21038	1.80174
 291	1	2	-0.393799	-12.4849	4.9541	4.07466
 292	1	1	-0.008998	-12.937	9.20909	1.9607
 293	1	1	-0.064503	-14.4276	7.26125	3.36665
 294	1	1	-0.16756	-15.0376	8.46614	2.96325
 295	1	1	-0.085161	-14.2992	9.46822	2.27195
 296	1	7	0.158939	-12.2847	9.91736	1.46566
 297	1	7	0.163781	-14.9792	6.51765	3.93959
 298	1	7	0.161401	-16.0684	8.64916	3.26349
 299	1	5	-0.078003	-14.9038	10.8759	2.01807
 300	1	5	0.303704	-14.7248	11.7137	3.33644
 301	1	6	-0.1084	-15.5375	11.2588	4.31695
 302	1	6	-0.101508	-15.0157	13.0106	3.12777
 303	1	6	-0.111714	-13.4715	11.6638	3.8422
 304	1	5	0.380371	-14.1921	11.6039	0.825509
 305	1	6	-0.124028	-14.838	12.7047	0.365618
 306	1	6	-0.119704	-14.102	10.7077	-0.195442
 307	1	6	-0.115877	-12.9686	12.0794	1.12567
 308	1	1	-0.024709	-16.3691	10.7327	1.51286
 309	1	1	-0.076489	-16.645	9.7101	0.564238
 310	1	1	-0.052344	-17.9105	9.65396	-0.0268693
 311	1	1	-0.054202	-17.4105	11.6505	1.84134
 312	1	1	-0.149083	-18.6942	11.5431	1.27588
 313	1	1	-0.063027	-18.9113	10.5313	0.336438
 314	1	3	0.499526	-20.142	10.1738	-0.406908
 315	1	4	-0.036881	-19.8058	9.05682	-1.16512
 316	1	3	0.443545	-18.4642	8.70117	-1.02147
 317	1	1	0.038197	-20.7031	8.5017	-2.11807
 318	1	1	-0.408621	-20.4317	8.69058	-3.4812
 319	1	1	0.252781	-21.449	8.4541	-4.41655
 320	1	1	-0.169778	-21.9384	7.95382	-1.71432
 321	1	1	-0.113042	-22.9384	7.66033	-2.66455
 322	1	1	0.016958	-22.7095	7.99213	-4.01087
 323	1	7	0.167832	-19.4894	12.2284	1.55841
 324	1	7	0.134138	-17.2432	12.4559	2.54757
 325	1	7	0.145229	-15.8837	8.99742	0.250961
 326	1	2	-0.462312	-17.8234	7.84992	-1.61602
 327	1	2	-0.483102	-21.2277	10.7284	-0.3089
 328	1	7	0.144532	-23.897	7.25258	-2.35659
 329	1	7	0.226042	-19.4836	9.11063	-3.80259
 330	1	1	0.12103	-23.9203	6.57187	-5.58034
 331	1	1	-0.09864	-24.8337	6.58955	-6.65406
 332	1	1	-0.194398	-25.2729	5.38936	-7.21791
 333	1	1	-0.091961	-24.7961	4.17668	-6.69811
 334	1	1	-0.197799	-23.9	4.16452	-5.61673
 335	1	1	-0.102777	-23.4108	5.36047	-5.05725
 336	1	7	0.132074	-25.1212	3.23721	-7.13556
 337	1	7	0.154044	-23.5428	3.207	-5.23711
 338	1	7	0.145155	-25.2256	7.53056	-7.0282
 339	1	7	0.14558	-23.5484	5.35511	-3.98259
 340	1	10	-0.24014	-23.6587	7.78419	-4.97482
 341	1	7	0.152938	-22.144	7.83138	-0.653883
 342	1	7	0.151751	-25.9336	5.40462	-8.08247
 343	1	1	-0.004194	-3.37708	2.413	-5.43415
 344	1	1	-0.097141	-3.90496	1.7673	-4.2888
 345	1	1	-0.172015	-3.04068	1.61841	-3.15798
 346	1	2	-0.377994	-2.07118	4.31379	-7.39451
 347	1	1	0.033493	-2.13516	3.01103	-5.36724
 348	1	1	-0.063739	-1.71422	2.11142	-3.15398
 349	1	2	-0.398381	0.823984	3.74314	-3.73395
 350	1	1	0.032144	-1.31379	2.85827	-4.27389
 351	1	3	0.032313	-1.57246	3.98842	-6.32543
 352	1	4	0.461698	-0.385999	4.39536	-5.70811
 353	1	3	0.091945	-0.1291	3.70482	-4.50319
 354	1	1	-0.10563	-7.53695	0.467793	-1.11611
 355	1	5	-0.099376	-5.4058	1.31161	-4.30062
 356	1	1	-0.043296	-6.00729	1.32058	-2.86785
 357	1	1	-0.073043	-6.88331	0.307858	-2.35891
 358	1	1	-0.117827	-7.31382	1.63931	-0.398525
 359	1	1	-0.037562	-5.77977	2.47259	-2.08403
 360	1	1	-0.083705	-6.41913	2.57457	-0.843639
 361	1	5	0.396	-5.46842	-0.117747	-4.95326
 362	1	5	0.310495	-6.26368	2.36619	-5.12196
 363	1	6	-0.130298	-4.76988	-0.994723	-4.18749
 364	1	6	-0.128745	-4.86876	-0.148437	-6.16221
 365	1	6	-0.120019	-6.73899	-0.58074	-5.12872
 366	1	6	-0.104287	-7.56429	2.39344	-4.73253
 367	1	6	-0.095507	-5.8466	3.64841	-4.9007
 368	1	6	-0.104872	-6.2629	2.13685	-6.46119
 369	1	3	0.456145	-6.40242	3.68552	0.141061
 370	1	3	0.550902	-7.90025	2.12597	0.868024
 371	1	4	0.015704	-7.34849	3.37162	1.09643
 372	1	2	-0.456801	-5.64738	4.63184	0.118963
 373	1	2	-0.487703	-8.64996	1.50918	1.59081
 374	1	1	-0.116566	-7.81616	4.23367	2.12962
 375	1	1	-0.050109	-9.07521	4.85995	1.93634
 376	1	1	0.154929	-9.69547	5.56305	3.01149
 377	1	1	0.041555	-7.16049	4.31084	3.38317
 378	1	1	-0.223109	-7.75211	5.05265	4.40953
 379	1	1	-0.080449	-9.01449	5.65021	4.25366
 380	1	5	-0.108008	-5.76379	3.72106	3.6288
 381	1	5	-0.182228	-9.55116	6.48615	5.42285
 382	1	5	-0.345523	-9.7759	4.70189	0.57216
 383	1	7	0.155183	-3.94671	2.59521	-6.33789
 384	1	7	0.172904	-3.38881	1.10398	-2.26042
 385	1	7	0.158028	-1.07172	2.01804	-2.27876
 386	1	7	0.153129	-8.22444	-0.275369	-0.731426
 387	1	7	0.142914	-7.08855	-0.605259	-2.89973
 388	1	7	0.135531	-5.16004	3.29109	-2.43601
 389	1	7	0.17765	-7.22176	5.15253	5.34491
 390	1	9	0.046541	-5.54844	2.92098	2.91579
 391	1	9	0.045238	-5.66948	3.28961	4.63438
 392	1	9	0.051941	-4.99067	4.49009	3.4997
 393	1	9	0.087961	-9.55472	7.55419	5.16116
 394	1	9	0.066782	-8.93896	6.36371	6.32607
 395	1	9	0.075908	-10.5742	6.22001	5.69625
 396	1	9	0.105172	-9.13665	5.05823	-0.246981
 397	1	9	0.115625	-10.731	5.23243	0.503016
 398	1	9	0.140296	-10.0137	3.64598	0.369348
 399	1	4	0.48116	-14.0988	9.67343	-10.7969
 400	1	3	0.034009	-12.8603	9.88817	-10.1492
 401	1	1	0.028921	-12.0983	10.7736	-11.0539
 402	1	3	0.071556	-14.2077	10.3954	-11.9928
 403	1	1	0.025276	-12.9295	11.1126	-12.1027
 404	1	2	-0.381907	-12.4433	9.5014	-9.06824
 405	1	2	-0.393799	-15.1615	10.5134	-12.7562
 406	1	1	-0.008998	-10.8059	11.3224	-10.9267
 407	1	1	-0.064503	-12.5813	12.0984	-13.0103
 408	1	1	-0.16756	-11.3247	12.701	-12.8667
 409	1	1	-0.085161	-10.3939	12.3209	-11.8529
 410	1	7	0.158939	-10.1619	10.9812	-10.1194
 411	1	7	0.163781	-13.2776	12.415	-13.7885
 412	1	7	0.161401	-11.0944	13.4593	-13.6014
 413	1	5	-0.078003	-8.95664	12.9274	-11.8659
 414	1	5	0.303704	-8.3222	12.3664	-13.2196
 415	1	6	-0.1084	-7.00241	12.6367	-13.3239
 416	1	6	-0.101508	-8.94083	12.8432	-14.3392
 417	1	6	-0.111714	-8.43196	11.0143	-13.2996
 418	1	5	0.380371	-8.97283	14.521	-11.9478
 419	1	6	-0.124028	-9.69302	15.1253	-10.9672
 420	1	6	-0.119704	-9.51563	15.0058	-13.0933
 421	1	6	-0.115877	-7.72228	15.0517	-11.8715
 422	1	1	-0.024709	-8.14704	12.4909	-10.5821
 423	1	1	-0.076489	-7.09407	11.5412	-10.6418
 424	1	1	-0.052344	-6.3515	11.2058	-9.49861
 425	1	1	-0.054202	-8.42121	13.0264	-9.29291
 426	1	1	-0.149083	-7.67987	12.6666	-8.14759
 427	1	1	-0.063027	-6.64187	11.7469	-8.27583
 428	1	3	0.499526	-5.62782	11.2888	-7.28068
 429	1	4	-0.036881	-4.80148	10.3987	-7.96374
 430	1	3	0.443545	-5.15939	10.327	-9.31774
 431	1	1	0.038197	-3.83622	9.51823	-7.3185
 432	1	1	-0.408621	-2.68688	10.0228	-6.65555
 433	1	1	0.252781	-1.79214	9.18925	-5.93723
 434	1	1	-0.169778	-4.02878	8.11136	-7.23782
 435	1	1	-0.113042	-3.09839	7.25775	-6.58391
 436	1	1	0.016958	-1.98845	7.79262	-5.90322
 437	1	7	0.167832	-7.9006	13.1054	-7.18384
 438	1	7	0.134138	-9.2338	13.733	-9.15089
 439	1	7	0.145229	-6.80815	11.0499	-11.5625
 440	1	2	-0.462312	-4.65003	9.65875	-10.2007
 441	1	2	-0.483102	-5.553	11.6219	-6.10897
 442	1	7	0.144532	-3.29992	6.19494	-6.56558
 443	1	7	0.226042	-2.48875	11.0975	-6.67149
 444	1	1	0.12103	0.145088	6.68497	-5.5547
 445	1	1	-0.09864	1.17594	7.62121	-5.36065
 446	1	1	-0.194398	2.51068	7.26705	-5.65595
 447	1	1	-0.091961	2.8152	5.98709	-6.14968
 448	1	1	-0.197799	1.78432	5.08482	-6.38505
 449	1	1	-0.102777	0.428867	5.45345	-6.18546
 450	1	7	0.132074	3.84676	5.70583	-6.35669
 451	1	7	0.154044	2.03919	4.08812	-6.73509
 452	1	7	0.145155	0.943402	8.58027	-4.90277
 453	1	7	0.14558	0.00820381	5.53215	-7.18403
 454	1	10	-0.24014	-1.1492	6.97221	-5.16791
 455	1	7	0.152938	-4.89462	7.64788	-7.71136
 456	1	7	0.151751	3.32925	7.95976	-5.45915
 457	1	4	0.48116	-25.7932	10.7107	-9.85285
 458	1	3	0.034009	-25.6946	10.7997	-8.46336
 459	1	1	0.028921	-25.7807	12.2295	-8.13835
 460	1	3	0.071556	-25.8231	11.9653	-10.4402
 461	1	1	0.025276	-25.8628	12.9174	-9.32234
 462	1	2	-0.381907	-25.4896	9.93698	-7.63424
 463	1	2	-0.393799	-25.6784	12.2477	-11.606
 464	1	1	-0.008998	-25.5771	12.8565	-6.90944
 465	1	1	-0.064503	-25.9007	14.2974	-9.3462
 466	1	1	-0.16756	-25.7611	14.9699	-8.11642
 467	1	1	-0.085161	-25.579	14.2719	-6.87694
 468	1	7	0.158939	-25.4035	12.2454	-6.02887
 469	1	7	0.163781	-25.9988	14.843	-10.2785
 470	1	7	0.161401	-25.7296	16.0523	-8.1732
 471	1	5	-0.078003	-25.2975	14.9465	-5.50916
 472	1	5	0.303704	-25.2086	16.5037	-5.60832
 473	1	6	-0.1084	-24.1846	16.8955	-6.39161
 474	1	6	-0.101508	-24.9568	17.0831	-4.40385
 475	1	6	-0.111714	-26.353	17.0296	-6.1326
 476	1	5	0.380371	-26.5145	14.6116	-4.57967
 477	1	6	-0.124028	-26.5148	15.2835	-3.41623
 478	1	6	-0.119704	-26.55	13.3021	-4.22052
 479	1	6	-0.115877	-27.6617	14.9192	-5.23338
 480	1	1	-0.024709	-23.9144	14.4426	-5.01974
 481	1	1	-0.076489	-22.8909	14.4179	-5.98924
 482	1	1	-0.052344	-21.6073	14.0399	-5.61747
 483	1	1	-0.054202	-23.5792	14.1131	-3.67455
 484	1	1	-0.149083	-22.2694	13.7056	-3.31793
 485	1	1	-0.063027	-21.3064	13.6556	-4.32751
 486	1	3	0.499526	-19.9046	13.133	-4.32783
 487	1	4	-0.036881	-19.4727	13.2438	-5.6276
 488	1	3	0.443545	-20.4062	13.8387	-6.46157
 489	1	1	0.038197	-18.3554	12.5607	-6.15498
 490	1	1	-0.408621	-17.4509	13.2718	-6.94338
 491	1	1	0.252781	-16.5748	12.5864	-7.79971
 492	1	1	-0.169778	-18.2817	11.1547	-6.09608
 493	1	1	-0.113042	-17.3593	10.4629	-6.91501
 494	1	1	0.016958	-16.5365	11.1836	-7.80486
 495	1	7	0.167832	-22.0245	13.406	-2.30144
 496	1	7	0.134138	-24.3265	14.1507	-2.8949
 497	1	7	0.145229	-23.0786	14.6679	-7.02662
 498	1	2	-0.462312	-20.347	13.9742	-7.67502
 499	1	2	-0.483102	-19.2695	12.641	-3.40988
 500	1	7	0.144532	-17.3522	9.37552	-6.93963
 501	1	7	0.226042	-17.5498	14.3504	-7.03311
 502	1	1	0.12103	-16.1786	9.63296	-9.67426
 503	1	1	-0.09864	-17.5458	9.3472	-9.84394
 504	1	1	-0.194398	-17.9698	8.36633	-10.7521
 505	1	1	-0.091961	-17.0062	7.65372	-11.467
 506	1	1	-0.197799	-15.6419	7.90422	-11.2658
 507	1	1	-0.102777	-15.1937	8.87733	-10.3362
 508	1	7	0.132074	-17.3222	6.89055	-12.1813
 509	1	7	0.154044	-14.9213	7.33818	-11.8506
 510	1	7	0.145155	-18.2919	9.91765	-9.30015
 511	1	7	0.14558	-14.6244	8.37629	-9.56285
 512	1	10	-0.24014	-15.74	10.5589	-8.74528
 513	1	7	0.152938	-19.0098	10.6043	-5.51264
 514	1	7	0.151751	-19.0307	8.17453	-10.908
 515	1	1	-0.004194	-17.2618	4.00219	-10.0004
 516	1	1	-0.097141	-17.6423	2.85589	-10.7425
 517	1	1	-0.172015	-16.6059	2.06664	-11.3196
 518	1	2	-0.377994	-15.7423	6.19909	-8.3771
 519	1	1	0.033493	-15.8949	4.34901	-9.94937
 520	1	1	-0.063739	-15.2377	2.39707	-11.2139
 521	1	2	-0.398381	-12.51	3.48557	-10.2354
 522	1	1	0.032144	-14.9057	3.57225	-10.5241
 523	1	3	0.032313	-15.2141	5.40841	-9.13214
 524	1	4	0.461698	-13.8536	5.14748	-9.23418
 525	1	3	0.091945	-13.5664	4.05573	-10.0669
 526	1	1	-0.10563	-20.3037	5.65269	-12.6648
 527	1	5	-0.099376	-19.1394	2.44862	-10.8019
 528	1	1	-0.043296	-20.0072	3.70272	-11.1627
 529	1	1	-0.073043	-19.5481	4.55303	-12.2044
 530	1	1	-0.117827	-21.5812	5.83591	-12.124
 531	1	1	-0.037562	-21.3161	3.94203	-10.6188
 532	1	1	-0.083705	-22.0974	5.00139	-11.1565
 533	1	5	0.396	-19.4187	1.82165	-9.39073
 534	1	5	0.310495	-19.4526	1.37504	-11.9206
 535	1	6	-0.130298	-20.5655	1.12611	-9.39149
 536	1	6	-0.128745	-18.4111	0.984039	-8.98171
 537	1	6	-0.120019	-19.5746	2.79376	-8.47154
 538	1	6	-0.104287	-20.7661	1.1643	-12.0483
 539	1	6	-0.095507	-18.9094	0.163481	-11.6896
 540	1	6	-0.104872	-19.0484	1.77105	-13.1411
 541	1	3	0.456145	-23.4754	5.51462	-10.831
 542	1	3	0.550902	-22.5591	6.92523	-12.4076
 543	1	4	0.015704	-23.669	6.6236	-11.6254
 544	1	2	-0.456801	-24.3077	4.9873	-10.1188
 545	1	2	-0.487703	-22.2862	7.9827	-12.9626
 546	1	1	-0.116566	-24.8125	7.4656	-11.5282
 547	1	1	-0.050109	-24.7451	8.60708	-10.6822
 548	1	1	0.154929	-25.8511	9.49246	-10.6069
 549	1	1	0.041555	-25.9615	7.2	-12.3073
 550	1	1	-0.223109	-27.0108	8.12577	-12.2816
 551	1	1	-0.080449	-26.9736	9.24581	-11.4384
 552	1	5	-0.108008	-26.1633	5.96556	-13.1916
 553	1	5	-0.182228	-28.1769	10.157	-11.4394
 554	1	5	-0.345523	-23.428	8.92771	-9.94955
 555	1	7	0.155183	-18.001	4.61224	-9.49011
 556	1	7	0.172904	-16.8295	1.14111	-11.8512
 557	1	7	0.158028	-14.444	1.7501	-11.5976
 558	1	7	0.153129	-19.8828	6.35516	-13.3883
 559	1	7	0.142914	-18.5756	4.38212	-12.6659
 560	1	7	0.135531	-21.7349	3.31361	-9.83523
 561	1	7	0.17765	-27.8952	7.97655	-12.899
 562	1	9	0.046541	-27.22	5.64676	-13.2195
 563	1	9	0.045238	-25.572	5.09899	-12.8737
 564	1	9	0.051941	-25.8749	6.2089	-14.2225
 565	1	9	0.087961	-28.0307	11.0144	-12.1151
 566	1	9	0.066782	-28.3829	10.5534	-10.4223
 567	1	9	0.075908	-29.0966	9.6375	-11.7889
 568	1	9	0.105172	-22.9706	8.02823	-9.50978
 569	1	9	0.115625	-23.5045	9.6353	-9.11811
 570	1	9	0.140296	-22.7184	9.35847	-10.6692
 571	1	4	0.48116	1.95773	3.25606	-11.759
 572	1	3	0.034009	1.2907	4.46473	-11.8191
 573	1	1	0.028921	0.955774	4.59181	-13.2533
 574	1	3	0.071556	2.20636	2.69448	-13.0003
 575	1	1	0.025276	1.5052	3.56349	-13.9729
 576	1	2	-0.381907	0.82951	5.09685	-10.8805
 577	1	2	-0.393799	2.71664	1.60292	-13.2172
 578	1	1	-0.008998	-0.0712198	5.37606	-13.7822
 579	1	1	-0.064503	1.11655	3.27491	-15.2743
 580	1	1	-0.16756	0.111774	4.07389	-15.8584
 581	1	1	-0.085161	-0.504983	5.13839	-15.1178
 582	1	7	0.158939	-0.562392	6.1023	-13.1309
 583	1	7	0.163781	1.54107	2.42264	-15.8095
 584	1	7	0.161401	-0.191506	3.83173	-16.8547
 585	1	5	-0.078003	-1.68123	6.00241	-15.6884
 586	1	5	0.303704	-2.18778	5.55579	-17.0967
 587	1	6	-0.1084	-2.50994	4.25961	-17.143
 588	1	6	-0.101508	-1.18863	5.71929	-17.999
 589	1	6	-0.111714	-3.32056	6.21506	-17.5337
 590	1	5	0.380371	-1.14024	7.4863	-15.8247
 591	1	6	-0.124028	-1.87612	8.31685	-16.5972
 592	1	6	-0.119704	0.107972	7.53758	-16.3395
 593	1	6	-0.115877	-1.05432	8.05678	-14.6143
 594	1	1	-0.024709	-2.92475	5.87169	-14.7582
 595	1	1	-0.076489	-3.94406	6.84963	-14.7847
 596	1	1	-0.052344	-5.00165	6.77415	-13.8752
 597	1	1	-0.054202	-3.10341	4.76244	-13.8857
 598	1	1	-0.149083	-4.10127	4.75504	-12.8707
 599	1	1	-0.063027	-5.0322	5.79683	-12.913
 600	1	3	0.499526	-6.228	6.02965	-12.0389
 601	1	4	-0.036881	-6.84986	7.12912	-12.5825
 602	1	3	0.443545	-6.19041	7.65087	-13.6823
 603	1	1	0.038197	-8.17284	7.35115	-12.2536
 604	1	1	-0.408621	-8.47816	8.03428	-11.0706
 605	1	1	0.252781	-9.77825	7.94478	-10.537
 606	1	1	-0.169778	-9.18479	6.64486	-12.9442
 607	1	1	-0.113042	-10.471	6.50217	-12.3617
 608	1	1	0.016958	-10.7354	7.09918	-11.113
 609	1	7	0.167832	-4.16214	3.95042	-12.1391
 610	1	7	0.134138	-2.37214	3.95222	-13.8735
 611	1	7	0.145229	-3.90127	7.68165	-15.4859
 612	1	2	-0.462312	-6.58907	8.52071	-14.4517
 613	1	2	-0.483102	-6.6094	5.36449	-11.0821
 614	1	7	0.144532	-11.172	5.79239	-12.7905
 615	1	7	0.226042	-7.69429	8.49561	-10.4868
 616	1	1	0.12103	-11.6699	6.08256	-9.06962
 617	1	1	-0.09864	-10.4264	5.73835	-8.47163
 618	1	1	-0.194398	-10.4185	5.14617	-7.18498
 619	1	1	-0.091961	-11.6207	4.81612	-6.54643
 620	1	1	-0.197799	-12.8207	5.18958	-7.14122
 621	1	1	-0.102777	-12.8897	5.7961	-8.4065
 622	1	7	0.132074	-11.6003	4.27781	-5.59372
 623	1	7	0.154044	-13.7461	4.93705	-6.628
 624	1	7	0.145155	-9.4907	5.87887	-9.01362
 625	1	7	0.14558	-13.4292	6.73365	-8.31774
 626	1	10	-0.24014	-11.7766	6.66481	-10.3224
 627	1	7	0.152938	-8.92177	6.05309	-13.8301
 628	1	7	0.151751	-9.46361	4.89289	-6.74276
 629	1	1	-0.004194	-5.41767	-5.80502	-5.68677
 630	1	1	-0.097141	-4.7996	-4.8003	-6.46794
 631	1	1	-0.172015	-5.61582	-3.72479	-6.94021
 632	1	2	-0.377994	-7.1803	-7.33674	-3.70389
 633	1	1	0.033493	-6.70541	-5.58165	-5.19428
 634	1	1	-0.063739	-6.97048	-3.59767	-6.57336
 635	1	2	-0.398381	-9.75461	-3.88501	-5.26199
 636	1	1	0.032144	-7.43992	-4.5093	-5.62711
 637	1	3	0.032313	-7.57867	-6.39057	-4.33141
 638	1	4	0.461698	-8.82524	-5.83489	-4.3685