pySIMM System Object

624 atoms
682 bonds
1192 angles
1796 dihedrals
192 impropers

10 atom types
12 bond types
21 angle types
8 dihedral types
4 improper types

-108.448728 108.448728 xlo xhi
-108.448728 108.448728 ylo yhi
-108.448728 108.448728 zlo zhi

Masses

   1	12.01	# ca
   2	16.0	# o
   3	12.01	# c
   4	14.01	# n
   5	12.01	# c3
   6	19.0	# f
   7	1.008	# ha
   8	1.008	# hn
   9	1.008	# hc
  10	16.0	# os

Pair Coeffs

   1	0.086	3.3996695084235347	# ca
   2	0.21	2.959921901149463	# o
   3	0.086	3.3996695084235347	# c
   4	0.17	3.249998523775958	# n
   5	0.1094	3.3996695084235347	# c3
   6	0.061	3.1181455134911875	# f
   7	0.015	2.59964245953351	# ha
   8	0.0157	1.069078461768407	# hn
   9	0.0157	2.649532787749369	# hc
  10	0.17	3.0000123434657784	# os

Bond Coeffs

   1	345.8	1.086	# ca,ha
   2	300.9	1.5375	# c3,c3
   3	637.7	1.2183	# c,o
   4	356.9	1.3497	# c3,f
   5	427.6	1.3789	# c,n
   6	345.9	1.4906	# c,ca
   7	330.6	1.0969	# c3,hc
   8	384.2	1.4121	# ca,n
   9	321.0	1.5156	# c3,ca
  10	403.2	1.0129	# hn,n
  11	461.1	1.3984	# ca,ca
  12	376.6	1.3696	# ca,os

Angle Coeffs

   1	68.72	122.6	# ca,c,o
   2	48.33	117.55	# c,n,hn
   3	67.68	115.25	# ca,c,n
   4	63.15	112.07	# c3,c3,ca
   5	62.86	111.51	# c3,c3,c3
   6	63.82	123.71	# c,n,ca
   7	67.87	120.19	# ca,ca,n
   8	63.53	120.77	# c3,ca,ca
   9	63.56	112.24	# ca,c3,ca
  10	63.74	127.08	# c,n,c
  11	48.18	119.88	# ca,ca,ha
  12	64.28	120.33	# c,ca,ca
  13	70.89	107.36	# f,c3,f
  14	39.4	107.58	# hc,c3,hc
  15	74.22	123.05	# n,c,o
  16	66.11	109.24	# c3,c3,f
  17	46.8	110.47	# ca,c3,hc
  18	66.62	120.02	# ca,ca,ca
  19	63.48	119.89	# ca,os,ca
  20	69.58	119.2	# ca,ca,os
  21	49.75	116.02	# ha,ca,n

Dihedral Coeffs

   1	2	2.5	2	180	2.0	1	0	# hn,n,c,o
   2	1	3.625	2	180	# X,ca,ca,X
   3	1	1.0	2	180	# X,c,ca,X
   4	1	0.15555555555555556	3	0	# X,c3,c3,X
   5	1	0.0	2	0	# X,c3,ca,X
   6	1	2.5	2	180	# X,c,n,X
   7	1	0.45	2	180	# X,ca,n,X
   8	1	0.9	2	180	# X,ca,os,X

Improper Coeffs

   1	1.1	-1	2	# ca,ca,ca,c3
   2	1.1	-1	2	# ca,X,X,ha
   3	1.1	-1	2	# n,X,X,hn
   4	10.5	-1	2	# c,X,X,o

Atoms

   1	1	1	-0.004194	23.4358	16.9982	0.153984
   2	1	1	-0.097141	24.5436	17.6907	-0.425751
   3	1	1	-0.172015	24.3618	18.4204	-1.63632
   4	1	2	-0.377994	20.6265	16.1171	1.03636
   5	1	1	0.033493	22.1885	17.0698	-0.470899
   6	1	1	-0.063739	23.1007	18.5255	-2.2161
   7	1	2	-0.398381	20.1825	18.5002	-2.89727
   8	1	1	0.032144	22.0403	17.8173	-1.6214
   9	1	3	0.032313	20.8675	16.6237	-0.0269121
  10	1	4	0.461698	19.9896	17.1647	-0.949349
  11	1	3	0.091945	20.6328	17.8523	-1.98414
  12	1	1	-0.10563	29.2786	18.9942	-1.14748
  13	1	5	-0.099376	25.8467	17.9675	0.354662
  14	1	1	-0.043296	27.0767	18.0185	-0.634503
  15	1	1	-0.073043	28.0165	19.0753	-0.547889
  16	1	1	-0.117827	29.5268	17.9428	-2.01017
  17	1	1	-0.037562	27.3816	16.9133	-1.50091
  18	1	1	-0.083705	28.6093	16.9231	-2.20002
  19	1	5	0.396	26.1107	16.8831	1.46392
  20	1	5	0.310495	25.5171	19.3455	1.04158
  21	1	6	-0.130298	25.2876	16.974	2.51887
  22	1	6	-0.128745	27.3221	17.0018	2.0022
  23	1	6	-0.120019	25.9806	15.6007	0.992689
  24	1	6	-0.104287	25.3786	20.2526	0.0838941
  25	1	6	-0.095507	26.4803	19.8534	1.84027
  26	1	6	-0.104872	24.3659	19.3543	1.78762
  27	1	3	0.456145	29.1724	15.9958	-3.23084
  28	1	3	0.550902	30.7144	17.6618	-2.84009
  29	1	4	0.015704	30.4292	16.4906	-3.53612
  30	1	2	-0.456801	28.6121	15.0461	-3.74793
  31	1	2	-0.487703	31.7452	18.3211	-2.88626
  32	1	1	-0.116566	31.3787	15.9022	-4.39909
  33	1	1	-0.050109	31.681	16.5157	-5.63494
  34	1	1	0.154929	32.7365	16.0187	-6.44461
  35	1	1	0.041555	32.0518	14.7225	-4.05945
  36	1	1	-0.223109	33.0058	14.1686	-4.92779
  37	1	1	-0.080449	33.3861	14.8176	-6.11817
  38	1	5	-0.108008	31.8221	13.9313	-2.79532
  39	1	5	-0.182228	34.4551	14.2124	-7.00185
  40	1	5	-0.345523	30.8193	17.6517	-6.15283
  41	1	7	0.155183	23.4825	16.5306	1.13659
  42	1	7	0.172904	25.2033	18.9361	-2.10454
  43	1	7	0.158028	22.913	19.0813	-3.12377
  44	1	7	0.153129	29.9953	19.7894	-1.01688
  45	1	7	0.142914	27.9141	19.9176	0.0844666
  46	1	7	0.135531	26.7325	16.052	-1.5735
  47	1	7	0.17765	33.5072	13.2654	-4.60691
  48	1	9	0.046541	32.3062	14.3742	-1.91551
  49	1	9	0.045238	32.1731	12.9029	-2.88088
  50	1	9	0.051941	30.736	13.8686	-2.57562
  51	1	9	0.087961	35.4749	14.3857	-6.60746
  52	1	9	0.066782	34.3771	14.6684	-7.99049
  53	1	9	0.075908	34.3297	13.1077	-7.09752
  54	1	9	0.105172	31.0059	17.8826	-7.22249
  55	1	9	0.115625	31.0479	18.5605	-5.61017
  56	1	9	0.140296	29.7652	17.4503	-6.01152
  57	1	1	-0.004194	11.9029	9.45679	-1.40982
  58	1	1	-0.097141	11.2942	10.729	-1.20456
  59	1	1	-0.172015	11.0729	11.0625	0.162886
  60	1	2	-0.377994	13.2423	6.68349	-1.27037
  61	1	1	0.033493	12.1867	8.62588	-0.335877
  62	1	1	-0.063739	11.3964	10.2425	1.26334
  63	1	2	-0.398381	12.2669	8.04527	3.12909
  64	1	1	0.032144	11.892	8.96886	0.963158
  65	1	3	0.032313	12.9176	7.33351	-0.287356
  66	1	4	0.461698	13.0406	7.05069	1.0942
  67	1	3	0.091945	12.3659	7.97113	1.90637
  68	1	1	-0.10563	12.5767	14.8989	-3.83001
  69	1	5	-0.099376	10.8408	11.6829	-2.36981
  70	1	1	-0.043296	11.9152	12.7761	-2.70199
  71	1	1	-0.073043	11.7158	13.7944	-3.68344
  72	1	1	-0.117827	13.6321	15.0037	-2.91651
  73	1	1	-0.037562	13.0468	12.8932	-1.85934
  74	1	1	-0.083705	13.8897	14.0135	-1.96502
  75	1	5	0.396	10.6381	10.8628	-3.69188
  76	1	5	0.310495	9.50748	12.4452	-1.96454
  77	1	6	-0.130298	10.128	11.5929	-4.68726
  78	1	6	-0.128745	11.8504	10.4964	-4.15986
  79	1	6	-0.120019	9.87403	9.74862	-3.54095
  80	1	6	-0.104287	9.75362	13.45	-1.06223
  81	1	6	-0.095507	8.82712	13.0425	-2.97502
  82	1	6	-0.104872	8.65328	11.5576	-1.43577
  83	1	3	0.456145	14.953	14.493	-1.05618
  84	1	3	0.550902	14.6053	16.0861	-2.67563
  85	1	4	0.015704	15.3355	15.7157	-1.55476
  86	1	2	-0.456801	15.2142	13.9885	0.029714
  87	1	2	-0.487703	14.7226	17.1007	-3.35124
  88	1	1	-0.116566	16.3329	16.5435	-0.902927
  89	1	1	-0.050109	17.7079	16.3181	-1.12514
  90	1	1	0.154929	18.6117	17.2906	-0.659371
  91	1	1	0.041555	15.9033	17.5917	-0.0328981
  92	1	1	-0.223109	16.789	18.5741	0.375635
  93	1	1	-0.080449	18.1696	18.3816	0.0903979
  94	1	5	-0.108008	14.4247	17.7023	0.304306
  95	1	5	-0.182228	19.1804	19.4501	0.521185
  96	1	5	-0.345523	18.1758	15.0759	-1.87823
  97	1	7	0.155183	12.1844	9.05244	-2.36898
  98	1	7	0.172904	10.6061	12.0094	0.427247
  99	1	7	0.158028	11.186	10.5563	2.26514
 100	1	7	0.153129	12.3875	15.6556	-4.58976
 101	1	7	0.142914	10.8439	13.7957	-4.33135
 102	1	7	0.135531	13.2434	12.2017	-1.05664
 103	1	7	0.17765	16.444	19.414	0.967538
 104	1	9	0.046541	14.0029	16.7478	0.649193
 105	1	9	0.045238	13.8959	18.0561	-0.572095
 106	1	9	0.051941	14.2664	18.436	1.07543
 107	1	9	0.087961	19.8848	19.1306	1.28249
 108	1	9	0.066782	18.7063	20.3523	0.938824
 109	1	9	0.075908	19.7701	19.7917	-0.291989
 110	1	9	0.105172	17.5051	14.2489	-1.80382
 111	1	9	0.115625	19.0482	14.6786	-1.43491
 112	1	9	0.140296	18.3568	15.3221	-2.93052
 113	1	4	0.48116	12.0063	12.6001	8.36171
 114	1	3	0.034009	13.2723	13.0651	8.09615
 115	1	1	0.028921	13.0701	14.506	7.83993
 116	1	3	0.071556	11.0383	13.5769	8.29074
 117	1	1	0.025276	11.7343	14.8284	8.05082
 118	1	2	-0.381907	14.298	12.3923	8.07251
 119	1	2	-0.393799	9.85408	13.4447	8.3971
 120	1	1	-0.008998	13.958	15.4168	7.301
 121	1	1	-0.064503	11.2594	16.1085	7.83375
 122	1	1	-0.16756	12.154	17.0832	7.33513
 123	1	1	-0.085161	13.4882	16.7287	6.9902
 124	1	7	0.158939	14.9676	15.1085	7.0641
 125	1	7	0.163781	10.1825	16.314	7.93874
 126	1	7	0.161401	11.7459	18.0589	7.10577
 127	1	5	-0.078003	14.4708	17.6019	6.1795
 128	1	5	0.303704	13.8439	18.9398	5.62289
 129	1	6	-0.1084	13.4361	19.8039	6.60418
 130	1	6	-0.101508	14.721	19.6017	4.81228
 131	1	6	-0.111714	12.807	18.6906	4.81714
 132	1	5	0.380371	15.6302	17.9975	7.20031
 133	1	6	-0.124028	16.4118	16.9527	7.57251
 134	1	6	-0.119704	15.1371	18.427	8.37298
 135	1	6	-0.115877	16.438	18.9797	6.73763
 136	1	1	-0.024709	14.9447	16.8038	4.92987
 137	1	1	-0.076489	14.1539	15.715	4.51148
 138	1	1	-0.052344	14.7583	14.7123	3.80497
 139	1	1	-0.054202	16.2017	16.9967	4.27718
 140	1	1	-0.149083	16.7591	16.0075	3.41501
 141	1	1	-0.063027	16.01	14.8149	3.27308
 142	1	3	0.499526	16.4632	13.4623	2.89398
 143	1	4	-0.036881	15.3651	12.6367	3.06775
 144	1	3	0.443545	14.3226	13.3086	3.61586
 145	1	1	0.038197	15.4322	11.2425	2.8761
 146	1	1	-0.408621	15.6926	10.6911	1.59426
 147	1	1	0.252781	15.6894	9.2997	1.41477
 148	1	1	-0.169778	15.2438	10.4015	3.98774
 149	1	1	-0.113042	15.3376	9.00974	3.85424
 150	1	1	0.016958	15.5185	8.46851	2.56066
 151	1	7	0.167832	17.7668	16.0783	3.01345
 152	1	7	0.134138	16.82	17.8832	4.50382
 153	1	7	0.145229	13.1718	15.4958	4.92391
 154	1	2	-0.462312	13.2454	12.863	3.91753
 155	1	2	-0.483102	17.6184	13.1049	2.71429
 156	1	7	0.144532	15.1533	8.38545	4.71302
 157	1	7	0.226042	15.9168	11.364	0.748642
 158	1	1	0.12103	14.5589	6.24438	2.6861
 159	1	1	-0.09864	14.4456	5.52023	3.884
 160	1	1	-0.194398	13.571	4.39445	3.974
 161	1	1	-0.091961	12.7569	4.09255	2.87857
 162	1	1	-0.197799	12.8339	4.8562	1.70242
 163	1	1	-0.102777	13.7421	5.92595	1.57654
 164	1	7	0.132074	12.0684	3.26822	2.94906
 165	1	7	0.154044	12.242	4.52949	0.86539
 166	1	7	0.145155	15.096	5.75547	4.72999
 167	1	7	0.14558	14.3702	5.77201	0.679888
 168	1	10	-0.24014	15.5946	7.11069	2.43098
 169	1	7	0.152938	15.0062	10.8444	4.95188
 170	1	7	0.151751	13.4844	3.8089	4.86959
 171	1	1	-0.004194	13.8455	2.52187	12.4363
 172	1	1	-0.097141	15.2131	2.83916	12.6905
 173	1	1	-0.172015	16.1772	2.07337	12.0105
 174	1	2	-0.377994	11.0627	1.02531	11.8347
 175	1	1	0.033493	13.4781	1.4803	11.5398
 176	1	1	-0.063739	15.8356	0.993666	11.1534
 177	1	2	-0.398381	14.4611	-1.35653	9.67324
 178	1	1	0.032144	14.4574	0.719034	10.9228
 179	1	3	0.032313	12.1847	0.723004	11.3943
 180	1	4	0.461698	12.4839	-0.426969	10.653
 181	1	3	0.091945	13.835	-0.503117	10.3089
 182	1	1	-0.10563	13.2006	7.02493	14.2475
 183	1	5	-0.099376	15.6217	3.94425	13.7083
 184	1	1	-0.043296	14.6921	5.19456	13.4794
 185	1	1	-0.073043	14.0417	5.92426	14.5277
 186	1	1	-0.117827	12.9929	7.38193	12.9074
 187	1	1	-0.037562	14.5528	5.64994	12.1301
 188	1	1	-0.083705	13.7009	6.73952	11.9099
 189	1	5	0.396	15.4826	3.34652	15.1637
 190	1	5	0.310495	17.0985	4.44912	13.4806
 191	1	6	-0.130298	16.0003	4.21482	16.0913
 192	1	6	-0.128745	16.1858	2.19971	15.369
 193	1	6	-0.120019	14.1696	3.01367	15.4777
 194	1	6	-0.104287	18.0254	3.64513	14.0292
 195	1	6	-0.095507	17.1968	5.59732	14.1272
 196	1	6	-0.104872	17.4764	4.62179	12.1892
 197	1	3	0.456145	13.5329	7.48611	10.6768
 198	1	3	0.550902	12.2137	8.52653	12.269
 199	1	4	0.015704	12.5202	8.41207	10.8907
 200	1	2	-0.456801	14.2457	7.31941	9.70203
 201	1	2	-0.487703	11.474	9.32241	12.8566
 202	1	1	-0.116566	12.0005	9.10831	9.74245
 203	1	1	-0.050109	12.0285	10.5153	9.70085
 204	1	1	0.154929	11.7736	11.2091	8.47462
 205	1	1	0.041555	11.6176	8.43547	8.54815
 206	1	1	-0.223109	11.3176	9.12803	7.37181
 207	1	1	-0.080449	11.4825	10.5148	7.28705
 208	1	5	-0.108008	11.2549	6.96331	8.51302
 209	1	5	-0.182228	11.3077	11.1665	5.93303
 210	1	5	-0.345523	12.3847	11.3627	10.9433
 211	1	7	0.155183	13.0647	3.04197	12.9457
 212	1	7	0.172904	17.2271	2.22374	12.2271
 213	1	7	0.158028	16.6064	0.385624	10.7276
 214	1	7	0.153129	12.6922	7.56126	15.0591
 215	1	7	0.142914	14.245	5.6562	15.5403
 216	1	7	0.135531	15.1065	5.21758	11.2884
 217	1	7	0.17765	11.0436	8.61254	6.43087
 218	1	9	0.046541	11.125	6.55081	7.503
 219	1	9	0.045238	10.2797	6.80961	9.00311
 220	1	9	0.051941	11.9744	6.32808	9.01835
 221	1	9	0.087961	11.465	10.4467	5.11624
 222	1	9	0.066782	12.0579	11.9511	5.78915
 223	1	9	0.075908	10.3167	11.5906	5.80541
 224	1	9	0.105172	12.9877	12.2494	10.6999
 225	1	9	0.115625	13.0454	10.8464	11.6346
 226	1	9	0.140296	11.4697	11.6592	11.5006
 227	1	4	0.48116	3.31752	-8.86356	-1.53297
 228	1	3	0.034009	3.72976	-7.93404	-2.49729
 229	1	1	0.028921	5.08924	-7.46904	-2.07956
 230	1	3	0.071556	4.31851	-9.15359	-0.637085
 231	1	1	0.025276	5.48201	-8.30513	-1.04294
 232	1	2	-0.381907	3.07321	-7.61053	-3.4707
 233	1	2	-0.393799	4.2149	-9.76218	0.401343
 234	1	1	-0.008998	5.94176	-6.54016	-2.6686
 235	1	1	-0.064503	6.75459	-8.27268	-0.601132
 236	1	1	-0.16756	7.60668	-7.30249	-1.08576
 237	1	1	-0.085161	7.21497	-6.33451	-2.0911
 238	1	7	0.158939	5.57987	-5.97782	-3.54487
 239	1	7	0.163781	7.08552	-8.95832	0.186217
 240	1	7	0.161401	8.67051	-7.37662	-0.816566
 241	1	5	-0.078003	8.21978	-5.2094	-2.54029
 242	1	5	0.303704	7.50042	-3.89648	-3.01873
 243	1	6	-0.1084	6.36307	-3.66683	-2.34479
 244	1	6	-0.101508	7.17341	-3.92565	-4.30304
 245	1	6	-0.111714	8.32593	-2.83987	-2.95412
 246	1	5	0.380371	9.08762	-5.72352	-3.73878
 247	1	6	-0.124028	9.90448	-6.71325	-3.27672
 248	1	6	-0.119704	9.81283	-4.7937	-4.48026
 249	1	6	-0.115877	8.19056	-6.28325	-4.58803
 250	1	1	-0.024709	9.12356	-4.77132	-1.31279
 251	1	1	-0.076489	8.55655	-4.68381	-0.0335191
 252	1	1	-0.052344	9.37518	-4.25255	1.0322
 253	1	1	-0.054202	10.4637	-4.36604	-1.51216
 254	1	1	-0.149083	11.2393	-3.94133	-0.421729
 255	1	1	-0.063027	10.6876	-3.89794	0.888826
 256	1	3	0.499526	11.2241	-3.5829	2.2265
 257	1	4	-0.036881	10.1363	-3.33845	3.05174
 258	1	3	0.443545	8.97157	-3.79479	2.42481
 259	1	1	0.038197	10.3185	-2.77039	4.39408
 260	1	1	-0.408621	11.4214	-1.90813	4.68352
 261	1	1	0.252781	11.6421	-1.42002	6.00437
 262	1	1	-0.169778	9.48052	-3.10712	5.47604
 263	1	1	-0.113042	9.67869	-2.66375	6.77917
 264	1	1	0.016958	10.7785	-1.80368	7.00336
 265	1	7	0.167832	12.2624	-3.66405	-0.621729
 266	1	7	0.134138	10.8677	-4.22011	-2.47966
 267	1	7	0.145229	7.49113	-4.80779	0.187552
 268	1	2	-0.462312	7.9257	-4.13195	2.98092
 269	1	2	-0.483102	12.3861	-3.75884	2.56528
 270	1	7	0.144532	9.01092	-2.98544	7.6264
 271	1	7	0.226042	12.104	-1.60292	3.89338
 272	1	1	0.12103	11.5035	-2.20042	9.29572
 273	1	1	-0.09864	11.5753	-3.62772	9.16476
 274	1	1	-0.194398	11.8369	-4.45515	10.245
 275	1	1	-0.091961	11.9234	-3.86026	11.4837
 276	1	1	-0.197799	11.8387	-2.47386	11.6755
 277	1	1	-0.102777	11.5844	-1.59508	10.5727
 278	1	7	0.132074	12.1732	-4.55235	12.3083
 279	1	7	0.154044	11.9688	-2.09326	12.6733
 280	1	7	0.145155	11.4151	-4.13724	8.22812
 281	1	7	0.14558	10.6951	-1.04609	10.7213
 282	1	10	-0.24014	11.1657	-1.37429	8.21833
 283	1	7	0.152938	8.60239	-3.70321	5.29831
 284	1	7	0.151751	11.9731	-5.50862	10.1219
 285	1	1	-0.004194	-5.31937	-17.2009	-0.324994
 286	1	1	-0.097141	-4.18664	-18.043	-0.0990422
 287	1	1	-0.172015	-4.20378	-18.9245	1.04819
 288	1	2	-0.377994	-8.46857	-16.2111	-0.56091
 289	1	1	0.033493	-6.44422	-17.2296	0.585768
 290	1	1	-0.063739	-5.20179	-18.8275	2.04011
 291	1	2	-0.398381	-7.74916	-18.2054	3.64886
 292	1	1	0.032144	-6.28599	-17.9705	1.79392
 293	1	3	0.032313	-7.84334	-16.6336	0.457861
 294	1	4	0.461698	-8.39051	-16.9955	1.75516
 295	1	3	0.091945	-7.53811	-17.7511	2.54132
 296	1	1	-0.10563	-1.82653	-14.7954	1.34469
 297	1	5	-0.099376	-2.8205	-17.8781	-0.900121
 298	1	1	-0.043296	-2.19538	-16.609	-0.329131
 299	1	1	-0.073043	-2.32224	-16.0884	0.976621
 300	1	1	-0.117827	-1.08365	-14.117	0.418513
 301	1	1	-0.037562	-1.3836	-15.853	-1.22252
 302	1	1	-0.083705	-0.884762	-14.593	-0.887273
 303	1	5	0.396	-3.23563	-17.9587	-2.44928
 304	1	5	0.310495	-1.67445	-18.9973	-0.707414
 305	1	6	-0.130298	-3.85267	-16.8309	-2.80483
 306	1	6	-0.128745	-4.23378	-18.8344	-2.53822
 307	1	6	-0.120019	-2.38448	-18.3325	-3.42657
 308	1	6	-0.104287	-2.00872	-20.3093	-0.743505
 309	1	6	-0.095507	-1.15735	-18.9936	0.588518
 310	1	6	-0.104872	-0.583959	-18.8985	-1.54046
 311	1	3	0.456145	-0.40935	-13.4641	-1.74874
 312	1	3	0.550902	-0.514956	-12.7638	0.44031
 313	1	4	0.015704	-0.202572	-12.3967	-0.899715
 314	1	2	-0.456801	-0.138936	-13.5543	-2.93952
 315	1	2	-0.487703	-0.309467	-12.1002	1.46667
 316	1	1	-0.116566	0.217863	-11.0581	-1.15407
 317	1	1	-0.050109	1.51752	-10.5938	-1.46729
 318	1	1	0.154929	1.95359	-9.2756	-1.24428
 319	1	1	0.041555	-0.735508	-10.0236	-0.888062
 320	1	1	-0.223109	-0.30025	-8.71526	-0.694383
 321	1	1	-0.080449	1.02064	-8.37322	-0.73381
 322	1	5	-0.108008	-2.19532	-10.3443	-0.502142
 323	1	5	-0.182228	1.49877	-6.94885	-0.360359
 324	1	5	-0.345523	2.58842	-11.5288	-2.03627
 325	1	7	0.155183	-5.39749	-16.5909	-1.23821
 326	1	7	0.172904	-3.36823	-19.5434	1.35918
 327	1	7	0.158028	-5.07481	-19.3681	2.95442
 328	1	7	0.153129	-2.12257	-14.2549	2.25215
 329	1	7	0.142914	-2.95424	-16.6546	1.6089
 330	1	7	0.135531	-1.08762	-16.2407	-2.187
 331	1	7	0.17765	-0.960046	-7.93265	-0.448377
 332	1	9	0.046541	-2.48751	-10.2768	0.605022
 333	1	9	0.045238	-2.57421	-11.3061	-0.87585
 334	1	9	0.051941	-2.8725	-9.63556	-1.01261
 335	1	9	0.087961	0.809551	-6.61658	0.462734
 336	1	9	0.066782	1.35535	-6.22838	-1.1708
 337	1	9	0.075908	2.52743	-6.92912	0.125069
 338	1	9	0.105172	3.14751	-12.0191	-1.2257
 339	1	9	0.115625	3.2989	-11.0772	-2.61862
 340	1	9	0.140296	2.14	-12.4	-2.48052
 341	1	1	-0.004194	-17.5722	-9.23679	2.20597
 342	1	1	-0.097141	-16.5301	-9.2776	1.20353
 343	1	1	-0.172015	-16.8052	-10.0613	0.0620383
 344	1	2	-0.377994	-20.0042	-9.55576	4.02585
 345	1	1	0.033493	-18.625	-10.1282	2.14141
 346	1	1	-0.063739	-17.961	-10.926	-0.0442041
 347	1	2	-0.398381	-20.171	-12.8674	0.643233
 348	1	1	0.032144	-18.7458	-11.0345	1.09777
 349	1	3	0.032313	-19.8432	-10.2093	2.99352
 350	1	4	0.461698	-20.628	-11.2264	2.42274
 351	1	3	0.091945	-19.9298	-11.8896	1.33927
 352	1	1	-0.10563	-12.5675	-10.9972	-0.31552
 353	1	5	-0.099376	-15.1446	-8.5788	1.32516
 354	1	1	-0.043296	-14.1	-9.71923	1.11387
 355	1	1	-0.073043	-13.2663	-9.78945	-0.0400533
 356	1	1	-0.117827	-12.5513	-12.0269	0.626509
 357	1	1	-0.037562	-14.066	-10.8103	2.03986
 358	1	1	-0.083705	-13.278	-11.9082	1.81562
 359	1	5	0.396	-14.8397	-7.9703	2.79549
 360	1	5	0.310495	-15.1548	-7.41904	0.295286
 361	1	6	-0.130298	-15.0389	-8.84514	3.83967
 362	1	6	-0.128745	-15.6279	-6.93505	3.0413
 363	1	6	-0.120019	-13.5714	-7.52681	2.81213
 364	1	6	-0.104287	-16.2683	-6.61784	0.430713
 365	1	6	-0.095507	-15.2212	-7.88103	-0.953037
 366	1	6	-0.104872	-14.0369	-6.61612	0.305496
 367	1	3	0.456145	-13.1019	-13.1978	2.56663
 368	1	3	0.550902	-11.7984	-13.3218	0.577456
 369	1	4	0.015704	-12.2057	-13.9396	1.76223
 370	1	2	-0.456801	-13.4326	-13.5154	3.70557
 371	1	2	-0.487703	-11.1105	-13.7571	-0.36767
 372	1	1	-0.116566	-11.6805	-15.2639	2.1669
 373	1	1	-0.050109	-10.2498	-15.5179	2.27901
 374	1	1	0.154929	-9.75419	-16.799	2.06302
 375	1	1	0.041555	-12.5911	-16.3197	2.16652
 376	1	1	-0.223109	-12.0619	-17.606	1.98465
 377	1	1	-0.080449	-10.691	-17.8407	1.91069
 378	1	5	-0.108008	-14.071	-16.1219	1.97011
 379	1	5	-0.182228	-10.3603	-19.23	1.52698
 380	1	5	-0.345523	-9.31632	-14.367	2.65532
 381	1	7	0.155183	-17.4527	-8.68226	3.14442
 382	1	7	0.172904	-16.0574	-10.0915	-0.673513
 383	1	7	0.158028	-18.1997	-11.4409	-1.00581
 384	1	7	0.153129	-11.9942	-11.2	-1.18898
 385	1	7	0.142914	-13.0975	-8.94093	-0.717659
 386	1	7	0.135531	-14.5692	-10.7799	3.03201
 387	1	7	0.17765	-12.7888	-18.3978	1.87592
 388	1	9	0.046541	-14.6052	-16.9619	1.57009
 389	1	9	0.045238	-14.3962	-15.2538	1.32548
 390	1	9	0.051941	-14.5452	-15.9978	2.95362
 391	1	9	0.087961	-10.5381	-19.3528	0.406267
 392	1	9	0.066782	-11.0008	-19.9921	2.10283
 393	1	9	0.075908	-9.34049	-19.5479	1.79078
 394	1	9	0.105172	-9.83464	-13.4278	2.78522
 395	1	9	0.115625	-8.39471	-14.242	2.02538
 396	1	9	0.140296	-8.73359	-14.493	3.63724
 397	1	1	-0.004194	-25.1696	-13.1402	12.249
 398	1	1	-0.097141	-26.3454	-13.0859	11.4391
 399	1	1	-0.172015	-26.8854	-11.7639	11.1144
 400	1	2	-0.377994	-22.6429	-12.4799	14.1622
 401	1	1	0.033493	-24.5537	-11.9543	12.6415
 402	1	1	-0.063739	-26.2275	-10.6023	11.5498
 403	1	2	-0.398381	-24.2414	-8.55291	12.8969
 404	1	1	0.032144	-25.0688	-10.7432	12.2893
 405	1	3	0.032313	-23.3057	-11.7388	13.4644
 406	1	4	0.461698	-23.0321	-10.3821	13.4146
 407	1	3	0.091945	-24.1046	-9.7635	12.8343
 408	1	1	-0.10563	-26.3937	-15.4218	7.09133
 409	1	5	-0.099376	-26.969	-14.3502	10.7415
 410	1	1	-0.043296	-26.4488	-14.3584	9.27872
 411	1	1	-0.073043	-26.8731	-15.3492	8.40828
 412	1	1	-0.117827	-25.4331	-14.5475	6.60235
 413	1	1	-0.037562	-25.4817	-13.4172	8.7072
 414	1	1	-0.083705	-25.0346	-13.5157	7.40207
 415	1	5	0.396	-28.52	-14.2384	10.8036
 416	1	5	0.310495	-26.5481	-15.5596	11.6352
 417	1	6	-0.130298	-28.8868	-14.0728	12.1138
 418	1	6	-0.128745	-29.2033	-15.3176	10.2174
 419	1	6	-0.120019	-28.9963	-13.2982	9.97847
 420	1	6	-0.104287	-26.5968	-15.2329	12.9418
 421	1	6	-0.095507	-25.3113	-15.9618	11.1649
 422	1	6	-0.104872	-27.3206	-16.6295	11.395
 423	1	3	0.456145	-24.2015	-12.6252	6.58454
 424	1	3	0.550902	-24.8245	-14.337	5.1814
 425	1	4	0.015704	-24.2465	-13.1062	5.26446
 426	1	2	-0.456801	-23.7611	-11.5752	6.9802
 427	1	2	-0.487703	-25.0274	-15.0271	4.16852
 428	1	1	-0.116566	-23.747	-12.3694	4.18629
 429	1	1	-0.050109	-22.3855	-12.4066	3.81274
 430	1	1	0.154929	-21.9635	-11.5439	2.75592
 431	1	1	0.041555	-24.6939	-11.6381	3.36907
 432	1	1	-0.223109	-24.2057	-10.8706	2.28407
 433	1	1	-0.080449	-22.8421	-10.7933	1.96375
 434	1	5	-0.108008	-26.2056	-11.5622	3.7141
 435	1	5	-0.182228	-22.4015	-9.80113	0.850146
 436	1	5	-0.345523	-21.2942	-13.4438	4.35647
 437	1	7	0.155183	-24.6007	-14.0466	12.4807
 438	1	7	0.172904	-27.8335	-11.5935	10.5663
 439	1	7	0.158028	-26.6065	-9.64589	11.262
 440	1	7	0.153129	-26.8488	-16.1382	6.43275
 441	1	7	0.142914	-27.6752	-16.0046	8.71281
 442	1	7	0.135531	-24.9979	-12.6099	9.26917
 443	1	7	0.17765	-24.8775	-10.2263	1.70161
 444	1	9	0.046541	-26.3774	-11.1883	4.73511
 445	1	9	0.045238	-26.6082	-12.6124	3.66046
 446	1	9	0.051941	-26.7486	-10.9324	2.95014
 447	1	9	0.087961	-21.4304	-9.85859	0.389305
 448	1	9	0.066782	-22.3857	-8.77098	1.28211
 449	1	9	0.075908	-23.17	-9.77676	0.0842946
 450	1	9	0.105172	-20.4329	-13.5263	3.69801
 451	1	9	0.115625	-21.7607	-14.4394	4.71369
 452	1	9	0.140296	-20.8545	-12.9442	5.22046
 453	1	1	-0.004194	-10.8914	-8.57276	9.54026
 454	1	1	-0.097141	-12.1597	-8.46497	10.2191
 455	1	1	-0.172015	-12.2978	-7.288	10.9901
 456	1	2	-0.377994	-8.08467	-8.26706	8.16427
 457	1	1	0.033493	-9.9529	-7.50334	9.51419
 458	1	1	-0.063739	-11.3906	-6.2011	10.9787
 459	1	2	-0.398381	-9.17233	-4.10064	10.1458
 460	1	1	0.032144	-10.1796	-6.30516	10.2097
 461	1	3	0.032313	-8.63736	-7.36085	8.81176
 462	1	4	0.461698	-8.24018	-6.00077	9.00647
 463	1	3	0.091945	-9.11568	-5.28868	9.85411
 464	1	1	-0.10563	-16.4937	-7.48349	9.93047
 465	1	5	-0.099376	-13.251	-9.59173	10.3585
 466	1	1	-0.043296	-14.7138	-9.01616	10.5489
 467	1	1	-0.073043	-15.2274	-8.04805	9.59603
 468	1	1	-0.117827	-17.1491	-7.80934	11.1221
 469	1	1	-0.037562	-15.4473	-9.35108	11.7088
 470	1	1	-0.083705	-16.5878	-8.71227	11.9739
 471	1	5	0.396	-12.9089	-10.4652	11.6454
 472	1	5	0.310495	-13.222	-10.5796	9.16087
 473	1	6	-0.130298	-13.5644	-11.6428	11.5959
 474	1	6	-0.128745	-13.0173	-9.78374	12.825
 475	1	6	-0.120019	-11.5873	-10.7924	11.5727
 476	1	6	-0.104287	-12.2541	-11.5835	9.20709
 477	1	6	-0.095507	-12.9483	-9.82357	8.03356
 478	1	6	-0.104872	-14.4393	-11.191	8.95685
 479	1	3	0.456145	-17.461	-8.95248	13.113
 480	1	3	0.550902	-18.4933	-7.49032	11.6338
 481	1	4	0.015704	-18.5719	-8.18154	12.8255
 482	1	2	-0.456801	-17.2137	-9.54735	14.1257
 483	1	2	-0.487703	-19.2504	-6.7031	11.0936
 484	1	1	-0.116566	-19.7421	-8.39416	13.5864
 485	1	1	-0.050109	-20.7956	-9.26057	13.0457
 486	1	1	0.154929	-21.8448	-9.6849	13.9217
 487	1	1	0.041555	-19.7552	-7.96168	14.9561
 488	1	1	-0.223109	-20.8581	-8.36667	15.7358
 489	1	1	-0.080449	-21.8696	-9.18809	15.268
 490	1	5	-0.108008	-18.8171	-6.88658	15.5448
 491	1	5	-0.182228	-22.9197	-9.69381	16.2704
 492	1	5	-0.345523	-20.7192	-9.82574	11.6111
 493	1	7	0.155183	-10.6533	-9.40347	8.9583
 494	1	7	0.172904	-13.246	-7.08226	11.5674
 495	1	7	0.158028	-11.5466	-5.37377	11.6705
 496	1	7	0.153129	-16.9655	-6.73646	9.26057
 497	1	7	0.142914	-14.6214	-7.8246	8.73139
 498	1	7	0.135531	-15.215	-10.0921	12.4209
 499	1	7	0.17765	-21.0026	-8.0277	16.752
 500	1	9	0.046541	-17.8442	-7.28976	15.7956
 501	1	9	0.045238	-19.19	-6.53555	16.4851
 502	1	9	0.051941	-18.6621	-5.93839	14.9778
 503	1	9	0.087961	-23.4831	-8.81299	16.5764
 504	1	9	0.066782	-22.482	-10.2721	17.1099
 505	1	9	0.075908	-23.726	-10.294	15.891
 506	1	9	0.105172	-20.6981	-9.00442	10.8478
 507	1	9	0.115625	-21.6377	-10.309	11.2139
 508	1	9	0.140296	-19.8574	-10.5004	11.473
 509	1	4	0.48116	-4.37974	-5.37415	-3.35328
 510	1	3	0.034009	-5.32074	-6.30262	-2.79606
 511	1	1	0.028921	-6.23606	-6.48234	-3.998
 512	1	3	0.071556	-4.43902	-5.22789	-4.75146
 513	1	1	0.025276	-5.69257	-5.88689	-5.11806
 514	1	2	-0.381907	-5.52626	-6.55163	-1.58278
 515	1	2	-0.393799	-3.87017	-4.36854	-5.37413
 516	1	1	-0.008998	-7.5626	-6.95267	-4.06283
 517	1	1	-0.064503	-6.37975	-5.6028	-6.28099
 518	1	1	-0.16756	-7.80769	-5.82041	-6.31412
 519	1	1	-0.085161	-8.38292	-6.43375	-5.16032
 520	1	7	0.158939	-7.9036	-7.29168	-3.08281
 521	1	7	0.163781	-5.8975	-5.05223	-7.06549
 522	1	7	0.161401	-8.37448	-5.6609	-7.23399
 523	1	5	-0.078003	-9.94249	-6.51572	-4.90719
 524	1	5	0.303704	-11.0043	-5.71927	-5.84709
 525	1	6	-0.1084	-11.1051	-6.20392	-7.07116
 526	1	6	-0.101508	-10.7305	-4.42041	-6.09547
 527	1	6	-0.111714	-12.3234	-5.63615	-5.38839
 528	1	5	0.380371	-10.3563	-8.04379	-4.76832
 529	1	6	-0.124028	-9.59381	-8.87568	-3.9617
 530	1	6	-0.119704	-10.19	-8.58466	-5.98782
 531	1	6	-0.115877	-11.68	-8.19393	-4.49538
 532	1	1	-0.024709	-9.91313	-5.7208	-3.55833
 533	1	1	-0.076489	-10.4197	-6.27524	-2.29977
 534	1	1	-0.052344	-10.0657	-5.57959	-1.10033
 535	1	1	-0.054202	-9.25591	-4.46882	-3.59187
 536	1	1	-0.149083	-8.82699	-3.86844	-2.36506
 537	1	1	-0.063027	-9.27897	-4.44696	-1.15064
 538	1	3	0.499526	-8.96802	-3.94631	0.172751
 539	1	4	-0.036881	-9.56057	-4.91961	0.979118
 540	1	3	0.443545	-10.2787	-5.85003	0.303095
 541	1	1	0.038197	-9.38141	-4.85472	2.40616
 542	1	1	-0.408621	-10.4122	-5.12327	3.32137
 543	1	1	0.252781	-10.2385	-5.31296	4.66223
 544	1	1	-0.169778	-8.14128	-4.58865	3.02352
 545	1	1	-0.113042	-7.97357	-4.61119	4.44425
 546	1	1	0.016958	-9.02428	-4.97273	5.26415
 547	1	7	0.167832	-8.35458	-2.83344	-2.35675
 548	1	7	0.134138	-8.90194	-3.95765	-4.50839
 549	1	7	0.145229	-10.9552	-7.2485	-2.26248
 550	1	2	-0.462312	-10.9054	-6.75991	0.76448
 551	1	2	-0.483102	-8.15445	-3.03011	0.378862
 552	1	7	0.144532	-6.98227	-4.49121	4.85373
 553	1	7	0.226042	-11.3987	-5.39972	2.87845
 554	1	1	0.12103	-7.9639	-4.48719	7.40061
 555	1	1	-0.09864	-7.79767	-3.10059	7.51355
 556	1	1	-0.194398	-6.69454	-2.61358	8.27328
 557	1	1	-0.091961	-5.85465	-3.55862	8.96023
 558	1	1	-0.197799	-6.05973	-4.94682	8.92687
 559	1	1	-0.102777	-7.21791	-5.40643	8.21377
 560	1	7	0.132074	-5.03366	-3.14942	9.56579
 561	1	7	0.154044	-5.42296	-5.68882	9.43913
 562	1	7	0.145155	-8.43622	-2.40658	6.97328
 563	1	7	0.14558	-6.95265	-6.2995	7.61455
 564	1	10	-0.24014	-8.96014	-5.04216	6.59498
 565	1	7	0.152938	-7.25244	-4.36876	2.36895
 566	1	7	0.151751	-6.59523	-1.53383	8.38854
 567	1	4	0.48116	9.6121	-5.91743	-10.0454
 568	1	3	0.034009	9.01853	-5.20288	-9.02626
 569	1	1	0.028921	8.88683	-3.84358	-9.61975
 570	1	3	0.071556	9.87375	-5.2235	-11.2238
 571	1	1	0.025276	9.4082	-3.84957	-10.9002
 572	1	2	-0.381907	8.40254	-5.70233	-8.14169
 573	1	2	-0.393799	10.3298	-5.67861	-12.2709
 574	1	1	-0.008998	8.42865	-2.67293	-9.03586
 575	1	1	-0.064503	9.40228	-2.75605	-11.7089
 576	1	1	-0.16756	8.89403	-1.56397	-11.1939
 577	1	1	-0.085161	8.5283	-1.46457	-9.86319
 578	1	7	0.158939	8.03056	-2.72949	-8.03565
 579	1	7	0.163781	9.87445	-2.80005	-12.7466
 580	1	7	0.161401	8.92207	-0.650311	-11.8281
 581	1	5	-0.078003	7.78336	-0.264394	-9.26036
 582	1	5	0.303704	8.96405	0.595112	-8.63719
 583	1	6	-0.1084	9.59413	-0.142593	-7.67349
 584	1	6	-0.101508	8.44067	1.67554	-8.11999
 585	1	6	-0.111714	9.83224	1.04578	-9.48684
 586	1	5	0.380371	7.07001	0.601727	-10.3357
 587	1	6	-0.124028	6.32515	-0.0577623	-11.3381
 588	1	6	-0.119704	7.8641	1.40479	-11.1071
 589	1	6	-0.115877	6.24187	1.48441	-9.7186
 590	1	1	-0.024709	6.69	-0.730869	-8.27485
 591	1	1	-0.076489	5.75743	-1.7593	-8.55877
 592	1	1	-0.052344	4.63844	-2.03971	-7.77651
 593	1	1	-0.054202	6.44612	0.0002886	-7.0859
 594	1	1	-0.149083	5.28761	-0.213607	-6.33589
 595	1	1	-0.063027	4.45824	-1.30062	-6.66224
 596	1	3	0.499526	3.25094	-1.83684	-6.02231
 597	1	4	-0.036881	2.78499	-2.95415	-6.75918
 598	1	3	0.443545	3.59159	-3.09896	-7.8932
 599	1	1	0.038197	1.69731	-3.75517	-6.2952
 600	1	1	-0.408621	1.83785	-4.96208	-5.59165
 601	1	1	0.252781	0.843762	-5.2931	-4.57429
 602	1	1	-0.169778	0.50704	-3.07065	-6.41473
 603	1	1	-0.113042	-0.479118	-3.44174	-5.46759
 604	1	1	0.016958	-0.380048	-4.51427	-4.50991
 605	1	7	0.167832	5.01801	0.414203	-5.46955
 606	1	7	0.134138	7.08097	0.81429	-6.70975
 607	1	7	0.145229	5.8869	-2.31127	-9.47987
 608	1	2	-0.462312	3.3738	-3.94806	-8.73754
 609	1	2	-0.483102	2.83046	-1.41988	-4.94356
 610	1	7	0.144532	-1.40296	-2.88519	-5.43511
 611	1	7	0.226042	2.77493	-5.52563	-5.49509
 612	1	1	0.12103	-2.33673	-4.05406	-2.94159
 613	1	1	-0.09864	-1.84803	-2.80337	-2.61661
 614	1	1	-0.194398	-2.68199	-1.88955	-1.93732
 615	1	1	-0.091961	-3.96637	-2.35352	-1.45443
 616	1	1	-0.197799	-4.36732	-3.6667	-1.74842
 617	1	1	-0.102777	-3.54206	-4.55235	-2.50329
 618	1	7	0.132074	-4.5879	-1.72463	-0.836121
 619	1	7	0.154044	-5.34674	-3.95971	-1.49567
 620	1	7	0.145155	-0.916066	-2.50991	-3.05003
 621	1	7	0.14558	-3.1631	-5.3725	-1.91067
 622	1	10	-0.24014	-1.50894	-4.87228	-3.70971
 623	1	7	0.152938	0.341636	-2.15698	-6.99943
 624	1	7	0.151751	-2.3412	-0.825771	-1.82464

Velocities

   1	0.000170153	0.00695174	0.00341466
   2	0.00105367	0.00103357	-0.00509281
   3	0.00400466	0.00120588	-0.00433014
   4	0.0033	0.0039436	-0.00146233
   5	0.0018591	0.00597307	0.00271277
   6	0.00307975	0.00438238	2.38694e-05
   7	-0.00105097	0.00916062	0.00166631
   8	0.00258816	0.0118681	0.00377209
   9	0.00091422	0.00645274	-0.000657851
  10	-0.000917763	0.00880628	-0.00505206
  11	0.000527097	0.0081664	-0.00196001
  12	0.00414574	-0.00322905	0.00532949
  13	0.00304279	-0.00137983	-0.00279106
  14	0.00553688	0.00343969	-0.00301854
  15	0.0023413	0.000932908	0.00215042