pySIMM System Object

2336 atoms
2560 bonds
4463 angles
6786 dihedrals
736 impropers

10 atom types
12 bond types
21 angle types
8 dihedral types
4 improper types

-173.023671 173.023671 xlo xhi
-173.023671 173.023671 ylo yhi
-173.023671 173.023671 zlo zhi

Masses

   1	14.01	# n
   2	12.01	# c
   3	12.01	# ca
   4	1.008	# hn
   5	16.0	# o
   6	1.008	# ha
   7	12.01	# c3
   8	19.0	# f
   9	16.0	# os
  10	1.008	# hc

Pair Coeffs

   1	0.17	3.249998523775958	# n
   2	0.086	3.3996695084235347	# c
   3	0.086	3.3996695084235347	# ca
   4	0.0157	1.069078461768407	# hn
   5	0.21	2.959921901149463	# o
   6	0.015	2.59964245953351	# ha
   7	0.1094	3.3996695084235347	# c3
   8	0.061	3.1181455134911875	# f
   9	0.17	3.0000123434657784	# os
  10	0.0157	2.649532787749369	# hc

Bond Coeffs

   1	345.8	1.086	# ca,ha
   2	427.6	1.3789	# c,n
   3	637.7	1.2183	# c,o
   4	321.0	1.5156	# c3,ca
   5	300.9	1.5375	# c3,c3
   6	384.2	1.4121	# ca,n
   7	376.6	1.3696	# ca,os
   8	403.2	1.0129	# hn,n
   9	356.9	1.3497	# c3,f
  10	461.1	1.3984	# ca,ca
  11	345.9	1.4906	# c,ca
  12	330.6	1.0969	# c3,hc

Angle Coeffs

   1	48.33	117.55	# c,n,hn
   2	74.22	123.05	# n,c,o
   3	64.28	120.33	# c,ca,ca
   4	66.11	109.24	# c3,c3,f
   5	63.48	119.89	# ca,os,ca
   6	63.53	120.77	# c3,ca,ca
   7	66.62	120.02	# ca,ca,ca
   8	63.15	112.07	# c3,c3,ca
   9	63.82	123.71	# c,n,ca
  10	62.86	111.51	# c3,c3,c3
  11	70.89	107.36	# f,c3,f
  12	67.87	120.19	# ca,ca,n
  13	63.74	127.08	# c,n,c
  14	48.18	119.88	# ca,ca,ha
  15	68.72	122.6	# ca,c,o
  16	63.56	112.24	# ca,c3,ca
  17	69.58	119.2	# ca,ca,os
  18	67.68	115.25	# ca,c,n
  19	39.4	107.58	# hc,c3,hc
  20	46.8	110.47	# ca,c3,hc
  21	49.75	116.02	# ha,ca,n

Dihedral Coeffs

   1	2	2.5	2	180	2.0	1	0	# hn,n,c,o
   2	1	3.625	2	180	# X,ca,ca,X
   3	1	1.0	2	180	# X,c,ca,X
   4	1	0.15555555555555556	3	0	# X,c3,c3,X
   5	1	0.0	2	0	# X,c3,ca,X
   6	1	0.9	2	180	# X,ca,os,X
   7	1	2.5	2	180	# X,c,n,X
   8	1	0.45	2	180	# X,ca,n,X

Improper Coeffs

   1	10.5	-1	2	# c,X,X,o
   2	1.1	-1	2	# ca,X,X,ha
   3	1.1	-1	2	# ca,ca,ca,c3
   4	1.1	-1	2	# n,X,X,hn

Atoms

   1	1	1	0.48116	-89.2492	46.7295	6.22701
   2	1	2	0.034009	-90.3823	46.1831	5.63166
   3	1	3	0.028921	-90.5876	46.9785	4.40156
   4	1	2	0.071556	-88.7633	47.8466	5.55019
   5	1	3	0.025276	-89.6463	47.9855	4.36149
   6	1	5	-0.381907	-91.0251	45.2057	5.97473
   7	1	5	-0.393799	-87.7593	48.495	5.79284
   8	1	3	-0.008998	-91.4576	46.7415	3.33783
   9	1	3	-0.064503	-89.5638	48.8509	3.26701
  10	1	3	-0.16756	-90.448	48.6421	2.18606
  11	1	3	-0.085161	-91.3901	47.5753	2.19317
  12	1	6	0.158939	-92.13	45.8855	3.38851
  13	1	6	0.163781	-88.802	49.6249	3.23651
  14	1	6	0.161401	-90.3436	49.288	1.31998
  15	1	7	-0.078003	-92.2614	47.2129	0.959853
  16	1	7	0.303704	-92.483	48.3953	-0.0624829
  17	1	8	-0.1084	-92.8325	49.5521	0.546491
  18	1	8	-0.101508	-93.4785	48.1016	-0.930254
  19	1	8	-0.111714	-91.3919	48.6708	-0.811624
  20	1	7	0.380371	-91.5035	46.0443	0.214294
  21	1	8	-0.124028	-92.0781	45.7151	-0.966071
  22	1	8	-0.119704	-91.4379	44.9162	0.962308
  23	1	8	-0.115877	-90.2182	46.3779	-0.0572441
  24	1	3	-0.024709	-93.6694	46.8248	1.49634
  25	1	3	-0.076489	-94.2979	45.5905	1.1925
  26	1	3	-0.052344	-95.5436	45.3146	1.76534
  27	1	3	-0.054202	-94.3513	47.7371	2.35171
  28	1	3	-0.149083	-95.6174	47.4483	2.89802
  29	1	3	-0.063027	-96.1891	46.2131	2.58653
  30	1	2	0.499526	-97.4587	45.5929	3.04984
  31	1	1	-0.036881	-97.4781	44.3237	2.48896
  32	1	2	0.443545	-96.3711	44.0869	1.68401
  33	1	3	0.038197	-98.4445	43.3341	2.81471
  34	1	3	-0.408621	-98.0186	42.101	3.34035
  35	1	3	0.252781	-98.9568	41.1349	3.73476
  36	1	3	-0.169778	-99.8237	43.5825	2.67552
  37	1	3	-0.113042	-100.766	42.6083	3.057
  38	1	3	0.016958	-100.332	41.3771	3.58426
  39	1	6	0.167832	-96.1235	48.1456	3.56077
  40	1	6	0.134138	-93.8863	48.6811	2.6164
  41	1	6	0.145229	-93.85	44.8386	0.54958
  42	1	5	-0.462312	-96.0742	43.069	1.08331
  43	1	5	-0.483102	-98.2632	46.0911	3.81838
  44	1	6	0.144532	-101.829	42.8169	2.97567
  45	1	6	0.226042	-96.9602	41.8864	3.45801
  46	1	3	0.12103	-102.406	40.0754	3.46053
  47	1	3	-0.09864	-103.505	39.7266	4.26369
  48	1	3	-0.194398	-104.711	39.309	3.67116
  49	1	3	-0.091961	-104.813	39.2224	2.27292
  50	1	3	-0.197799	-103.711	39.5591	1.46764
  51	1	3	-0.102777	-102.507	39.9824	2.05995
  52	1	6	0.132074	-105.743	38.8916	1.81497
  53	1	6	0.154044	-103.789	39.4885	0.386298
  54	1	6	0.145155	-103.417	39.7821	5.34284
  55	1	6	0.14558	-101.651	40.2278	1.43807
  56	1	9	-0.24014	-101.228	40.4471	4.07086
  57	1	6	0.152938	-100.168	44.5413	2.29719
  58	1	6	0.151751	-105.557	39.0382	4.2973
  59	1	3	-0.004194	-80.7045	39.7615	4.89879
  60	1	3	-0.097141	-81.7078	39.2429	5.76101
  61	1	3	-0.172015	-81.3563	38.9849	7.11686
  62	1	5	-0.377994	-78.122	40.724	3.51646
  63	1	3	0.033493	-79.4169	39.966	5.40146
  64	1	3	-0.063739	-80.0376	39.158	7.59058
  65	1	5	-0.398381	-76.9558	39.5432	7.85392
  66	1	3	0.032144	-79.08	39.643	6.69878
  67	1	2	0.032313	-78.1915	40.4018	4.69099
  68	1	1	0.461698	-77.1635	40.2691	5.62495
  69	1	2	0.091945	-77.6142	39.8187	6.86339
  70	1	3	-0.10563	-86.3865	39.4606	7.30256
  71	1	7	-0.099376	-83.1201	38.8294	5.24902
  72	1	3	-0.043296	-84.1912	39.483	6.16029
  73	1	3	-0.073043	-85.3631	38.7983	6.59438
  74	1	3	-0.117827	-86.2251	40.823	7.56698
  75	1	3	-0.037562	-84.0604	40.861	6.46709
  76	1	3	-0.083705	-85.0913	41.4989	7.16261
  77	1	7	0.396	-83.1377	37.2494	5.27296
  78	1	7	0.310495	-83.4463	39.3371	3.78751
  79	1	8	-0.130298	-83.1802	36.7641	6.53706
  80	1	8	-0.128745	-84.1893	36.7165	4.61282
  81	1	8	-0.120019	-82.0261	36.7287	4.70063
  82	1	8	-0.104287	-84.7511	39.1679	3.4651
  83	1	8	-0.095507	-83.2034	40.6619	3.64085
  84	1	8	-0.104872	-82.7304	38.6895	2.84391
  85	1	2	0.456145	-85.2728	42.9377	7.47323
  86	1	2	0.550902	-87.1735	41.8103	8.14787
  87	1	1	0.015704	-86.5519	43.0422	8.00047
  88	1	5	-0.456801	-84.5036	43.838	7.18576
  89	1	5	-0.487703	-88.2879	41.5759	8.58292
  90	1	3	-0.116566	-87.2192	44.2827	8.19748
  91	1	3	-0.050109	-87.8633	44.9045	7.10173
  92	1	3	0.154929	-88.5751	46.1116	7.31453
  93	1	3	0.041555	-87.2514	44.8669	9.47817
  94	1	3	-0.223109	-87.9504	46.0687	9.67045
  95	1	3	-0.080449	-88.6193	46.6946	8.60331
  96	1	7	-0.108008	-86.5451	44.2105	10.6588
  97	1	7	-0.182228	-89.3414	48.0131	8.86441
  98	1	7	-0.345523	-87.7949	44.2368	5.71615
  99	1	6	0.155183	-80.8688	39.9569	3.84488
 100	1	6	0.172904	-82.1027	38.5954	7.80738
 101	1	6	0.158028	-79.7609	38.9007	8.61084
 102	1	6	0.153129	-87.2997	38.9428	7.59142
 103	1	6	0.142914	-85.5239	37.7524	6.35551
 104	1	6	0.135531	-83.21	41.4414	6.12412
 105	1	6	0.17765	-87.9754	46.5187	10.6587
 106	1	10	0.046541	-86.5036	44.8785	11.5267
 107	1	10	0.045238	-85.5126	43.9445	10.4067
 108	1	10	0.051941	-87.0664	43.2964	10.9644
 109	1	10	0.087961	-88.7823	48.8569	8.43528
 110	1	10	0.066782	-89.4543	48.2089	9.93818
 111	1	10	0.075908	-90.3493	48.0174	8.43099
 112	1	10	0.105172	-88.083	44.8958	4.89115
 113	1	10	0.115625	-88.4563	43.3597	5.67591
 114	1	10	0.140296	-86.7776	43.9084	5.46672
 115	1	3	-0.004194	-70.082	32.7925	-1.63298
 116	1	3	-0.097141	-70.0488	33.554	-0.436263
 117	1	3	-0.172015	-68.8293	34.1895	-0.0742781
 118	1	5	-0.377994	-69.5876	31.435	-4.30896
 119	1	3	0.033493	-68.9125	32.669	-2.38168
 120	1	3	-0.063739	-67.6521	34.0247	-0.834735
 121	1	5	-0.398381	-65.4934	33.1533	-2.89633
 122	1	3	0.032144	-67.7226	33.2314	-1.98152
 123	1	2	0.032313	-68.6956	31.9399	-3.64632
 124	1	1	0.461698	-67.3154	32.018	-3.89339
 125	1	2	0.091945	-66.6701	32.8309	-2.9482
 126	1	3	-0.10563	-71.9882	37.4033	0.10076
 127	1	7	-0.099376	-71.2494	33.6209	0.550031
 128	1	3	-0.043296	-71.5358	35.107	0.905565
 129	1	3	-0.073043	-71.578	36.0749	-0.136997
 130	1	3	-0.117827	-72.3154	37.7604	1.412
 131	1	3	-0.037562	-71.8759	35.5155	2.22198
 132	1	3	-0.083705	-72.2309	36.85	2.44317
 133	1	7	0.396	-70.8402	32.7387	1.7915
 134	1	7	0.310495	-72.5854	33.0339	-0.04369
 135	1	8	-0.130298	-71.8844	32.4124	2.58675
 136	1	8	-0.128745	-69.9195	33.3496	2.57192
 137	1	8	-0.120019	-70.2837	31.5723	1.39015
 138	1	8	-0.104287	-72.897	33.5972	-1.2322
 139	1	8	-0.095507	-73.6375	33.2592	0.776425
 140	1	8	-0.104872	-72.5294	31.696	-0.234135
 141	1	2	0.456145	-72.6868	37.5162	3.69062
 142	1	2	0.550902	-72.8683	39.0277	1.96011
 143	1	1	0.015704	-73.0805	38.7921	3.31142
 144	1	5	-0.456801	-72.7805	36.9996	4.79035
 145	1	5	-0.487703	-73.1688	40.0164	1.31346
 146	1	3	-0.116566	-73.75	39.7067	4.18011
 147	1	3	-0.050109	-75.1129	39.4969	4.50572
 148	1	3	0.154929	-75.7862	40.4477	5.31747
 149	1	3	0.041555	-73.0603	40.8334	4.68239
 150	1	3	-0.223109	-73.7384	41.7529	5.49946
 151	1	3	-0.080449	-75.0976	41.5806	5.81136
 152	1	7	-0.108008	-71.5998	41.0936	4.32379
 153	1	7	-0.182228	-75.8065	42.6551	6.63448
 154	1	7	-0.345523	-75.842	38.2644	3.93477
 155	1	6	0.155183	-70.9659	32.2751	-1.99124
 156	1	6	0.172904	-68.7778	34.7792	0.839063
 157	1	6	0.158028	-66.7067	34.4736	-0.532163
 158	1	6	0.153129	-72.0747	38.1251	-0.712571
 159	1	6	0.142914	-71.343	35.781	-1.15806
 160	1	6	0.135531	-71.9081	34.8278	3.06074
 161	1	6	0.17765	-73.2106	42.6291	5.86846
 162	1	10	0.046541	-71.1544	41.8664	4.96354
 163	1	10	0.045238	-71.5045	41.435	3.28344
 164	1	10	0.051941	-70.9888	40.1904	4.44156
 165	1	10	0.087961	-76.5729	43.1653	6.03849
 166	1	10	0.066782	-75.1081	43.4216	6.98826
 167	1	10	0.075908	-76.2882	42.2337	7.52417
 168	1	10	0.105172	-76.843	38.1016	4.34564
 169	1	10	0.115625	-75.3006	37.3364	4.14897
 170	1	10	0.140296	-75.9584	38.3495	2.84581
 171	1	1	0.48116	-60.3635	27.1736	8.50138
 172	1	2	0.034009	-61.4331	27.3604	7.63017
 173	1	3	0.028921	-61.6884	26.015	7.0611
 174	1	2	0.071556	-59.8382	25.8839	8.45998
 175	1	3	0.025276	-60.7303	25.1445	7.53525
 176	1	5	-0.381907	-62.0888	28.3713	7.43677
 177	1	5	-0.393799	-58.9703	25.3987	9.16733
 178	1	3	-0.008998	-62.7409	25.5723	6.25891
 179	1	3	-0.064503	-60.757	23.7876	7.20971
 180	1	3	-0.16756	-61.7797	23.3303	6.35365
 181	1	3	-0.085161	-62.783	24.2101	5.85484
 182	1	6	0.158939	-63.486	26.2916	5.92994
 183	1	6	0.163781	-60.0097	23.1103	7.61518
 184	1	6	0.161401	-61.772	22.275	6.10185
 185	1	7	-0.078003	-63.9007	23.763	4.86271
 186	1	7	0.303704	-65.2455	23.7189	5.69295
 187	1	8	-0.1084	-65.1248	22.9458	6.79645
 188	1	8	-0.101508	-66.3006	23.226	5.01022
 189	1	8	-0.111714	-65.6069	24.9497	6.11626
 190	1	7	0.380371	-63.6443	22.3508	4.2087
 191	1	8	-0.124028	-64.5445	22.0787	3.23768
 192	1	8	-0.119704	-63.7061	21.3308	5.09549
 193	1	8	-0.115877	-62.4304	22.2845	3.61365
 194	1	3	-0.024709	-63.9288	24.7972	3.69684
 195	1	3	-0.076489	-65.1085	25.0688	2.95179
 196	1	3	-0.052344	-65.0503	25.9973	1.90838
 197	1	3	-0.054202	-62.7273	25.4637	3.30976
 198	1	3	-0.149083	-62.7057	26.4417	2.29894
 199	1	3	-0.063027	-63.8915	26.6833	1.60992
 200	1	2	0.499526	-64.1373	27.5205	0.411624
 201	1	1	-0.036881	-65.4447	27.2487	0.0271018
 202	1	2	0.443545	-66.0711	26.3543	0.889243
 203	1	3	0.038197	-66.039	27.7786	-1.15299
 204	1	3	-0.408621	-65.3181	27.7724	-2.36339
 205	1	3	0.252781	-65.89	28.2807	-3.5379
 206	1	3	-0.169778	-67.3498	28.2961	-1.13865
 207	1	3	-0.113042	-67.9302	28.7969	-2.31783
 208	1	3	0.016958	-67.1913	28.8019	-3.51264
 209	1	6	0.167832	-61.7828	26.9487	2.01763
 210	1	6	0.134138	-61.7825	25.2286	3.79406
 211	1	6	0.145229	-66.0415	24.5471	3.12864
 212	1	5	-0.462312	-67.1926	25.8826	0.803908
 213	1	5	-0.483102	-63.3119	28.2296	-0.138869
 214	1	6	0.144532	-68.9541	29.1618	-2.31782
 215	1	6	0.226042	-64.3053	27.3811	-2.40618
 216	1	3	0.12103	-67.2593	30.2138	-5.4987
 217	1	3	-0.09864	-67.431	30.0358	-6.88028
 218	1	3	-0.194398	-66.9264	30.9775	-7.78563
 219	1	3	-0.091961	-66.2562	32.1062	-7.30095
 220	1	3	-0.197799	-66.1129	32.2985	-5.91865
 221	1	3	-0.102777	-66.6248	31.3728	-4.97756
 222	1	6	0.132074	-65.853	32.8436	-7.99941
 223	1	6	0.154044	-65.5895	33.1856	-5.56904
 224	1	6	0.145155	-67.9565	29.1573	-7.24298
 225	1	6	0.14558	-65.8112	31.0503	-4.33559
 226	1	9	-0.24014	-67.7806	29.2353	-4.67537
 227	1	6	0.152938	-67.9303	28.2869	-0.220716
 228	1	6	0.151751	-67.0553	30.8352	-8.85746
 229	1	3	-0.004194	-64.8973	30.8438	17.3744
 230	1	3	-0.097141	-65.6054	29.6516	17.6801
 231	1	3	-0.172015	-67.0261	29.7359	17.773
 232	1	5	-0.377994	-63.9434	33.6171	16.413
 233	1	3	0.033493	-65.6081	32.0129	17.0844
 234	1	3	-0.063739	-67.7223	30.9376	17.5138
 235	1	5	-0.398381	-68.5794	33.8449	16.7229
 236	1	3	0.032144	-66.9843	32.0681	17.1534
 237	1	2	0.032313	-65.109	33.3293	16.6257
 238	1	1	0.461698	-66.2489	34.1221	16.4724
 239	1	2	0.091945	-67.428	33.4396	16.7767
 240	1	3	-0.10563	-61.1213	27.84	16.6849
 241	1	7	-0.099376	-64.8152	28.3241	17.9358
 242	1	3	-0.043296	-63.5334	28.3076	17.0324
 243	1	3	-0.073043	-62.2592	27.8846	17.5152
 244	1	3	-0.117827	-61.2617	28.2378	15.354
 245	1	3	-0.037562	-63.6333	28.6628	15.6578
 246	1	3	-0.083705	-62.4835	28.6343	14.8537
 247	1	7	0.396	-65.6243	27.0249	17.5499
 248	1	7	0.310495	-64.5101	28.291	19.485
 249	1	8	-0.130298	-64.8287	25.9299	17.4874
 250	1	8	-0.128745	-66.1959	27.1526	16.333
 251	1	8	-0.120019	-66.6113	26.7233	18.423
 252	1	8	-0.104287	-65.6257	28.4945	20.2234
 253	1	8	-0.095507	-63.6414	29.264	19.8372
 254	1	8	-0.104872	-63.9902	27.1155	19.9051
 255	1	2	0.456145	-62.3036	28.9355	13.4047
 256	1	2	0.550902	-60.2625	28.282	14.2516
 257	1	1	0.015704	-60.9594	28.7004	13.127
 258	1	5	-0.456801	-63.1859	29.2579	12.6292
 259	1	5	-0.487703	-59.082	27.9942	14.3407
 260	1	3	-0.116566	-60.3535	28.8403	11.8381
 261	1	3	-0.050109	-60.6693	27.9342	10.7969
 262	1	3	0.154929	-60.0417	28.0895	9.53232
 263	1	3	0.041555	-59.4142	29.8744	11.6163
 264	1	3	-0.223109	-58.7983	30.0023	10.3617
 265	1	3	-0.080449	-59.1063	29.1275	9.30943
 266	1	7	-0.108008	-59.0478	30.8862	12.6993
 267	1	7	-0.182228	-58.415	29.3305	7.96138
 268	1	7	-0.345523	-61.7193	26.8302	11.0352
 269	1	6	0.155183	-63.8121	30.8679	17.3184
 270	1	6	0.172904	-67.6164	28.8662	18.0417
 271	1	6	0.158028	-68.8091	30.9885	17.5717
 272	1	6	0.153129	-60.1566	27.5021	17.0647
 273	1	6	0.142914	-62.1227	27.5728	18.5425
 274	1	6	0.135531	-64.5843	28.9597	15.2199
 275	1	6	0.17765	-58.0758	30.7995	10.2081
 276	1	10	0.046541	-58.6319	31.8025	12.2675
 277	1	10	0.045238	-58.2942	30.4754	13.3829
 278	1	10	0.051941	-59.9235	31.1849	13.294
 279	1	10	0.087961	-57.6485	30.1166	8.01614
 280	1	10	0.066782	-59.1357	29.6337	7.18775
 281	1	10	0.075908	-57.9133	28.4144	7.62184
 282	1	10	0.105172	-61.615	25.9548	10.3862
 283	1	10	0.115625	-62.7321	27.23	10.883
 284	1	10	0.140296	-61.6749	26.4295	12.054
 285	1	3	-0.004194	-58.2259	38.3859	19.4246
 286	1	3	-0.097141	-59.0647	39.18	20.2645
 287	1	3	-0.172015	-59.7565	38.5134	21.3167
 288	1	5	-0.377994	-57.0301	36.0848	17.7056
 289	1	3	0.033493	-58.1534	37.0009	19.6399
 290	1	3	-0.063739	-59.6134	37.135	21.5573
 291	1	5	-0.398381	-59.1876	34.1102	21.3148
 292	1	3	0.032144	-58.8124	36.3986	20.6878
 293	1	2	0.032313	-57.5864	35.9245	18.7804
 294	1	1	0.461698	-57.9506	34.7152	19.3927
 295	1	2	0.091945	-58.6667	34.9285	20.5749
 296	1	3	-0.10563	-63.3678	41.1181	19.5716
 297	1	7	-0.099376	-59.4628	40.6585	19.9308
 298	1	3	-0.043296	-60.9522	40.5417	19.4774
 299	1	3	-0.073043	-62.0295	41.3168	20.0003
 300	1	3	-0.117827	-63.6183	40.1396	18.5968
 301	1	3	-0.037562	-61.267	39.5481	18.5165
 302	1	3	-0.083705	-62.5826	39.3851	18.0937
 303	1	7	0.396	-59.2127	41.5894	21.1973
 304	1	7	0.310495	-58.6212	41.2822	18.7403
 305	1	8	-0.130298	-59.9246	41.2375	22.2871
 306	1	8	-0.128745	-59.5315	42.8889	20.9906
 307	1	8	-0.120019	-57.9137	41.5742	21.5759
 308	1	8	-0.104287	-58.9406	42.5744	18.4892
 309	1	8	-0.095507	-58.8129	40.6509	17.5613
 310	1	8	-0.104872	-57.2908	41.24	18.9893
 311	1	2	0.456145	-63.1193	38.4213	17.1118
 312	1	2	0.550902	-64.8806	39.669	17.9386
 313	1	1	0.015704	-64.4878	38.6365	17.0891
 314	1	5	-0.456801	-62.4767	37.5622	16.5326
 315	1	5	-0.487703	-66.0106	40.0819	18.1427
 316	1	3	-0.116566	-65.3579	37.7604	16.3782
 317	1	3	-0.050109	-65.5514	36.4486	16.8742
 318	1	3	0.154929	-66.1918	35.4823	16.0562
 319	1	3	0.041555	-65.8511	38.128	15.1083
 320	1	3	-0.223109	-66.5306	37.174	14.3338
 321	1	3	-0.080449	-66.6914	35.8529	14.7836
 322	1	7	-0.108008	-65.5852	39.5094	14.5205
 323	1	7	-0.182228	-67.3475	34.8378	13.8464
 324	1	7	-0.345523	-65.0071	36.0811	18.2659
 325	1	6	0.155183	-57.7133	38.7813	18.5565
 326	1	6	0.172904	-60.4836	39.0387	21.9252
 327	1	6	0.158028	-60.1783	36.6339	22.3392
 328	1	6	0.153129	-64.1833	41.7128	19.9811
 329	1	6	0.142914	-61.8481	42.078	20.7513
 330	1	6	0.135531	-60.5069	38.9012	18.0885
 331	1	6	0.17765	-66.887	37.4523	13.3458
 332	1	10	0.046541	-66.1723	39.6818	13.6118
 333	1	10	0.045238	-64.5273	39.6198	14.259
 334	1	10	0.051941	-65.8487	40.3007	15.2298
 335	1	10	0.087961	-66.7015	33.9669	13.6787
 336	1	10	0.066782	-67.5569	35.2733	12.8619
 337	1	10	0.075908	-68.3093	34.4848	14.2406
 338	1	10	0.105172	-63.9325	35.8566	18.2213
 339	1	10	0.115625	-65.5009	35.2087	18.7087
 340	1	10	0.140296	-65.1572	36.8936	18.9866
 341	1	1	0.48116	-40.9629	25.6455	20.399
 342	1	2	0.034009	-41.9093	24.6698	20.7101
 343	1	3	0.028921	-43.2072	25.388	20.7568
 344	1	2	0.071556	-41.5151	26.9196	20.281
 345	1	3	0.025276	-42.9712	26.7251	20.5111
 346	1	5	-0.381907	-41.7427	23.4701	20.8476
 347	1	5	-0.393799	-40.9578	27.9652	19.9876
 348	1	3	-0.008998	-44.4973	24.8962	20.9921
 349	1	3	-0.064503	-44.0122	27.6557	20.5209
 350	1	3	-0.16756	-45.3158	27.1892	20.7811
 351	1	3	-0.085161	-45.591	25.8073	20.9904
 352	1	6	0.158939	-44.6238	23.835	21.1828
 353	1	6	0.163781	-43.8088	28.7102	20.344
 354	1	6	0.161401	-46.114	27.9269	20.8226
 355	1	7	-0.078003	-47.0468	25.342	21.2858
 356	1	7	0.303704	-47.3478	23.9289	20.6347
 357	1	8	-0.1084	-46.7906	23.8113	19.4065
 358	1	8	-0.101508	-48.6731	23.6982	20.4791
 359	1	8	-0.111714	-46.8712	22.8933	21.357
 360	1	7	0.380371	-47.1798	25.2432	22.8529
 361	1	8	-0.124028	-46.9726	26.4464	23.4374
 362	1	8	-0.119704	-46.2614	24.42	23.4103
 363	1	8	-0.115877	-48.3986	24.7899	23.2296
 364	1	3	-0.024709	-48.0593	26.3597	20.6606
 365	1	3	-0.076489	-48.962	27.1513	21.4304
 366	1	3	-0.052344	-49.843	28.021	20.7762
 367	1	3	-0.054202	-48.086	26.5188	19.2455
 368	1	3	-0.149083	-49.0193	27.3575	18.604
 369	1	3	-0.063027	-49.8918	28.0983	19.404
 370	1	2	0.499526	-50.9778	29.0368	19.0251
 371	1	1	-0.036881	-51.5204	29.4886	20.2229
 372	1	2	0.443545	-50.8731	28.9424	21.3293
 373	1	3	0.038197	-52.6842	30.3071	20.2806
 374	1	3	-0.408621	-53.7998	29.9579	19.4991
 375	1	3	0.252781	-54.9459	30.762	19.4957
 376	1	3	-0.169778	-52.7517	31.4589	21.0902
 377	1	3	-0.113042	-53.9186	32.2495	21.1115
 378	1	3	0.016958	-55.0257	31.9021	20.3144
 379	1	6	0.167832	-49.0586	27.44	17.5238
 380	1	6	0.134138	-47.3837	25.9785	18.6215
 381	1	6	0.145229	-49.0216	27.1074	22.5121
 382	1	5	-0.462312	-51.0874	29.1421	22.5124
 383	1	5	-0.483102	-51.3513	29.2675	17.8877
 384	1	6	0.144532	-53.9694	33.1311	21.7432
 385	1	6	0.226042	-53.7757	29.0876	18.8496
 386	1	3	0.12103	-57.3103	32.4179	19.6179
 387	1	3	-0.09864	-57.9025	31.1385	19.6867
 388	1	3	-0.194398	-59.0147	30.8267	18.8918
 389	1	3	-0.091961	-59.5483	31.8059	18.045
 390	1	3	-0.197799	-58.973	33.088	17.9995
 391	1	3	-0.102777	-57.8311	33.4226	18.7732
 392	1	6	0.132074	-60.4162	31.5789	17.4314
 393	1	6	0.154044	-59.4242	33.8391	17.3474
 394	1	6	0.145155	-57.4934	30.3884	20.3579
 395	1	6	0.14558	-57.0255	33.7142	18.107
 396	1	9	-0.24014	-56.1581	32.6949	20.3313
 397	1	6	0.152938	-51.9043	31.7343	21.7124
 398	1	6	0.151751	-59.4618	29.8358	18.9344
 399	1	3	-0.004194	-34.1839	22.7002	12.5483
 400	1	3	-0.097141	-35.2591	22.3224	11.6966
 401	1	3	-0.172015	-35.45	23.0505	10.489
 402	1	5	-0.377994	-31.8302	24.1107	14.0156
 403	1	3	0.033493	-33.3906	23.7984	12.196
 404	1	3	-0.063739	-34.6309	24.1422	10.1471
 405	1	5	-0.398381	-32.5472	26.4138	10.0278
 406	1	3	0.032144	-33.6117	24.5001	11.0302
 407	1	2	0.032313	-32.2586	24.4354	12.9171
 408	1	1	0.461698	-31.8457	25.4892	12.0883
 409	1	2	0.091945	-32.6245	25.5978	10.9328
 410	1	3	-0.10563	-36.8261	20.3	15.8755
 411	1	7	-0.099376	-36.1778	21.1324	12.1069
 412	1	3	-0.043296	-36.4874	21.2694	13.6242
 413	1	3	-0.073043	-36.5272	20.1499	14.507
 414	1	3	-0.117827	-37.0868	21.5849	16.3526
 415	1	3	-0.037562	-36.7914	22.5538	14.149
 416	1	3	-0.083705	-37.0674	22.6805	15.5132
 417	1	7	0.396	-37.5787	21.1207	11.3837
 418	1	7	0.310495	-35.3958	19.8166	11.7393
 419	1	8	-0.130298	-38.4193	20.2209	11.9465
 420	1	8	-0.128745	-37.5043	20.8027	10.0723
 421	1	8	-0.120019	-38.1963	22.3202	11.4687
 422	1	8	-0.104287	-34.9296	19.8552	10.4715
 423	1	8	-0.095507	-36.1529	18.6979	11.8271
 424	1	8	-0.104872	-34.3195	19.6336	12.5378
 425	1	2	0.456145	-37.3739	23.8885	16.3202
 426	1	2	0.550902	-37.4204	22.054	17.7241
 427	1	1	0.015704	-37.588	23.4273	17.61
 428	1	5	-0.456801	-37.4148	25.0391	15.92
 429	1	5	-0.487703	-37.5081	21.3648	18.7262
 430	1	3	-0.116566	-37.9319	24.2666	18.7044
 431	1	3	-0.050109	-39.2864	24.6005	18.9436
 432	1	3	0.154929	-39.6092	25.3458	20.1075
 433	1	3	0.041555	-36.9105	24.7259	19.564
 434	1	3	-0.223109	-37.2499	25.4914	20.6859
 435	1	3	-0.080449	-38.5883	25.7816	20.9841
 436	1	7	-0.108008	-35.4411	24.3972	19.3209
 437	1	7	-0.182228	-38.8883	26.5581	22.2617
 438	1	7	-0.345523	-40.3722	24.1226	17.9573
 439	1	6	0.155183	-33.9781	22.1717	13.4747
 440	1	6	0.172904	-36.2374	22.7923	9.79065
 441	1	6	0.158028	-34.783	24.703	9.22824
 442	1	6	0.153129	-36.8506	19.4434	16.5446
 443	1	6	0.142914	-36.3279	19.1452	14.1525
 444	1	6	0.135531	-36.8059	23.4379	13.518
 445	1	6	0.17765	-36.4647	25.8365	21.354
 446	1	10	0.046541	-34.7872	24.9442	20.0111
 447	1	10	0.045238	-35.1346	24.6648	18.3039
 448	1	10	0.051941	-35.2474	23.3228	19.4678
 449	1	10	0.087961	-39.1058	27.6133	22.0385
 450	1	10	0.066782	-38.0377	26.5388	22.9538
 451	1	10	0.075908	-39.7469	26.1412	22.8036
 452	1	10	0.105172	-40.0542	24.2403	16.9152
 453	1	10	0.115625	-41.3132	24.6767	18.0312
 454	1	10	0.140296	-40.6056	23.0617	18.1206
 455	1	1	0.48116	-20.1381	23.0296	-2.10591
 456	1	2	0.034009	-20.8556	24.2306	-2.23435
 457	1	3	0.028921	-22.2312	23.9197	-1.76837
 458	1	2	0.071556	-20.9509	21.9816	-1.65206
 459	1	3	0.025276	-22.2832	22.5907	-1.41025
 460	1	5	-0.381907	-20.453	25.3461	-2.52758
 461	1	5	-0.393799	-20.6284	20.8334	-1.3883
 462	1	3	-0.008998	-23.2997	24.7945	-1.52976
 463	1	3	-0.064503	-23.41	22.0614	-0.777538
 464	1	3	-0.16756	-24.4725	22.9387	-0.474611
 465	1	3	-0.085161	-24.445	24.3176	-0.832967
 466	1	6	0.158939	-23.1717	25.8311	-1.8198
 467	1	6	0.163781	-23.4235	21.0217	-0.458519
 468	1	6	0.161401	-25.3052	22.5419	0.097041
 469	1	7	-0.078003	-25.6037	25.2477	-0.33403
 470	1	7	0.303704	-26.9435	24.7578	-1.02073
 471	1	8	-0.1084	-26.7696	24.5925	-2.35229
 472	1	8	-0.101508	-27.9765	25.6172	-0.868988
 473	1	8	-0.111714	-27.3796	23.5688	-0.548189
 474	1	7	0.380371	-25.4029	26.7766	-0.701135
 475	1	8	-0.124028	-24.2317	27.2779	-0.249106
 476	1	8	-0.119704	-26.3516	27.5632	-0.144131
 477	1	8	-0.115877	-25.4346	27.0061	-2.03294
 478	1	3	-0.024709	-25.6122	25.1623	1.22551
 479	1	3	-0.076489	-26.7994	25.0501	2.00338
 480	1	3	-0.052344	-26.6986	25.0444	3.40792
 481	1	3	-0.054202	-24.3698	25.2609	1.91481
 482	1	3	-0.149083	-24.291	25.2782	3.32291
 483	1	3	-0.063027	-25.4818	25.1794	4.04598
 484	1	2	0.499526	-25.7197	25.23	5.51346
 485	1	1	-0.036881	-27.092	25.0928	5.68066
 486	1	2	0.443545	-27.7515	24.9545	4.46343
 487	1	3	0.038197	-27.7325	25.0951	6.95519
 488	1	3	-0.408621	-27.2439	24.2728	7.98696
 489	1	3	0.252781	-27.8227	24.3072	9.26365
 490	1	3	-0.169778	-28.8346	25.9334	7.21621
 491	1	3	-0.113042	-29.4145	25.9752	8.49925
 492	1	3	0.016958	-28.8949	25.17	9.53076
 493	1	6	0.167832	-23.3346	25.3874	3.8369
 494	1	6	0.134138	-23.4441	25.3562	1.35164
 495	1	6	0.145229	-27.7833	24.9867	1.54998
 496	1	5	-0.462312	-28.9407	24.7614	4.27793
 497	1	5	-0.483102	-24.8663	25.3909	6.37109
 498	1	6	0.144532	-30.2611	26.6298	8.69458
 499	1	6	0.226042	-26.3881	23.6266	7.81929
 500	1	3	0.12103	-29.709	26.3871	11.4715
 501	1	3	-0.09864	-28.869	27.5088	11.3328
 502	1	3	-0.194398	-29.1881	28.7094	11.985
 503	1	3	-0.091961	-30.3753	28.7932	12.7254
 504	1	3	-0.197799	-31.1902	27.6595	12.8733
 505	1	3	-0.102777	-30.7808	26.3927	12.3891
 506	1	6	0.132074	-30.6724	29.743	13.1704
 507	1	6	0.154044	-32.1214	27.7514	13.4267
 508	1	6	0.145155	-27.9853	27.4543	10.7008
 509	1	6	0.14558	-30.3694	25.8881	13.256
 510	1	9	-0.24014	-29.4103	25.2149	10.8081
 511	1	6	0.152938	-29.2388	26.5621	6.42548
 512	1	6	0.151751	-28.5509	29.5839	11.8662
 513	1	1	0.48116	-15.3228	37.0655	-7.4522
 514	1	2	0.034009	-14.2227	36.1957	-7.43072
 515	1	3	0.028921	-14.5757	35.0863	-8.35097
 516	1	2	0.071556	-16.3694	36.5695	-8.2368
 517	1	3	0.025276	-15.8568	35.302	-8.81074
 518	1	5	-0.381907	-13.1687	36.3168	-6.82884
 519	1	5	-0.393799	-17.4613	37.0682	-8.46515
 520	1	3	-0.008998	-13.7962	34.0195	-8.814
 521	1	3	-0.064503	-16.4558	34.4314	-9.72102
 522	1	3	-0.16756	-15.6952	33.3389	-10.1852
 523	1	3	-0.085161	-14.3513	33.1252	-9.7678
 524	1	6	0.158939	-12.783	33.9296	-8.44589
 525	1	6	0.163781	-17.4666	34.6186	-10.0779
 526	1	6	0.161401	-16.149	32.6697	-10.913
 527	1	7	-0.078003	-13.5312	31.9795	-10.4373
 528	1	7	0.303704	-13.2036	32.4702	-11.9002
 529	1	8	-0.1084	-14.3113	32.544	-12.6669
 530	1	8	-0.101508	-12.3218	31.6661	-12.5388
 531	1	8	-0.111714	-12.6721	33.7154	-11.9086
 532	1	7	0.380371	-12.1716	31.6421	-9.71202
 533	1	8	-0.124028	-12.3298	31.507	-8.37694
 534	1	8	-0.119704	-11.2119	32.5715	-9.91913
 535	1	8	-0.115877	-11.6621	30.4668	-10.1501
 536	1	3	-0.024709	-14.3823	30.6746	-10.3784
 537	1	3	-0.076489	-15.0017	30.3249	-9.15054
 538	1	3	-0.052344	-15.6935	29.11	-9.05262
 539	1	3	-0.054202	-14.4908	29.7602	-11.4682
 540	1	3	-0.149083	-15.1855	28.5371	-11.345
 541	1	3	-0.063027	-15.7788	28.2351	-10.1147
 542	1	2	0.499526	-16.5044	27.0157	-9.66143
 543	1	1	-0.036881	-16.8103	27.243	-8.32186
 544	1	2	0.443545	-16.3716	28.489	-7.8865
 545	1	3	0.038197	-17.4105	26.2869	-7.45398
 546	1	3	-0.408621	-18.469	26.6555	-6.60281
 547	1	3	0.252781	-18.9646	25.7513	-5.65015
 548	1	3	-0.169778	-16.8863	24.9832	-7.37363
 549	1	3	-0.113042	-17.3754	24.0749	-6.42193
 550	1	3	0.016958	-18.403	24.4678	-5.55234
 551	1	6	0.167832	-15.243	27.8333	-12.1737
 552	1	6	0.134138	-14.0152	29.967	-12.4197
 553	1	6	0.145229	-14.926	30.968	-8.27628
 554	1	5	-0.462312	-16.4578	28.9725	-6.77007
 555	1	5	-0.483102	-16.7207	26.023	-10.3352
 556	1	6	0.144532	-16.9373	23.086	-6.32931
 557	1	6	0.226042	-18.8708	27.6636	-6.62452
 558	1	3	0.12103	-18.1541	23.6882	-3.28162
 559	1	3	-0.09864	-16.9616	24.4156	-3.07393
 560	1	3	-0.194398	-16.3023	24.3545	-1.83751
 561	1	3	-0.091961	-16.8379	23.5737	-0.807221
 562	1	3	-0.197799	-18.0352	22.8691	-1.01279
 563	1	3	-0.102777	-18.7142	22.8992	-2.25631
 564	1	6	0.132074	-16.3324	23.524	0.158122
 565	1	6	0.154044	-18.4376	22.274	-0.194653
 566	1	6	0.145155	-16.5288	25.0115	-3.87211
 567	1	6	0.14558	-18.7748	21.8865	-2.64143
 568	1	9	-0.24014	-18.7617	23.6389	-4.52137
 569	1	6	0.152938	-16.0673	24.685	-8.02493
 570	1	6	0.151751	-15.3788	24.9064	-1.68192
 571	1	1	0.48116	0.130596	32.3342	-11.2388
 572	1	2	0.034009	-0.468246	32.2342	-9.97294
 573	1	3	0.028921	-1.9247	32.432	-10.2091
 574	1	2	0.071556	-0.810861	32.5639	-12.2486
 575	1	3	0.025276	-2.12348	32.6083	-11.5619
 576	1	5	-0.381907	0.0605371	32.016	-8.89249
 577	1	5	-0.393799	-0.624551	32.7539	-13.4391
 578	1	3	-0.008998	-2.99251	32.4667	-9.30219
 579	1	3	-0.064503	-3.40056	32.801	-12.0918
 580	1	3	-0.16756	-4.48627	32.8454	-11.196
 581	1	3	-0.085161	-4.30745	32.7034	-9.79003
 582	1	6	0.158939	-2.7753	32.3155	-8.25073
 583	1	6	0.163781	-3.53761	32.929	-13.1636
 584	1	6	0.161401	-5.47932	33.017	-11.603
 585	1	7	-0.078003	-5.56156	32.7781	-8.86537
 586	1	7	0.303704	-5.22598	32.8517	-7.32775
 587	1	8	-0.1084	-6.32298	33.1174	-6.58054
 588	1	8	-0.101508	-4.34283	33.8381	-7.04875
 589	1	8	-0.111714	-4.7129	31.6967	-6.8522
 590	1	7	0.380371	-6.38849	31.4618	-9.1533
 591	1	8	-0.124028	-5.57621	30.3805	-9.23665
 592	1	8	-0.119704	-7.31713	31.1728	-8.21123
 593	1	8	-0.115877	-7.0507	31.5329	-10.3304
 594	1	3	-0.024709	-6.34581	34.0858	-9.18743
 595	1	3	-0.076489	-7.74431	34.1757	-8.98011
 596	1	3	-0.052344	-8.38975	35.3941	-9.22753
 597	1	3	-0.054202	-5.65549	35.264	-9.60234
 598	1	3	-0.149083	-6.33342	36.4742	-9.86866
 599	1	3	-0.063027	-7.71854	36.5088	-9.68053
 600	1	2	0.499526	-8.71137	37.6117	-9.86012
 601	1	1	-0.036881	-9.92981	37.0797	-9.46206
 602	1	2	0.443545	-9.81428	35.7571	-9.06356
 603	1	3	0.038197	-11.1562	37.798	-9.41753
 604	1	3	-0.408621	-12.2368	37.4198	-10.2374
 605	1	3	0.252781	-13.4845	38.0521	-10.0984
 606	1	3	-0.169778	-11.3257	38.8466	-8.49497
 607	1	3	-0.113042	-12.5797	39.4648	-8.33938
 608	1	3	0.016958	-13.6686	39.0459	-9.12084
 609	1	6	0.167832	-5.7986	37.3619	-10.2009
 610	1	6	0.134138	-4.57428	35.2471	-9.71701
 611	1	6	0.145229	-8.33217	33.3412	-8.61342
 612	1	5	-0.462312	-10.6791	35.0277	-8.62248
 613	1	5	-0.483102	-8.48793	38.7303	-10.2917
 614	1	6	0.144532	-12.7172	40.2391	-7.58878
 615	1	6	0.226042	-12.1303	36.6065	-10.9488
 616	1	3	0.12103	-15.5808	39.4347	-7.64846
 617	1	3	-0.09864	-16.4619	40.4725	-7.30498
 618	1	3	-0.194398	-17.1783	40.4315	-6.10002
 619	1	3	-0.091961	-17.0393	39.3243	-5.25233
 620	1	3	-0.197799	-16.1626	38.2842	-5.59779
 621	1	3	-0.102777	-15.384	38.3294	-6.77877
 622	1	6	0.132074	-17.6179	39.2686	-4.33516
 623	1	6	0.154044	-16.0798	37.4274	-4.9307
 624	1	6	0.145155	-16.5957	41.3074	-7.98756
 625	1	6	0.14558	-14.3464	38.3569	-6.47121
 626	1	9	-0.24014	-14.9334	39.5346	-8.87034
 627	1	6	0.152938	-10.4967	39.1476	-7.86062
 628	1	6	0.151751	-17.8617	41.2363	-5.8416
 629	1	1	0.48116	1.37126	15.1956	-20.1194
 630	1	2	0.034009	0.573193	16.2986	-20.4455
 631	1	3	0.028921	0.377007	17.0467	-19.1808
 632	1	2	0.071556	1.73856	15.2181	-18.7612
 633	1	3	0.025276	1.08176	16.4237	-18.1763
 634	1	5	-0.381907	0.160708	16.6539	-21.5375
 635	1	5	-0.393799	2.43666	14.4212	-18.1552
 636	1	3	-0.008998	-0.382772	18.1975	-18.9573
 637	1	3	-0.064503	1.08037	16.9451	-16.8753
 638	1	3	-0.16756	0.329958	18.1213	-16.6306
 639	1	3	-0.085161	-0.418122	18.7706	-17.6579
 640	1	6	0.158939	-0.918504	18.6071	-19.8061
 641	1	6	0.163781	1.64072	16.4502	-16.086