pySIMM System Object

574 atoms
630 bonds
1089 angles
1670 dihedrals
188 impropers

10 atom types
12 bond types
21 angle types
8 dihedral types
4 improper types

-108.104615 108.104615 xlo xhi
-108.104615 108.104615 ylo yhi
-108.104615 108.104615 zlo zhi

Masses

   1	14.01	# n
   2	12.01	# c
   3	12.01	# ca
   4	1.008	# hn
   5	16.0	# o
   6	1.008	# ha
   7	12.01	# c3
   8	19.0	# f
   9	16.0	# os
  10	1.008	# hc

Pair Coeffs

   1	0.17	3.249998523775958	# n
   2	0.086	3.3996695084235347	# c
   3	0.086	3.3996695084235347	# ca
   4	0.0157	1.069078461768407	# hn
   5	0.21	2.959921901149463	# o
   6	0.015	2.59964245953351	# ha
   7	0.1094	3.3996695084235347	# c3
   8	0.061	3.1181455134911875	# f
   9	0.17	3.0000123434657784	# os
  10	0.0157	2.649532787749369	# hc

Bond Coeffs

   1	345.8	1.086	# ca,ha
   2	427.6	1.3789	# c,n
   3	637.7	1.2183	# c,o
   4	321.0	1.5156	# c3,ca
   5	300.9	1.5375	# c3,c3
   6	384.2	1.4121	# ca,n
   7	376.6	1.3696	# ca,os
   8	403.2	1.0129	# hn,n
   9	356.9	1.3497	# c3,f
  10	461.1	1.3984	# ca,ca
  11	345.9	1.4906	# c,ca
  12	330.6	1.0969	# c3,hc

Angle Coeffs

   1	48.33	117.55	# c,n,hn
   2	74.22	123.05	# n,c,o
   3	64.28	120.33	# c,ca,ca
   4	66.11	109.24	# c3,c3,f
   5	63.48	119.89	# ca,os,ca
   6	63.53	120.77	# c3,ca,ca
   7	66.62	120.02	# ca,ca,ca
   8	63.15	112.07	# c3,c3,ca
   9	63.82	123.71	# c,n,ca
  10	62.86	111.51	# c3,c3,c3
  11	70.89	107.36	# f,c3,f
  12	67.87	120.19	# ca,ca,n
  13	63.74	127.08	# c,n,c
  14	48.18	119.88	# ca,ca,ha
  15	68.72	122.6	# ca,c,o
  16	63.56	112.24	# ca,c3,ca
  17	69.58	119.2	# ca,ca,os
  18	67.68	115.25	# ca,c,n
  19	49.75	116.02	# ha,ca,n
  20	39.4	107.58	# hc,c3,hc
  21	46.8	110.47	# ca,c3,hc

Dihedral Coeffs

   1	2	2.5	2	180	2.0	1	0	# hn,n,c,o
   2	1	3.625	2	180	# X,ca,ca,X
   3	1	1.0	2	180	# X,c,ca,X
   4	1	0.15555555555555556	3	0	# X,c3,c3,X
   5	1	0.0	2	0	# X,c3,ca,X
   6	1	0.9	2	180	# X,ca,os,X
   7	1	2.5	2	180	# X,c,n,X
   8	1	0.45	2	180	# X,ca,n,X

Improper Coeffs

   1	10.5	-1	2	# c,X,X,o
   2	1.1	-1	2	# ca,X,X,ha
   3	1.1	-1	2	# ca,ca,ca,c3
   4	1.1	-1	2	# n,X,X,hn

Atoms

   1	1	1	0.48116	-4.18127	7.23701	13.7573
   2	1	2	0.034009	-3.05575	6.39183	13.8898
   3	1	3	0.028921	-3.58322	5.03414	14.2456
   4	1	2	0.071556	-5.35198	6.51444	13.9748
   5	1	3	0.025276	-4.9555	5.13188	14.1783
   6	1	5	-0.381907	-1.89028	6.73732	13.8958
   7	1	5	-0.393799	-6.47407	6.87131	13.698
   8	1	3	-0.008998	-2.91098	3.83507	14.2282
   9	1	3	-0.064503	-5.7442	3.97499	14.2799
  10	1	3	-0.16756	-5.05829	2.7353	14.2301
  11	1	3	-0.085161	-3.63639	2.61428	14.1221
  12	1	6	0.158939	-1.84402	3.94008	14.1167
  13	1	6	0.163781	-6.82426	4.00807	14.2233
  14	1	6	0.161401	-5.69832	1.88599	14.2422
  15	1	7	-0.078003	-2.83843	1.20407	14.0421
  16	1	7	0.303704	-2.20403	0.937705	15.4699
  17	1	8	-0.1084	-1.47808	2.00466	15.9422
  18	1	8	-0.101508	-1.25952	-0.0839846	15.5224
  19	1	8	-0.111714	-3.13239	0.662589	16.417
  20	1	7	0.380371	-1.60859	1.39466	13.0613
  21	1	8	-0.124028	-1.9561	2.0775	11.904
  22	1	8	-0.119704	-0.576627	2.17158	13.5671
  23	1	8	-0.115877	-1.08666	0.209322	12.6675
  24	1	3	-0.024709	-3.64409	0.0891313	13.3654
  25	1	3	-0.076489	-3.73827	-1.2113	13.8916
  26	1	3	-0.052344	-4.33856	-2.22213	13.0931
  27	1	3	-0.054202	-4.23431	0.366323	12.1204
  28	1	3	-0.149083	-4.90077	-0.616976	11.3843
  29	1	3	-0.063027	-4.92223	-1.90668	11.8736
  30	1	2	0.499526	-5.60221	-3.12743	11.2641
  31	1	1	-0.036881	-5.43334	-4.09272	12.2332
  32	1	2	0.443545	-4.72706	-3.62837	13.3469
  33	1	3	0.038197	-5.78796	-5.47296	12.0975
  34	1	3	-0.408621	-5.22182	-6.21048	11.0773
  35	1	3	0.252781	-5.67029	-7.51653	10.771
  36	1	3	-0.169778	-6.781	-6.07653	12.8616
  37	1	3	-0.113042	-7.20336	-7.394	12.6669
  38	1	3	0.016958	-6.67557	-8.12371	11.6009
  39	1	6	0.167832	-5.31599	-0.403603	10.4034
  40	1	6	0.134138	-4.16549	1.38921	11.7186
  41	1	6	0.145229	-3.35791	-1.41169	14.8879
  42	1	5	-0.462312	-4.59004	-4.22186	14.4226
  43	1	5	-0.483102	-6.28968	-3.17775	10.2803
  44	1	6	0.144532	-7.99417	-7.82706	13.2982
  45	1	6	0.226042	-4.38654	-5.79795	10.5477
  46	1	3	0.12103	-6.10756	-10.4672	11.5059
  47	1	3	-0.09864	-4.92412	-10.3703	12.2818
  48	1	3	-0.194398	-3.98745	-11.4164	12.2808
  49	1	3	-0.091961	-4.2158	-12.544	11.5341
  50	1	3	-0.197799	-5.39832	-12.665	10.8154
  51	1	3	-0.102777	-6.3086	-11.6005	10.6968
  52	1	6	0.132074	-3.48303	-13.3294	11.58
  53	1	6	0.154044	-5.6127	-13.5867	10.2918
  54	1	6	0.145155	-4.77228	-9.54354	12.9233
  55	1	6	0.14558	-7.1802	-11.6467	10.0592
  56	1	9	-0.24014	-7.03535	-9.4468	11.4611
  57	1	6	0.152938	-7.25671	-5.48742	13.6448
  58	1	6	0.151751	-3.06571	-11.373	12.8418
  59	1	1	0.48116	-16.2727	2.30865	10.5115
  60	1	2	0.034009	-14.9983	2.47453	11.0994
  61	1	3	0.028921	-14.1706	1.32084	10.6242
  62	1	2	0.071556	-16.2535	1.31101	9.54912
  63	1	3	0.025276	-14.9224	0.674535	9.7219
  64	1	5	-0.381907	-14.6512	3.20269	12.0186
  65	1	5	-0.393799	-17.1114	0.936904	8.75231
  66	1	3	-0.008998	-12.9575	0.776319	11.0503
  67	1	3	-0.064503	-14.4933	-0.547644	9.19262
  68	1	3	-0.16756	-13.2327	-1.09896	9.55877
  69	1	3	-0.085161	-12.3858	-0.365297	10.422
  70	1	6	0.158939	-12.304	1.39108	11.6877
  71	1	6	0.163781	-15.1321	-1.12033	8.54462
  72	1	6	0.161401	-12.9614	-2.12096	9.23667
  73	1	7	-0.078003	-10.8766	-0.650166	10.6069
  74	1	7	0.303704	-10.7212	-1.08314	12.1353
  75	1	8	-0.1084	-9.41294	-1.30185	12.4104
  76	1	8	-0.101508	-11.4357	-2.17813	12.5424
  77	1	8	-0.111714	-10.8733	-0.0626173	12.9355
  78	1	7	0.380371	-10.2071	-1.79563	9.72584
  79	1	8	-0.124028	-10.6417	-1.72447	8.45962
  80	1	8	-0.119704	-10.3317	-3.0575	10.1529
  81	1	8	-0.115877	-8.85916	-1.66814	9.67627
  82	1	3	-0.024709	-10.2795	0.65825	10.0552
  83	1	3	-0.076489	-9.22737	1.32336	10.693
  84	1	3	-0.052344	-8.70803	2.4738	10.0992
  85	1	3	-0.054202	-10.8618	1.26916	8.88329
  86	1	3	-0.149083	-10.3914	2.4762	8.37746
  87	1	3	-0.063027	-9.2318	3.04405	8.95819
  88	1	2	0.499526	-8.55638	4.37083	8.76234
  89	1	1	-0.036881	-7.61537	4.46075	9.79172
  90	1	2	0.443545	-7.67008	3.37264	10.6443
  91	1	3	0.038197	-6.73664	5.55671	10.0435
  92	1	3	-0.408621	-7.30198	6.79101	10.3737
  93	1	3	0.252781	-6.51641	7.92134	10.5172
  94	1	3	-0.169778	-5.34619	5.4803	9.87598
  95	1	3	-0.113042	-4.56162	6.58552	10.1533
  96	1	3	0.016958	-5.13398	7.80132	10.5071
  97	1	6	0.167832	-10.859	2.85515	7.48082
  98	1	6	0.134138	-11.7134	0.759881	8.36646
  99	1	6	0.145229	-8.88005	1.01395	11.6907
 100	1	5	-0.462312	-6.95645	3.08106	11.601
 101	1	5	-0.483102	-8.68745	5.04197	7.73213
 102	1	6	0.144532	-3.47682	6.51252	10.111
 103	1	6	0.226042	-8.38083	6.87848	10.528
 104	1	3	0.12103	-4.75441	9.2458	12.4988
 105	1	3	-0.09864	-5.63994	10.3447	12.6097
 106	1	3	-0.194398	-5.94119	10.8668	13.8958
 107	1	3	-0.091961	-5.34409	10.3064	15.0346
 108	1	3	-0.197799	-4.37225	9.33425	14.8614
 109	1	3	-0.102777	-4.12642	8.67343	13.6491
 110	1	6	0.132074	-5.60069	10.6482	16.0074
 111	1	6	0.154044	-3.86094	9.01068	15.7417
 112	1	6	0.145155	-6.14468	10.7877	11.7215
 113	1	6	0.14558	-3.05511	8.75145	13.4919
 114	1	9	-0.24014	-4.43469	8.77111	11.2037
 115	1	6	0.152938	-4.83793	4.59564	9.49049
 116	1	6	0.151751	-6.64795	11.7077	13.9893
 117	1	1	0.48116	-11.3354	-9.1516	16.0321
 118	1	2	0.034009	-12.3767	-9.46662	15.1625
 119	1	3	0.028921	-12.0763	-8.78398	13.8995
 120	1	2	0.071556	-10.4248	-8.18727	15.4768
 121	1	3	0.025276	-10.9817	-7.96012	14.1241
 122	1	5	-0.381907	-13.3443	-10.1987	15.3139
 123	1	5	-0.393799	-9.30436	-7.80183	15.8219
 124	1	3	-0.008998	-12.7022	-8.90181	12.6739
 125	1	3	-0.064503	-10.6981	-6.93794	13.2231
 126	1	3	-0.16756	-11.3664	-6.99888	11.9906
 127	1	3	-0.085161	-12.2831	-8.04046	11.6406
 128	1	6	0.158939	-13.5087	-9.60724	12.5814
 129	1	6	0.163781	-9.87797	-6.21591	13.3433
 130	1	6	0.161401	-11.0967	-6.17938	11.323
 131	1	7	-0.078003	-12.9573	-8.01897	10.2149
 132	1	7	0.303704	-11.8335	-7.95524	9.13476
 133	1	8	-0.1084	-10.9804	-8.99574	9.24512
 134	1	8	-0.101508	-11.1485	-6.77748	9.17335
 135	1	8	-0.111714	-12.3503	-8.02205	7.87103
 136	1	7	0.380371	-13.7846	-9.38546	9.95559
 137	1	8	-0.124028	-14.92	-9.30141	10.6255
 138	1	8	-0.119704	-13.1639	-10.5156	10.3938
 139	1	8	-0.115877	-14.0583	-9.6248	8.64258
 140	1	3	-0.024709	-14.0069	-6.84768	10.187
 141	1	3	-0.076489	-14.1864	-5.95231	11.2472
 142	1	3	-0.052344	-15.1683	-4.95695	11.1664
 143	1	3	-0.054202	-14.7469	-6.61516	8.99929
 144	1	3	-0.149083	-15.6296	-5.52582	8.85896
 145	1	3	-0.063027	-15.816	-4.73969	9.96605
 146	1	2	0.499526	-16.4955	-3.41375	10.0517
 147	1	1	-0.036881	-16.1478	-2.94163	11.2981
 148	1	2	0.443545	-15.3705	-3.83543	12.0804
 149	1	3	0.038197	-16.5737	-1.70323	11.809
 150	1	3	-0.408621	-17.8141	-1.1255	11.5009
 151	1	3	0.252781	-18.1576	0.0450026	12.1469
 152	1	3	-0.169778	-15.6044	-1.01882	12.54
 153	1	3	-0.113042	-15.9038	0.205783	13.1077
 154	1	3	0.016958	-17.1707	0.742002	12.8799
 155	1	6	0.167832	-16.1603	-5.3333	7.93939
 156	1	6	0.134138	-14.608	-7.23527	8.16787
 157	1	6	0.145229	-13.5474	-5.98917	12.1407
 158	1	5	-0.462312	-14.8908	-3.67525	13.1865
 159	1	5	-0.483102	-17.0616	-2.806	9.12303
 160	1	6	0.144532	-15.1606	0.688002	13.6999
 161	1	6	0.226042	-18.5052	-1.55334	10.8178
 162	1	3	0.12103	-17.7071	3.01959	12.3187
 163	1	3	-0.09864	-18.1812	4.21779	12.8648
 164	1	3	-0.194398	-18.63	5.20839	12.015
 165	1	3	-0.091961	-18.5558	5.04323	10.6436
 166	1	3	-0.197799	-18.0093	3.86389	10.0496
 167	1	3	-0.102777	-17.5681	2.84177	10.8943
 168	1	6	0.132074	-18.9644	5.88649	10.0256
 169	1	6	0.154044	-18.0471	3.72825	8.99697
 170	1	6	0.145155	-18.3024	4.31811	13.9219
 171	1	6	0.14558	-18.1507	2.02335	10.5413
 172	1	9	-0.24014	-17.2566	2.08143	13.1955
 173	1	6	0.152938	-14.6204	-1.43659	12.7432
 174	1	6	0.151751	-18.9247	6.12501	12.5076
 175	1	1	0.48116	-1.02012	-15.9621	9.25478
 176	1	2	0.034009	-0.611922	-16.3918	10.4852
 177	1	3	0.028921	-0.105993	-15.2101	11.167
 178	1	2	0.071556	-0.73053	-14.5839	9.07954
 179	1	3	0.025276	-0.259674	-14.0903	10.3995
 180	1	5	-0.381907	-0.370074	-17.5574	10.7861
 181	1	5	-0.393799	-0.944433	-13.9179	8.07107
 182	1	3	-0.008998	0.368663	-15.1611	12.4739
 183	1	3	-0.064503	0.0934909	-12.8005	10.843
 184	1	3	-0.16756	0.490586	-12.7141	12.1958
 185	1	3	-0.085161	0.702471	-13.8655	13.0201
 186	1	6	0.158939	0.358026	-16.0482	13.1109
 187	1	6	0.163781	-0.0151913	-11.921	10.2592
 188	1	6	0.161401	0.738824	-11.7244	12.5475
 189	1	7	-0.078003	1.27396	-13.7119	14.4919
 190	1	7	0.303704	2.12336	-14.9356	14.9461
 191	1	8	-0.1084	3.00602	-15.2145	14.0041
 192	1	8	-0.101508	1.37058	-16.0684	15.1889
 193	1	8	-0.111714	2.81785	-14.7535	16.1416
 194	1	7	0.380371	2.16927	-12.3663	14.6096
 195	1	8	-0.124028	3.04088	-12.2072	15.6868
 196	1	8	-0.119704	1.28743	-11.3466	14.7275
 197	1	8	-0.115877	2.95979	-12.0874	13.5408
 198	1	3	-0.024709	0.0737809	-13.684	15.4047
 199	1	3	-0.076489	-1.26975	-13.8323	14.9734
 200	1	3	-0.052344	-2.27561	-13.4359	15.8778
 201	1	3	-0.054202	0.333018	-13.2614	16.7552
 202	1	3	-0.149083	-0.732582	-12.9221	17.6222
 203	1	3	-0.063027	-2.03784	-12.9627	17.1379
 204	1	2	0.499526	-3.28359	-12.4003	17.7182
 205	1	1	-0.036881	-4.25882	-12.6343	16.7779
 206	1	2	0.443545	-3.75589	-13.2899	15.6563
 207	1	3	0.038197	-5.58048	-12.1486	16.9007
 208	1	3	-0.408621	-6.02154	-10.9613	16.2833
 209	1	3	0.252781	-7.40549	-10.6502	16.2919
 210	1	3	-0.169778	-6.50303	-12.8893	17.6724
 211	1	3	-0.113042	-7.84359	-12.478	17.7674
 212	1	3	0.016958	-8.32921	-11.4001	17.0329
 213	1	6	0.167832	-0.497852	-12.5321	18.6028
 214	1	6	0.134138	1.31189	-13.1887	17.1789
 215	1	6	0.145229	-1.52592	-14.0454	13.9341
 216	1	5	-0.462312	-4.40179	-13.7412	14.7249
 217	1	5	-0.483102	-3.3177	-11.8518	18.8146
 218	1	6	0.144532	-8.53415	-13.0965	18.3796
 219	1	6	0.226042	-5.33927	-10.289	15.7475
 220	1	3	0.12103	-10.2084	-10.1288	17.9213
 221	1	3	-0.09864	-9.69371	-9.74357	19.1773
 222	1	3	-0.194398	-10.3637	-8.80784	20.0032
 223	1	3	-0.091961	-11.5109	-8.20509	19.4804
 224	1	3	-0.197799	-11.9468	-8.48345	18.1963
 225	1	3	-0.102777	-11.3642	-9.50785	17.413
 226	1	6	0.132074	-12.0591	-7.42474	20.0191
 227	1	6	0.154044	-12.8522	-7.92957	17.9536
 228	1	6	0.145155	-8.77402	-10.2006	19.4675
 229	1	6	0.14558	-12.0942	-10.2986	17.2887
 230	1	9	-0.24014	-9.6371	-11.0613	17.0309
 231	1	6	0.152938	-6.2413	-13.7723	18.146
 232	1	6	0.151751	-9.92079	-8.49025	20.9426
 233	1	3	-0.004194	0.629675	-18.1816	-1.07161
 234	1	3	-0.097141	0.864692	-19.3711	-0.344315
 235	1	3	-0.172015	1.9041	-19.3635	0.581617
 236	1	5	-0.377994	0.77202	-15.2512	-2.11824
 237	1	3	0.033493	1.62852	-17.1824	-1.04551
 238	1	3	-0.063739	2.87872	-18.3844	0.613395
 239	1	5	-0.398381	4.84338	-16.1454	-0.054677
 240	1	3	0.032144	2.7688	-17.3437	-0.269103
 241	1	2	0.032313	1.70723	-15.7921	-1.58082
 242	1	1	0.461698	2.88291	-15.2099	-1.09248
 243	1	2	0.091945	3.69484	-16.1753	-0.430019
 244	1	3	-0.10563	-1.03603	-21.892	3.15733
 245	1	7	-0.099376	-0.0649232	-20.6314	-0.426576
 246	1	3	-0.043296	-0.612524	-20.6825	1.0493
 247	1	3	-0.073043	-0.858715	-21.9031	1.76449
 248	1	3	-0.117827	-1.14214	-20.7085	3.84528
 249	1	3	-0.037562	-0.837109	-19.4607	1.77286
 250	1	3	-0.083705	-1.12125	-19.512	3.14333
 251	1	7	0.396	-1.22169	-20.4429	-1.42278
 252	1	7	0.310495	0.822056	-21.8736	-0.88789
 253	1	8	-0.130298	-2.08176	-21.4436	-1.30884
 254	1	8	-0.128745	-0.819899	-20.2749	-2.71902
 255	1	8	-0.120019	-1.99743	-19.3989	-1.0853
 256	1	8	-0.104287	1.7913	-22.2028	-0.000497976
 257	1	8	-0.095507	1.49051	-21.6551	-2.00327
 258	1	8	-0.104872	0.100537	-23.0011	-1.16417
 259	1	2	0.456145	-1.33694	-18.3711	4.0824
 260	1	2	0.550902	-1.40238	-20.4075	5.27033
 261	1	1	0.015704	-1.51952	-19.0273	5.28734
 262	1	5	-0.456801	-1.49673	-17.1676	3.87796
 263	1	5	-0.487703	-1.59932	-21.2704	6.10962
 264	1	3	-0.116566	-1.98389	-18.2596	6.39075
 265	1	3	-0.050109	-1.17459	-17.5392	7.33843
 266	1	3	0.154929	-1.7811	-16.8487	8.421
 267	1	3	0.041555	-3.40169	-18.3109	6.54402
 268	1	3	-0.223109	-3.91775	-17.6996	7.67306
 269	1	3	-0.080449	-3.16256	-16.9638	8.58956
 270	1	7	-0.108008	-4.44258	-18.9859	5.62577
 271	1	7	-0.182228	-3.87279	-16.1633	9.71156
 272	1	7	-0.345523	0.345799	-17.5393	7.17949
 273	1	6	0.155183	-0.230905	-18.0494	-1.67172
 274	1	6	0.172904	2.07012	-20.242	1.23665
 275	1	6	0.158028	3.71412	-18.4024	1.32391
 276	1	6	0.153129	-1.23964	-22.8899	3.61338
 277	1	6	0.142914	-0.817721	-22.8619	1.23715
 278	1	6	0.135531	-0.821708	-18.4759	1.30499
 279	1	6	0.17765	-5.00513	-17.687	7.80312
 280	1	10	0.046541	-4.24192	-20.0729	5.54101
 281	1	10	0.045238	-4.34532	-18.582	4.59317
 282	1	10	0.051941	-5.48246	-18.8574	5.92445
 283	1	10	0.087961	-4.95575	-16.2774	9.61408
 284	1	10	0.066782	-3.65132	-15.1245	9.70185
 285	1	10	0.075908	-3.60431	-16.5993	10.6658
 286	1	10	0.105172	0.796478	-16.6535	7.60002
 287	1	10	0.115625	0.726344	-17.5892	6.1676
 288	1	10	0.140296	0.772891	-18.3947	7.74768
 289	1	1	0.48116	-0.593318	-0.560554	7.36512
 290	1	2	0.034009	-1.81177	-1.23474	7.62645
 291	1	3	0.028921	-1.77865	-2.51558	6.88831
 292	1	2	0.071556	0.206344	-1.37304	6.55973
 293	1	3	0.025276	-0.63926	-2.53176	6.20388
 294	1	5	-0.381907	-2.76974	-0.80194	8.22304
 295	1	5	-0.393799	1.28294	-1.07371	6.02967
 296	1	3	-0.008998	-2.65817	-3.6018	6.90666
 297	1	3	-0.064503	-0.501091	-3.40972	5.1256
 298	1	3	-0.16756	-1.42989	-4.41852	5.02081
 299	1	3	-0.085161	-2.41565	-4.68063	6.03361
 300	1	6	0.158939	-3.43874	-3.61517	7.69325
 301	1	6	0.163781	0.412595	-3.33723	4.53247
 302	1	6	0.161401	-1.25203	-5.23065	4.28385
 303	1	7	-0.078003	-3.23454	-6.04765	6.24091
 304	1	7	0.303704	-4.73441	-5.73463	6.06952
 305	1	8	-0.1084	-5.24758	-4.78883	6.8967
 306	1	8	-0.101508	-5.52948	-6.85209	6.22865
 307	1	8	-0.111714	-5.04955	-5.25576	4.85162
 308	1	7	0.380371	-3.0744	-6.67988	7.66806
 309	1	8	-0.124028	-3.98551	-6.19997	8.50607
 310	1	8	-0.119704	-1.8863	-6.38298	8.16368
 311	1	8	-0.115877	-3.37241	-7.98061	7.78211
 312	1	3	-0.024709	-2.76608	-7.13114	5.22833
 313	1	3	-0.076489	-1.60268	-7.85745	5.49796
 314	1	3	-0.052344	-0.992271	-8.70513	4.52293
 315	1	3	-0.054202	-3.41599	-7.50189	4.04465
 316	1	3	-0.149083	-2.85534	-8.28279	3.0621
 317	1	3	-0.063027	-1.55809	-8.86468	3.30236
 318	1	2	0.499526	-0.628394	-9.60543	2.43274
 319	1	1	-0.036881	0.411681	-10.0081	3.2953
 320	1	2	0.443545	0.244541	-9.50915	4.59281
 321	1	3	0.038197	1.40592	-11.0165	2.88487
 322	1	3	-0.408621	0.948471	-12.2503	2.37748
 323	1	3	0.252781	1.87085	-13.1976	1.85555
 324	1	3	-0.169778	2.79697	-10.8377	3.13914
 325	1	3	-0.113042	3.7105	-11.7418	2.59785
 326	1	3	0.016958	3.23351	-12.9043	1.89814
 327	1	6	0.167832	-3.36154	-8.49469	2.14285
 328	1	6	0.134138	-4.40408	-7.21627	3.78973
 329	1	6	0.145229	-1.04325	-7.75735	6.42554
 330	1	5	-0.462312	0.939267	-9.70483	5.57399
 331	1	5	-0.483102	-0.805068	-9.88081	1.22121
 332	1	6	0.144532	4.78787	-11.6571	2.82593
 333	1	6	0.226042	-0.0932628	-12.501	2.43321
 334	1	3	0.12103	3.95527	-13.1575	-0.337216
 335	1	3	-0.09864	4.68432	-12.0366	-0.726748
 336	1	3	-0.194398	4.50133	-11.4288	-1.97454
 337	1	3	-0.091961	3.75747	-12.0867	-2.94596
 338	1	3	-0.197799	3.17363	-13.282	-2.62949
 339	1	3	-0.102777	3.12039	-13.8066	-1.2918
 340	1	6	0.132074	3.6609	-11.7543	-3.94727
 341	1	6	0.154044	2.73381	-13.8967	-3.42662
 342	1	6	0.145155	5.28454	-11.5953	0.0584399
 343	1	6	0.14558	2.16036	-13.5297	-0.929051
 344	1	9	-0.24014	4.04276	-13.59	1.00491
 345	1	6	0.152938	3.17259	-9.90518	3.53304
 346	1	6	0.151751	5.02179	-10.4939	-2.19555
 347	1	3	-0.004194	1.70988	9.43867	2.18509
 348	1	3	-0.097141	0.37425	9.0018	2.03044
 349	1	3	-0.172015	0.0933603	8.0108	1.06541
 350	1	5	-0.377994	4.85472	9.7926	1.95975
 351	1	3	0.033493	2.67835	8.84166	1.3639
 352	1	3	-0.063739	1.07591	7.42575	0.236688
 353	1	5	-0.398381	3.64886	6.45528	-0.959188
 354	1	3	0.032144	2.3683	7.85378	0.44255
 355	1	2	0.032313	4.16503	9.02195	1.31311
 356	1	1	0.461698	4.61964	8.09481	0.348695
 357	1	2	0.091945	3.58385	7.36962	-0.203335
 358	1	3	-0.10563	-3.173	6.87602	4.77127
 359	1	7	-0.099376	-0.825431	9.48314	2.92529
 360	1	3	-0.043296	-1.36285	8.23756	3.65947
 361	1	3	-0.073043	-2.72734	8.04006	4.09373
 362	1	3	-0.117827	-2.24071	5.85469	5.02627
 363	1	3	-0.037562	-0.472388	7.19572	3.98199
 364	1	3	-0.083705	-0.908346	6.03736	4.63148
 365	1	7	0.396	-0.489757	10.4865	4.08683
 366	1	7	0.310495	-1.90554	10.1889	1.94301
 367	1	8	-0.130298	0.490953	9.9814	4.91781
 368	1	8	-0.128745	-1.58797	10.7708	4.79673
 369	1	8	-0.120019	0.00974693	11.7057	3.75394
 370	1	8	-0.104287	-2.67043	9.24648	1.36089
 371	1	8	-0.095507	-1.24887	10.739	0.885789
 372	1	8	-0.104872	-2.70847	11.152	2.46721
 373	1	2	0.456145	-0.098534	4.94537	5.31426
 374	1	2	0.550902	-2.32325	4.588	5.92255
 375	1	1	0.015704	-1.02777	4.15817	6.0348
 376	1	5	-0.456801	1.07162	4.67234	5.12782
 377	1	5	-0.487703	-3.26377	4.23672	6.62228
 378	1	3	-0.116566	-0.598319	3.10777	6.90434
 379	1	3	-0.050109	-0.839652	1.73307	6.62804
 380	1	3	0.154929	-0.35765	0.804794	7.63871
 381	1	3	0.041555	0.0590146	3.47636	8.11005
 382	1	3	-0.223109	0.577609	2.54728	9.0224
 383	1	3	-0.080449	0.270862	1.17587	8.85985
 384	1	7	-0.108008	0.379867	4.91508	8.44434
 385	1	7	-0.182228	0.895604	0.2361	9.8474
 386	1	7	-0.345523	-1.31663	1.35163	5.20128
 387	1	6	0.155183	1.96695	10.2217	2.82289
 388	1	6	0.172904	-0.938972	7.65995	0.881736
 389	1	6	0.158028	0.909605	6.62878	-0.519165
 390	1	6	0.153129	-4.23543	6.80725	5.11609
 391	1	6	0.142914	-3.38162	8.85886	3.9411
 392	1	6	0.135531	0.536306	7.24851	3.66044
 393	1	6	0.17765	1.05811	2.9259	9.95948
 394	1	10	0.046541	1.37852	5.00496	8.84151
 395	1	10	0.045238	-0.354236	5.28883	9.15605
 396	1	10	0.051941	0.41558	5.607	7.59807
 397	1	10	0.087961	0.459824	0.505805	10.8143
 398	1	10	0.066782	2.01271	0.214418	9.82451
 399	1	10	0.075908	0.534527	-0.783621	9.74223
 400	1	10	0.105172	-1.58426	0.289416	4.98807
 401	1	10	0.115625	-0.537997	1.59029	4.47463
 402	1	10	0.140296	-2.21694	1.85403	4.85789
 403	1	1	0.48116	11.545	4.52959	-16.4769
 404	1	2	0.034009	11.4057	4.57792	-15.112
 405	1	3	0.028921	11.1267	6.05389	-14.8055
 406	1	2	0.071556	11.2943	5.7256	-17.0949
 407	1	3	0.025276	11.0341	6.71013	-15.9824
 408	1	5	-0.381907	11.7122	3.73099	-14.2635
 409	1	5	-0.393799	11.2587	5.9134	-18.3022
 410	1	3	-0.008998	11.1594	6.7812	-13.5749
 411	1	3	-0.064503	10.9763	8.10422	-15.998
 412	1	3	-0.16756	11.0546	8.81477	-14.799
 413	1	3	-0.085161	11.0791	8.18299	-13.497
 414	1	6	0.158939	11.5376	6.23172	-12.7203
 415	1	6	0.163781	11.1085	8.58787	-16.9506
 416	1	6	0.161401	11.2832	9.81278	-14.9272
 417	1	7	-0.078003	11.3064	9.00331	-12.1886
 418	1	7	0.303704	12.6507	8.51533	-11.4501
 419	1	8	-0.1084	13.5819	8.48266	-12.3931
 420	1	8	-0.101508	12.4846	7.31383	-10.804
 421	1	8	-0.111714	13.0764	9.32894	-10.4867
 422	1	7	0.380371	11.3185	10.6098	-12.36
 423	1	8	-0.124028	11.3536	11.3253	-11.215
 424	1	8	-0.119704	10.1875	11.0188	-12.9511
 425	1	8	-0.115877	12.3469	11.133	-13.1069
 426	1	3	-0.024709	10.024	8.9355	-11.3097
 427	1	3	-0.076489	10.1262	8.72036	-9.94325
 428	1	3	-0.052344	8.99307	8.56481	-9.18819
 429	1	3	-0.054202	8.73605	8.96258	-11.904
 430	1	3	-0.149083	7.54183	8.75229	-11.157
 431	1	3	-0.063027	7.7008	8.62984	-9.77183
 432	1	2	0.499526	6.74965	8.32414	-8.63805
 433	1	1	-0.036881	7.52205	8.21775	-7.48671
 434	1	2	0.443545	8.89425	8.32569	-7.72737
 435	1	3	0.038197	7.01016	8.48722	-6.18713
 436	1	3	-0.408621	5.97043	9.38522	-5.91695
 437	1	3	0.252781	5.46927	9.49094	-4.604
 438	1	3	-0.169778	7.4268	7.68189	-5.08755
 439	1	3	-0.113042	6.94091	7.78586	-3.73871
 440	1	3	0.016958	5.94832	8.72539	-3.51087
 441	1	6	0.167832	6.55778	8.62146	-11.579
 442	1	6	0.134138	8.67103	8.94578	-13.069
 443	1	6	0.145229	11.0983	8.69697	-9.41026
 444	1	5	-0.462312	9.83315	8.18724	-6.98499
 445	1	5	-0.483102	5.53403	8.58064	-8.68252
 446	1	6	0.144532	7.29664	7.13812	-2.96446
 447	1	6	0.226042	5.45143	9.94323	-6.70863
 448	1	3	0.12103	6.33861	8.73603	-1.06311
 449	1	3	-0.09864	7.5974	9.30547	-1.08098
 450	1	3	-0.194398	8.38214	9.31609	0.0422888
 451	1	3	-0.091961	8.03086	8.62165	1.19807
 452	1	3	-0.197799	6.79823	7.89104	1.15943
 453	1	3	-0.102777	5.9696	7.86303	0.013352
 454	1	6	0.132074	8.50474	8.74677	2.20432
 455	1	6	0.154044	6.53145	7.29465	1.96934
 456	1	6	0.145155	7.99419	9.75685	-1.97029
 457	1	6	0.14558	5.88021	6.86293	-0.323691
 458	1	9	-0.24014	5.51801	8.89413	-2.17147
 459	1	6	0.152938	8.26198	6.98427	-5.24413
 460	1	6	0.151751	9.30655	9.89798	0.0154211
 461	1	3	-0.004194	6.98519	-4.87476	-22.4703
 462	1	3	-0.097141	7.39108	-3.52576	-22.3906
 463	1	3	-0.172015	6.86508	-2.74328	-21.3378
 464	1	5	-0.377994	5.25374	-7.36853	-22.5219
 465	1	3	0.033493	5.98258	-5.34458	-21.5996
 466	1	3	-0.063739	5.97552	-3.27414	-20.3287
 467	1	5	-0.398381	3.82574	-4.89246	-18.8579
 468	1	3	0.032144	5.58373	-4.57377	-20.5334
 469	1	2	0.032313	5.17635	-6.59123	-21.579
 470	1	1	0.461698	4.20383	-6.38368	-20.5986
 471	1	2	0.091945	4.44771	-5.2537	-19.8676
 472	1	3	-0.10563	10.0419	0.599404	-23.1055
 473	1	7	-0.099376	8.3169	-2.95685	-23.5109
 474	1	3	-0.043296	9.13354	-1.68519	-22.9836
 475	1	3	-0.073043	9.34126	-0.493744	-23.7308
 476	1	3	-0.117827	10.4725	0.529307	-21.786
 477	1	3	-0.037562	9.78654	-1.78555	-21.6674
 478	1	3	-0.083705	10.4567	-0.669125	-21.0913
 479	1	7	0.396	7.45654	-2.69533	-24.8149
 480	1	7	0.310495	9.44111	-4.0348	-23.849
 481	1	8	-0.130298	8.27713	-2.583	-25.8814
 482	1	8	-0.128745	6.72226	-1.5654	-24.7032
 483	1	8	-0.120019	6.5999	-3.71127	-24.994
 484	1	8	-0.104287	9.98467	-4.58071	-22.732
 485	1	8	-0.095507	10.5531	-3.48477	-24.4157
 486	1	8	-0.104872	9.05397	-5.05189	-24.7382
 487	1	2	0.456145	11.0643	-0.426774	-19.7545
 488	1	2	0.550902	11.1691	1.55343	-21.0009
 489	1	1	0.015704	11.4272	0.948132	-19.7907
 490	1	5	-0.456801	11.1824	-1.17988	-18.7656
 491	1	5	-0.487703	11.6157	2.61816	-21.4504
 492	1	3	-0.116566	12.0293	1.60856	-18.7087
 493	1	3	-0.050109	11.3709	2.64038	-18.0069
 494	1	3	0.154929	12.1572	3.40653	-17.0871
 495	1	3	0.041555	13.3993	1.41827	-18.4604
 496	1	3	-0.223109	14.1048	2.12136	-17.4998
 497	1	3	-0.080449	13.4552	3.16315	-16.8204
 498	1	7	-0.108008	14.2863	0.42163	-19.1259
 499	1	7	-0.182228	14.3684	4.09499	-16.0283
 500	1	7	-0.345523	9.87027	2.96964	-18.2328
 501	1	6	0.155183	7.24643	-5.51687	-23.2874
 502	1	6	0.172904	7.03127	-1.68638	-21.3372
 503	1	6	0.158028	5.55596	-2.72146	-19.5575
 504	1	6	0.153129	10.1188	1.54233	-23.7083
 505	1	6	0.142914	9.04723	-0.429848	-24.72
 506	1	6	0.135531	9.60194	-2.62202	-20.951
 507	1	6	0.17765	15.1706	1.92506	-17.4237
 508	1	10	0.046541	14.8359	-0.0679879	-18.2895
 509	1	10	0.045238	15.042	0.968462	-19.6575
 510	1	10	0.051941	13.812	-0.298283	-19.8426
 511	1	10	0.087961	14.5829	3.72666	-15.0116
 512	1	10	0.066782	13.9321	5.07263	-15.8629
 513	1	10	0.075908	15.3134	4.24532	-16.5576
 514	1	10	0.105172	9.40165	2.00777	-18.5928
 515	1	10	0.115625	9.73582	3.79315	-18.9263
 516	1	10	0.140296	9.24661	3.10116	-17.335
 517	1	1	0.48116	5.7464	2.64641	-34.6125
 518	1	2	0.034009	5.12049	1.49878	-34.1429
 519	1	3	0.028921	3.76995	1.93501	-33.7053
 520	1	2	0.071556	4.90977	3.74916	-34.544
 521	1	3	0.025276	3.65735	3.25787	-33.9458
 522	1	5	-0.381907	5.52344	0.389378	-34.3195
 523	1	5	-0.393799	5.17124	4.85756	-35.0164
 524	1	3	-0.008998	2.8178	1.20413	-33.0114
 525	1	3	-0.064503	2.47401	3.97688	-33.6546
 526	1	3	-0.16756	1.45366	3.24625	-32.9279
 527	1	3	-0.085161	1.57062	1.84126	-32.6355
 528	1	6	0.158939	3.03431	0.127414	-32.7563
 529	1	6	0.163781	2.32861	5.05035	-34.02
 530	1	6	0.161401	0.514392	3.68646	-32.628
 531	1	7	-0.078003	0.45606	0.995725	-31.9492
 532	1	7	0.303704	-0.73895	1.80874	-31.3345
 533	1	8	-0.1084	-0.442642	2.67781	-30.3672
 534	1	8	-0.101508	-1.52093	0.840683	-30.6051
 535	1	8	-0.111714	-1.47192	2.43416	-32.316
 536	1	7	0.380371	-0.107885	0.0552615	-33.1069
 537	1	8	-0.124028	0.686981	-1.03192	-33.4224
 538	1	8	-0.119704	-0.0936876	0.869268	-34.2452
 539	1	8	-0.115877	-1.35868	-0.430396	-32.8783
 540	1	3	-0.024709	1.09664	0.389724	-30.6957
 541	1	3	-0.076489	0.698132	-0.9256	-30.3101
 542	1	3	-0.052344	1.10847	-1.33598	-29.0651
 543	1	3	-0.054202	1.87483	1.23571	-29.8889
 544	1	3	-0.149083	2.12406	0.869667	-28.5919
 545	1	3	-0.063027	1.73697	-0.430789	-28.2179
 546	1	2	0.499526	1.74945	-1.16695	-26.8496
 547	1	1	-0.036881	1.23783	-2.45823	-27.0512
 548	1	2	0.443545	0.83448	-2.6548	-28.351
 549	1	3	0.038197	1.23776	-3.43711	-25.9477
 550	1	3	-0.408621	0.502492	-3.09506	-24.796
 551	1	3	0.252781	0.748428	-3.82372	-23.6245
 552	1	3	-0.169778	2.21584	-4.41669	-25.8803
 553	1	3	-0.113042	2.42716	-5.12457	-24.6616
 554	1	3	0.016958	1.7151	-4.8251	-23.4783
 555	1	6	0.167832	2.6118	1.54689	-27.9148
 556	1	6	0.134138	2.08745	2.2832	-30.1271
 557	1	6	0.145229	0.049174	-1.62512	-30.8819
 558	1	5	-0.462312	0.476357	-3.71798	-28.9096
 559	1	5	-0.483102	2.1582	-0.605796	-25.8479
 560	1	6	0.144532	3.19967	-5.90475	-24.5427
 561	1	6	0.226042	-0.234075	-2.32085	-24.6816
 562	1	3	0.12103	2.33414	-6.74628	-21.9001
 563	1	3	-0.09864	1.97035	-7.76876	-22.7536
 564	1	3	-0.194398	2.01879	-9.08987	-22.2584
 565	1	3	-0.091961	2.49693	-9.31295	-21.008
 566	1	3	-0.197799	3.05951	-8.32847	-20.1847
 567	1	3	-0.102777	2.9533	-7.00039	-20.6419
 568	1	6	0.132074	2.42984	-10.3074	-20.5776
 569	1	6	0.154044	3.21443	-8.54643	-19.1394
 570	1	6	0.145155	1.67032	-7.58154	-23.7471
 571	1	6	0.14558	2.4318	-6.40381	-19.9067
 572	1	9	-0.24014	2.03045	-5.44896	-22.2289
 573	1	6	0.152938	2.87124	-4.62449	-26.6893
 574	1	6	0.151751	1.64962	-9.92954	-22.8593

Velocities

   1	-0.00143241	-0.00328868	-9.2133e-05
   2	-0.000133397	-0.00030614	-0.00225322
   3	-0.000678411	0.000544778	-0.00134929
   4	-0.00513228	0.00172387	-0.00605548
   5	-0.0062604	0.00119954	0.000413081
   6	-0.0010734	-0.00239755	-0.00689882
   7	-0.00138811	-0.000839512	-0.00277125
   8	-0.00563756	-0.000631649	0.00441872
   9	-0.00133022	0.004688	0.000892106
  10	0.00130835	-7.55527e-05	-0.00377029
  11	-0.000880662	0.00373219	0.00540574
  12	-0.00712389	0.0135491	0.00383664
  13	-0.0031291	0.000677163	-0.000501302
  14	-0.0013304	-0.00322408	0.00346111
  15	0.00338562	0.00140342	-0.00194308
  16	0.00015849	0.00214272	-0.00350834
  17	-0.00703749	-0.000111104	0.00550718
  18	0.00552872	-0.00446087	-0.00293918
  19	-0.00124531	0.00260446	-0.000260065
  20	-0.00323364	0.000443225	-0.00245745
  21	0.000841754	0.000188428	-0.00458145
  22	0.0037327	0.00603155	0.00135248
  23	0.00357093	-0.00113019	0.00464789
  24	-0.000985743	-0.000467726	-0.00312792
  25	0.000233989	-0.00171424	-0.00263335
  26	0.0012047	-0.00194896	0.00297222
  27	0.000599105	-0.00316547	-0.00573639
  28	0.00298187	0.0055852	-0.0017468
  29	-0.00163676	0.00172003	-0.00422593
  30	-0.00390821	0.0070965	-0.00362867
  31	0.00489092	-0.00451962	0.00255945
  32	0.00387639	-0.00129164	-0.00111447
  33	-0.00251435	0.000881333	0.00596066
  34	-0.000781582	0.001873	-0.000501298
  35	-0.00189366	6.8631e-05	0.00310494
  36	-0.00306624	-0.000489774	0.00762012
  37	-0.001373	0.00284146	0.000977486
  38	-0.00085267	0.00726446	-0.000922618
  39	-0.00873114	0.00672609	-0.0111706
  40	0.00784429	-0.00366943	-0.013477
  41	-0.0027475	-0.00646159	-0.00516996
  42	-0.00179634	-0.00657363	0.00596114
  43	0.00308117	-0.00216495	-0.00410688
  44	0.00313949	-0.0034296	0.000777136
  45	0.00211145	-0.0033563	0.000782152
  46	0.00220984	0.00151065	-0.00267284
  47	-0.0011907	-0.00129408	0.00726957
  48	-0.00258081	-0.000285818	0.0109541
  49	0.00352129	0.00140415	0.0104796
  50	0.00540194	0.00423626	-0.00197548
  51	-0.00233886	0.00127893	-0.00551704
  52	-0.00358496	-0.00816096	0.0155413
  53	0.00443546	-0.0103718	0.00518521
  54	-0.00617452	-0.00944477	-0.00156548
  55	0.0134533	-0.00416416	0.00670722
  56	0.00179013	0.00526888	-0.00549545
  57	0.00701126	-0.00496376	0.00342113
  58	0.0153783	0.0131057	0.0201899
  59	0.00260145	0.00121196	-0.00426195
  60	0.0071299	0.00359279	-0.00580022
  61	-0.00425914	-0.00157311	0.000330827
  62	0.00334825	0.00149556	-0.00585352
  63	0.0010848	-0.000660115	-0.00326788
  64	0.00522074	-0.00154088	-0.00654761
  65	-0.00873799	-0.00238112	-0.00175214
  66	0.00207274	1.49821e-05	-0.0002129
  67	-0.00231908	0.00554404	-0.00480053
  68	0.00232809	0.00330623	-0.0109684