pySIMM System Object

2610 atoms
2856 bonds
4998 angles
7552 dihedrals
804 impropers

10 atom types
12 bond types
21 angle types
8 dihedral types
4 improper types

-174.721432 174.721432 xlo xhi
-174.721432 174.721432 ylo yhi
-174.721432 174.721432 zlo zhi

Masses

   1	12.01	# ca
   2	16.0	# o
   3	12.01	# c
   4	14.01	# n
   5	12.01	# c3
   6	19.0	# f
   7	1.008	# ha
   8	1.008	# hn
   9	1.008	# hc
  10	16.0	# os

Pair Coeffs

   1	0.086	3.3996695084235347	# ca
   2	0.21	2.959921901149463	# o
   3	0.086	3.3996695084235347	# c
   4	0.17	3.249998523775958	# n
   5	0.1094	3.3996695084235347	# c3
   6	0.061	3.1181455134911875	# f
   7	0.015	2.59964245953351	# ha
   8	0.0157	1.069078461768407	# hn
   9	0.0157	2.649532787749369	# hc
  10	0.17	3.0000123434657784	# os

Bond Coeffs

   1	345.8	1.086	# ca,ha
   2	300.9	1.5375	# c3,c3
   3	637.7	1.2183	# c,o
   4	356.9	1.3497	# c3,f
   5	427.6	1.3789	# c,n
   6	345.9	1.4906	# c,ca
   7	330.6	1.0969	# c3,hc
   8	384.2	1.4121	# ca,n
   9	321.0	1.5156	# c3,ca
  10	403.2	1.0129	# hn,n
  11	461.1	1.3984	# ca,ca
  12	376.6	1.3696	# ca,os

Angle Coeffs

   1	68.72	122.6	# ca,c,o
   2	48.33	117.55	# c,n,hn
   3	67.68	115.25	# ca,c,n
   4	63.15	112.07	# c3,c3,ca
   5	62.86	111.51	# c3,c3,c3
   6	63.82	123.71	# c,n,ca
   7	67.87	120.19	# ca,ca,n
   8	63.53	120.77	# c3,ca,ca
   9	63.56	112.24	# ca,c3,ca
  10	63.74	127.08	# c,n,c
  11	48.18	119.88	# ca,ca,ha
  12	64.28	120.33	# c,ca,ca
  13	70.89	107.36	# f,c3,f
  14	39.4	107.58	# hc,c3,hc
  15	74.22	123.05	# n,c,o
  16	66.11	109.24	# c3,c3,f
  17	46.8	110.47	# ca,c3,hc
  18	66.62	120.02	# ca,ca,ca
  19	63.48	119.89	# ca,os,ca
  20	69.58	119.2	# ca,ca,os
  21	49.75	116.02	# ha,ca,n

Dihedral Coeffs

   1	2	2.5	2	180	2.0	1	0	# hn,n,c,o
   2	1	3.625	2	180	# X,ca,ca,X
   3	1	1.0	2	180	# X,c,ca,X
   4	1	0.15555555555555556	3	0	# X,c3,c3,X
   5	1	0.0	2	0	# X,c3,ca,X
   6	1	2.5	2	180	# X,c,n,X
   7	1	0.45	2	180	# X,ca,n,X
   8	1	0.9	2	180	# X,ca,os,X

Improper Coeffs

   1	1.1	-1	2	# ca,ca,ca,c3
   2	1.1	-1	2	# ca,X,X,ha
   3	1.1	-1	2	# n,X,X,hn
   4	10.5	-1	2	# c,X,X,o

Atoms

   1	1	1	-0.004194	15.8796	-7.85501	4.68865
   2	1	1	-0.097141	14.9836	-8.1389	3.62119
   3	1	1	-0.172015	13.6976	-7.53123	3.63698
   4	1	2	-0.377994	17.1902	-7.04802	7.36843
   5	1	1	0.033493	15.4327	-7.04065	5.73303
   6	1	1	-0.063739	13.266	-6.73557	4.70745
   7	1	2	-0.398381	12.9157	-5.15077	7.26912
   8	1	1	0.032144	14.1631	-6.50611	5.73809
   9	1	3	0.032313	16.0836	-6.68456	7.01098
  10	1	4	0.461698	15.1462	-5.89125	7.68279
  11	1	3	0.091945	13.9441	-5.74905	6.97682
  12	1	1	-0.10563	12.5416	-11.6013	3.82263
  13	1	5	-0.099376	15.2946	-9.18751	2.51646
  14	1	1	-0.043296	14.1118	-10.1971	2.52817
  15	1	1	-0.073043	13.6704	-10.7567	3.76326
  16	1	1	-0.117827	11.8522	-11.8739	2.6348
  17	1	1	-0.037562	13.4321	-10.5753	1.34442
  18	1	1	-0.083705	12.3082	-11.3968	1.42749
  19	1	5	0.396	16.5874	-10.0388	2.81147
  20	1	5	0.310495	15.4831	-8.42832	1.1374
  21	1	6	-0.130298	16.5572	-10.6093	4.03518
  22	1	6	-0.128745	16.7534	-11.0515	1.93189
  23	1	6	-0.120019	17.7099	-9.30126	2.78978
  24	1	6	-0.104287	16.3824	-7.41647	1.19729
  25	1	6	-0.095507	14.3376	-7.86596	0.68211
  26	1	6	-0.104872	15.9387	-9.25928	0.171794
  27	1	3	0.456145	11.3047	-11.7124	0.370536
  28	1	3	0.550902	10.5509	-12.5523	2.3749
  29	1	4	0.015704	10.2925	-12.3876	1.01975
  30	1	2	-0.456801	11.2856	-11.264	-0.762082
  31	1	2	-0.487703	9.81106	-13.0322	3.21691
  32	1	1	-0.116566	9.03551	-12.7127	0.415634
  33	1	1	-0.050109	8.84848	-13.9357	-0.283395
  34	1	1	0.154929	7.54484	-14.3531	-0.603358
  35	1	1	0.041555	7.93959	-11.8412	0.610877
  36	1	1	-0.223109	6.66621	-12.2377	0.178779
  37	1	1	-0.080449	6.44641	-13.5204	-0.344642
  38	1	5	-0.108008	8.07364	-10.4996	1.33072
  39	1	5	-0.182228	5.02904	-13.9521	-0.637247
  40	1	5	-0.345523	9.99745	-14.8424	-0.670842
  41	1	7	0.155183	16.8661	-8.29398	4.77962
  42	1	7	0.172904	12.9863	-7.74303	2.84218
  43	1	7	0.158028	12.2656	-6.30846	4.73857
  44	1	7	0.153129	12.1701	-11.9761	4.78329
  45	1	7	0.142914	14.166	-10.4935	4.69339
  46	1	7	0.135531	13.6987	-10.2023	0.365111
  47	1	7	0.17765	5.81901	-11.5749	0.359879
  48	1	9	0.046541	7.10269	-10.0113	1.47768
  49	1	9	0.045238	8.68854	-9.79917	0.753752
  50	1	9	0.051941	8.52533	-10.6169	2.32242
  51	1	9	0.087961	4.69697	-14.7645	0.0524209
  52	1	9	0.066782	4.94113	-14.3264	-1.66276
  53	1	9	0.075908	4.32612	-13.1207	-0.531406
  54	1	9	0.105172	10.4754	-15.2973	0.205234
  55	1	9	0.115625	10.759	-14.3064	-1.2593
  56	1	9	0.140296	9.63285	-15.6774	-1.28468
  57	1	4	0.48116	11.2142	4.20137	-3.94996
  58	1	3	0.034009	10.9881	4.56814	-2.61522
  59	1	1	0.028921	10.8363	3.2863	-1.90655
  60	1	3	0.071556	11.3502	2.81693	-4.11066
  61	1	1	0.025276	11.0736	2.24882	-2.77851
  62	1	2	-0.381907	10.8957	5.67607	-2.10719
  63	1	2	-0.393799	11.5651	2.17321	-5.12514
  64	1	1	-0.008998	10.3677	3.06117	-0.618139
  65	1	1	-0.064503	10.949	0.915819	-2.38755
  66	1	1	-0.16756	10.4585	0.664719	-1.09457
  67	1	1	-0.085161	10.1107	1.7283	-0.215132
  68	1	7	0.158939	10.128	3.92838	-0.0134118
  69	1	7	0.163781	11.1366	0.10969	-3.09274
  70	1	7	0.161401	10.2637	-0.366052	-0.809872
  71	1	5	-0.078003	9.27014	1.40952	1.04627
  72	1	5	0.303704	9.15241	2.60017	2.06785
  73	1	6	-0.1084	10.3589	3.10639	2.39897
  74	1	6	-0.101508	8.56964	2.20829	3.22354
  75	1	6	-0.111714	8.41556	3.62754	1.58719
  76	1	5	0.380371	7.82446	1.10178	0.494294
  77	1	6	-0.124028	7.78979	-0.0581102	-0.202885
  78	1	6	-0.119704	7.42408	2.06954	-0.365184
  79	1	6	-0.115877	6.87307	1.02246	1.45503
  80	1	1	-0.024709	9.94375	0.216987	1.7703
  81	1	1	-0.076489	11.347	0.232908	1.97576
  82	1	1	-0.052344	11.9393	-0.869436	2.60202
  83	1	1	-0.054202	9.19428	-0.895478	2.24611
  84	1	1	-0.149083	9.81216	-1.99585	2.86692
  85	1	1	-0.063027	11.1988	-1.95732	3.01989
  86	1	3	0.499526	12.0864	-2.87025	3.77917
  87	1	4	-0.036881	13.3186	-2.22956	3.81077
  88	1	3	0.443545	13.3275	-1.05082	3.08464
  89	1	1	0.038197	14.3075	-2.51538	4.77874
  90	1	1	-0.408621	15.4695	-3.24586	4.47126
  91	1	1	0.252781	16.3703	-3.57345	5.49712
  92	1	1	-0.169778	14.1013	-2.03571	6.08547
  93	1	1	-0.113042	14.9969	-2.36897	7.11075
  94	1	1	0.016958	16.109	-3.1786	6.8189
  95	1	7	0.167832	9.22985	-2.83163	3.25704
  96	1	7	0.134138	8.11608	-0.929092	2.14987
  97	1	7	0.145229	11.9585	1.08313	1.68182
  98	1	2	-0.462312	14.2087	-0.215872	3.03411
  99	1	2	-0.483102	11.7083	-3.81463	4.44888
 100	1	7	0.144532	14.7975	-2.0543	8.13109
 101	1	7	0.226042	15.6588	-3.59246	3.46094
 102	1	1	0.12103	16.3807	-4.24895	8.96622
 103	1	1	-0.09864	16.8093	-3.71709	10.19
 104	1	1	-0.194398	16.397	-4.32208	11.3876
 105	1	1	-0.091961	15.6939	-5.53529	11.3273
 106	1	1	-0.197799	15.3209	-6.06205	10.0811
 107	1	1	-0.102777	15.3859	-5.25018	8.93116
 108	1	7	0.132074	15.4967	-6.09509	12.2391
 109	1	7	0.154044	14.8487	-7.0415	10.0389
 110	1	7	0.145155	17.4972	-2.87592	10.202
 111	1	7	0.14558	14.4932	-4.64739	9.06382
 112	1	10	-0.24014	16.892	-3.70199	7.81697
 113	1	7	0.152938	13.2169	-1.44773	6.31733
 114	1	7	0.151751	16.7327	-3.92892	12.3438
 115	1	4	0.48116	-7.71592	8.20465	-4.39069
 116	1	3	0.034009	-7.24957	8.61854	-5.64762
 117	1	1	0.028921	-5.76468	8.57474	-5.54201
 118	1	3	0.071556	-6.68206	8.01731	-3.47164
 119	1	1	0.025276	-5.43189	8.20529	-4.25592
 120	1	2	-0.381907	-7.89029	8.84348	-6.6646
 121	1	2	-0.393799	-6.75237	7.65922	-2.30731
 122	1	1	-0.008998	-4.79275	8.68457	-6.54585
 123	1	1	-0.064503	-4.11234	7.89793	-3.91444
 124	1	1	-0.16756	-3.12567	7.9626	-4.91877
 125	1	1	-0.085161	-3.43306	8.36806	-6.25093
 126	1	7	0.158939	-5.1313	8.92047	-7.54888
 127	1	7	0.163781	-3.87579	7.54537	-2.91133
 128	1	7	0.161401	-2.12587	7.636	-4.64738
 129	1	5	-0.078003	-2.35436	8.2464	-7.38139
 130	1	5	0.303704	-2.72852	6.91934	-8.14869
 131	1	6	-0.1084	-2.67626	5.84717	-7.32516
 132	1	6	-0.101508	-1.91041	6.68297	-9.20083
 133	1	6	-0.111714	-3.99534	6.92488	-8.62817
 134	1	5	0.380371	-2.39061	9.46834	-8.40948
 135	1	6	-0.124028	-1.38992	9.4268	-9.31844
 136	1	6	-0.119704	-2.29524	10.6701	-7.79659
 137	1	6	-0.115877	-3.50952	9.53301	-9.15796
 138	1	1	-0.024709	-0.915212	8.19352	-6.73819
 139	1	1	-0.076489	-0.0342371	7.06422	-6.78999
 140	1	1	-0.052344	1.23406	7.14002	-6.17253
 141	1	1	-0.054202	-0.468754	9.32662	-6.00014
 142	1	1	-0.149083	0.815391	9.40081	-5.43056
 143	1	1	-0.063027	1.66248	8.29955	-5.56197
 144	1	3	0.499526	3.08571	8.12748	-5.15202
 145	1	4	-0.036881	3.44936	6.85407	-5.56889
 146	1	3	0.443545	2.3572	6.15037	-6.07198
 147	1	1	0.038197	4.78939	6.35339	-5.47992
 148	1	1	-0.408621	5.11206	5.27182	-4.63942
 149	1	1	0.252781	6.45352	4.88295	-4.45656
 150	1	1	-0.169778	5.82955	6.97327	-6.20623
 151	1	1	-0.113042	7.16114	6.53352	-6.08661
 152	1	1	0.016958	7.49081	5.52681	-5.16019
 153	1	7	0.167832	1.15031	10.3015	-4.91184
 154	1	7	0.134138	-1.12849	10.176	-5.84842
 155	1	7	0.145229	-0.298792	6.14366	-7.29989
 156	1	2	-0.462312	2.25836	4.94071	-6.19287
 157	1	2	-0.483102	3.75319	8.92666	-4.5174
 158	1	7	0.144532	7.93352	6.99894	-6.6939
 159	1	7	0.226042	4.33367	4.76663	-4.07768
 160	1	1	0.12103	9.97349	5.84579	-5.02997
 161	1	1	-0.09864	9.96105	7.25035	-4.95043
 162	1	1	-0.194398	11.1629	7.97357	-4.93788
 163	1	1	-0.091961	12.3852	7.28828	-4.99524
 164	1	1	-0.197799	12.4009	5.89024	-5.06949
 165	1	1	-0.102777	11.2021	5.14466	-5.02177
 166	1	7	0.132074	13.3174	7.84291	-4.96916
 167	1	7	0.154044	13.3592	5.37293	-5.0594
 168	1	7	0.145155	9.02757	7.79315	-4.8612
 169	1	7	0.14558	11.2015	4.41567	-5.82206
 170	1	10	-0.24014	8.79732	5.10287	-4.95881
 171	1	7	0.152938	5.59984	7.7926	-6.88287
 172	1	7	0.151751	11.1377	9.05586	-4.88778
 173	1	1	-0.004194	-16.501	16.4191	-6.47023
 174	1	1	-0.097141	-15.6772	15.2743	-6.64471
 175	1	1	-0.172015	-14.2637	15.4542	-6.60983
 176	1	2	-0.377994	-17.7167	19.1903	-5.85677
 177	1	1	0.033493	-15.8955	17.6511	-6.19902
 178	1	1	-0.063739	-13.676	16.7049	-6.33408
 179	1	2	-0.398381	-13.0909	19.6204	-5.49727
 180	1	1	0.032144	-14.5268	17.7878	-6.11349
 181	1	3	0.032313	-16.5189	18.9531	-5.86123
 182	1	4	0.461698	-15.4536	19.7998	-5.52659
 183	1	3	0.091945	-14.2108	19.1745	-5.69761
 184	1	1	-0.10563	-14.3235	12.6585	-3.67682
 185	1	5	-0.099376	-16.2467	13.8302	-6.82341
 186	1	1	-0.043296	-15.4022	12.8958	-5.89302
 187	1	1	-0.073043	-15.1714	13.3437	-4.56427
 188	1	1	-0.117827	-13.7154	11.489	-4.12452
 189	1	1	-0.037562	-14.7742	11.6827	-6.30645
 190	1	1	-0.083705	-13.9356	11.0058	-5.39824
 191	1	5	0.396	-16.1142	13.4869	-8.35228
 192	1	5	0.310495	-17.7671	13.6993	-6.4012
 193	1	6	-0.130298	-14.8173	13.3752	-8.71834
 194	1	6	-0.128745	-16.7317	12.3332	-8.69351
 195	1	6	-0.120019	-16.6431	14.4602	-9.12993
 196	1	6	-0.104287	-18.6172	14.3184	-7.25448
 197	1	6	-0.095507	-18.0017	14.2253	-5.17964
 198	1	6	-0.104872	-18.1663	12.4089	-6.33908
 199	1	3	0.456145	-13.0944	9.78088	-5.55633
 200	1	3	0.550902	-12.7391	10.6146	-3.4316
 201	1	4	0.015704	-12.4111	9.63471	-4.35301
 202	1	2	-0.456801	-13.0168	9.07206	-6.54491
 203	1	2	-0.487703	-12.2494	10.8178	-2.33338
 204	1	1	-0.116566	-11.4339	8.62365	-4.12006
 205	1	1	-0.050109	-10.0544	8.94272	-4.22046
 206	1	1	0.154929	-9.08829	7.91023	-4.12185
 207	1	1	0.041555	-11.8453	7.29734	-3.84976
 208	1	1	-0.223109	-10.8749	6.30191	-3.68484
 209	1	1	-0.080449	-9.50932	6.58217	-3.84049
 210	1	5	-0.108008	-13.3072	6.8667	-3.74856
 211	1	5	-0.182228	-8.5565	5.39605	-3.72538
 212	1	5	-0.345523	-9.60935	10.3903	-4.49653
 213	1	7	0.155183	-17.5844	16.3771	-6.49097
 214	1	7	0.172904	-13.6042	14.6015	-6.75805
 215	1	7	0.158028	-12.5972	16.8257	-6.26326
 216	1	7	0.153129	-14.1135	13.0404	-2.68258
 217	1	7	0.142914	-15.6186	14.2747	-4.22622
 218	1	7	0.135531	-14.8967	11.2772	-7.30674
 219	1	7	0.17765	-11.192	5.28425	-3.47366
 220	1	9	0.046541	-14.0204	7.66606	-3.96994
 221	1	9	0.045238	-13.5255	6.49681	-2.74009
 222	1	9	0.051941	-13.517	6.0494	-4.44973
 223	1	9	0.087961	-8.98854	4.49974	-4.18904
 224	1	9	0.066782	-8.36227	5.16056	-2.67388
 225	1	9	0.075908	-7.58931	5.56408	-4.21991
 226	1	9	0.105172	-8.60797	10.6115	-4.10755
 227	1	9	0.115625	-10.2536	11.1367	-4.02494
 228	1	9	0.140296	-9.60134	10.5938	-5.57635
 229	1	4	0.48116	-21.5545	8.27504	-2.84313
 230	1	3	0.034009	-20.2334	7.849	-2.98473
 231	1	1	0.028921	-19.5302	8.39052	-1.79395
 232	1	3	0.071556	-21.771	8.99924	-1.67223
 233	1	1	0.025276	-20.444	9.07533	-1.01837
 234	1	2	-0.381907	-19.7236	7.25513	-3.9211
 235	1	2	-0.393799	-22.7961	9.54037	-1.29113
 236	1	1	-0.008998	-18.1787	8.32192	-1.44839
 237	1	1	-0.064503	-20.0624	9.72631	0.155056
 238	1	1	-0.16756	-18.7065	9.67341	0.521496
 239	1	1	-0.085161	-17.7424	8.9909	-0.271262
 240	1	7	0.158939	-17.5113	7.77428	-2.10539
 241	1	7	0.163781	-20.7951	10.269	0.748461
 242	1	7	0.161401	-18.4009	10.2079	1.41798
 243	1	5	-0.078003	-16.2566	9.0674	0.173928
 244	1	5	0.303704	-15.2519	8.47488	-0.87036
 245	1	6	-0.1084	-13.9696	8.70022	-0.509455
 246	1	6	-0.101508	-15.4009	9.04725	-2.08859
 247	1	6	-0.111714	-15.3968	7.14044	-1.00813
 248	1	5	0.380371	-16.1494	8.25212	1.52507
 249	1	6	-0.124028	-14.892	7.89545	1.86877
 250	1	6	-0.119704	-16.6487	8.94146	2.5742
 251	1	6	-0.115877	-16.8553	7.0993	1.44766
 252	1	1	-0.024709	-15.8682	10.5636	0.285012
 253	1	1	-0.076489	-16.4542	11.4983	-0.606279
 254	1	1	-0.052344	-16.0421	12.828	-0.557207
 255	1	1	-0.054202	-14.8352	11.0089	1.15494
 256	1	1	-0.149083	-14.416	12.3547	1.17036
 257	1	1	-0.063027	-15.0541	13.2474	0.305018
 258	1	3	0.499526	-14.8373	14.6975	0.0837939
 259	1	4	-0.036881	-15.7125	15.0546	-0.936128
 260	1	3	0.443545	-16.4854	13.9857	-1.36729
 261	1	1	0.038197	-15.819	16.3696	-1.46132
 262	1	1	-0.408621	-17.0859	16.9568	-1.62753
 263	1	1	0.252781	-17.198	18.2831	-2.06465
 264	1	1	-0.169778	-14.6656	17.1095	-1.78651
 265	1	1	-0.113042	-14.7744	18.4341	-2.24171
 266	1	1	0.016958	-16.0458	19.026	-2.36565
 267	1	7	0.167832	-13.6166	12.6906	1.82767
 268	1	7	0.134138	-14.3231	10.3098	1.80803
 269	1	7	0.145229	-17.2031	11.2101	-1.34162
 270	1	2	-0.462312	-17.3149	13.9588	-2.26
 271	1	2	-0.483102	-14.04	15.3978	0.682739
 272	1	7	0.144532	-13.8737	19.0038	-2.46816
 273	1	7	0.226042	-17.993	16.401	-1.40383
 274	1	1	0.12103	-15.3432	21.0287	-3.56293
 275	1	1	-0.09864	-14.309	21.7586	-2.95825
 276	1	1	-0.194398	-13.5347	22.639	-3.72631
 277	1	1	-0.091961	-13.8395	22.8204	-5.08266
 278	1	1	-0.197799	-14.8753	22.0802	-5.67696
 279	1	1	-0.102777	-15.5967	21.1048	-4.94935
 280	1	7	0.132074	-13.2702	23.5359	-5.67535
 281	1	7	0.154044	-15.0913	22.2342	-6.73268
 282	1	7	0.145155	-14.1373	21.6674	-1.89047
 283	1	7	0.14558	-16.6603	21.2055	-5.1344
 284	1	10	-0.24014	-16.213	20.3317	-2.75989
 285	1	7	0.152938	-13.679	16.6729	-1.65637
 286	1	7	0.151751	-12.7335	23.2106	-3.26436
 287	1	1	-0.004194	-32.5214	4.69062	-1.9475
 288	1	1	-0.097141	-32.9453	5.6764	-2.87936
 289	1	1	-0.172015	-34.2334	5.53269	-3.47078
 290	1	2	-0.377994	-32.188	2.19741	-0.0869203
 291	1	1	0.033493	-33.3608	3.60336	-1.67423
 292	1	1	-0.063739	-35.0565	4.42608	-3.19118
 293	1	2	-0.398381	-36.2628	1.73645	-2.26021
 294	1	1	0.032144	-34.5874	3.47152	-2.29108
 295	1	3	0.032313	-33.1585	2.42315	-0.790483
 296	1	4	0.461698	-34.3013	1.64118	-0.967442
 297	1	3	0.091945	-35.2096	2.20131	-1.85756
 298	1	1	-0.10563	-29.0641	4.77784	-4.64049
 299	1	5	-0.099376	-32.0168	6.88878	-3.18772
 300	1	1	-0.043296	-30.5697	6.37091	-3.46192
 301	1	1	-0.073043	-30.352	5.16765	-4.19822
 302	1	1	-0.117827	-27.9813	5.61441	-4.33486
 303	1	1	-0.037562	-29.442	7.17492	-3.16766
 304	1	1	-0.083705	-28.1821	6.77274	-3.61389
 305	1	5	0.396	-32.1321	7.86269	-1.94454
 306	1	5	0.310495	-32.4249	7.67238	-4.49636
 307	1	6	-0.130298	-31.6059	9.09141	-2.15354
 308	1	6	-0.128745	-31.5183	7.35079	-0.854389
 309	1	6	-0.120019	-33.4225	8.07075	-1.59034
 310	1	6	-0.104287	-32.5997	6.82742	-5.5386
 311	1	6	-0.095507	-33.56	8.39771	-4.36069
 312	1	6	-0.104872	-31.4662	8.54311	-4.88702
 313	1	3	0.456145	-26.9048	7.51234	-3.54414
 314	1	3	0.550902	-26.5423	5.5739	-4.74394
 315	1	4	0.015704	-25.9928	6.76117	-4.27124
 316	1	2	-0.456801	-26.7448	8.60575	-3.03073
 317	1	2	-0.487703	-25.9992	4.70941	-5.4114
 318	1	1	-0.116566	-24.7134	7.29113	-4.60548
 319	1	1	-0.050109	-23.6755	7.29299	-3.6444
 320	1	1	0.154929	-22.5477	8.12875	-3.84828
 321	1	1	0.041555	-24.5927	8.04056	-5.79589
 322	1	1	-0.223109	-23.4635	8.84825	-5.98858
 323	1	1	-0.080449	-22.4573	8.92569	-5.01458
 324	1	5	-0.108008	-25.7025	8.06704	-6.84533
 325	1	5	-0.182228	-21.3068	9.90671	-5.24139
 326	1	5	-0.345523	-23.8411	6.46695	-2.36229
 327	1	7	0.155183	-31.5562	4.75763	-1.45142
 328	1	7	0.172904	-34.6268	6.26827	-4.16318
 329	1	7	0.158028	-36.031	4.30678	-3.66094
 330	1	7	0.153129	-28.919	3.88181	-5.24037
 331	1	7	0.142914	-31.1995	4.55223	-4.48852
 332	1	7	0.135531	-29.5222	8.13427	-2.66947
 333	1	7	0.17765	-23.3924	9.46074	-6.8837
 334	1	9	0.046541	-26.5478	8.68086	-6.50348
 335	1	9	0.045238	-26.0762	7.06236	-7.06812
 336	1	9	0.051941	-25.3474	8.48959	-7.79268
 337	1	9	0.087961	-20.4161	9.38523	-5.61382
 338	1	9	0.066782	-21.0305	10.443	-4.32473
 339	1	9	0.075908	-21.571	10.6719	-5.98125
 340	1	9	0.105172	-24.5445	6.95754	-1.67591
 341	1	9	0.115625	-22.9041	6.31001	-1.81602
 342	1	9	0.140296	-24.2288	5.46528	-2.58741
 343	1	1	-0.004194	-39.1425	-4.84253	7.51925
 344	1	1	-0.097141	-38.9122	-3.86492	8.52524
 345	1	1	-0.172015	-39.634	-3.97641	9.74912
 346	1	2	-0.377994	-40.2221	-7.12629	5.70098
 347	1	1	0.033493	-40.0867	-5.84998	7.74858
 348	1	1	-0.063739	-40.5624	-5.01328	9.96809
 349	1	2	-0.398381	-42.4641	-7.44987	9.75732
 350	1	1	0.032144	-40.7665	-5.93871	8.94427
 351	1	3	0.032313	-40.5684	-6.93658	6.85506
 352	1	4	0.461698	-41.5331	-7.62167	7.59963
 353	1	3	0.091945	-41.6938	-7.09371	8.8804
 354	1	1	-0.10563	-39.1123	-1.70151	4.78176
 355	1	5	-0.099376	-37.8166	-2.77789	8.30095
 356	1	1	-0.043296	-37.8212	-2.35192	6.79876
 357	1	1	-0.073043	-39.0572	-2.07487	6.14332
 358	1	1	-0.117827	-37.9026	-1.57048	4.08787
 359	1	1	-0.037562	-36.6242	-2.20434	6.0504
 360	1	1	-0.083705	-36.6986	-1.81353	4.71252
 361	1	5	0.396	-36.4632	-3.45109	8.7508
 362	1	5	0.310495	-38.052	-1.4578	9.13288
 363	1	6	-0.130298	-35.4157	-2.5949	8.79086
 364	1	6	-0.128745	-36.1298	-4.46986	7.92262
 365	1	6	-0.120019	-36.5577	-3.99588	9.98434
 366	1	6	-0.104287	-37.8308	-1.59517	10.4602
 367	1	6	-0.095507	-39.3192	-1.01259	8.98735
 368	1	6	-0.104872	-37.2423	-0.455519	8.72286
 369	1	3	0.456145	-35.6056	-1.60991	3.73115
 370	1	3	0.550902	-37.614	-1.19152	2.67406
 371	1	4	0.015704	-36.2298	-1.26179	2.54138
 372	1	2	-0.456801	-34.4161	-1.77582	3.93827
 373	1	2	-0.487703	-38.4375	-0.882906	1.82932
 374	1	1	-0.116566	-35.5212	-1.07993	1.31378
 375	1	1	-0.050109	-35.2276	0.218031	0.828602
 376	1	1	0.154929	-34.5096	0.360568	-0.388295
 377	1	1	0.041555	-35.0926	-2.21934	0.59612
 378	1	1	-0.223109	-34.3755	-2.06085	-0.59761
 379	1	1	-0.080449	-34.0736	-0.785638	-1.09375
 380	1	5	-0.108008	-35.3764	-3.63465	1.08857
 381	1	5	-0.182228	-33.283	-0.686198	-2.39481
 382	1	5	-0.345523	-35.7	1.44196	1.62403
 383	1	7	0.155183	-38.6045	-4.83118	6.57467
 384	1	7	0.172904	-39.4754	-3.27679	10.5622
 385	1	7	0.158028	-41.1125	-5.09708	10.9032
 386	1	7	0.153129	-40.0609	-1.50996	4.28482
 387	1	7	0.142914	-39.9914	-2.16364	6.69282
 388	1	7	0.135531	-35.6392	-2.38051	6.46632
 389	1	7	0.17765	-34.0467	-2.94102	-1.14174
 390	1	9	0.046541	-34.8695	-3.82929	2.03854
 391	1	9	0.045238	-35.0269	-4.39238	0.374729
 392	1	9	0.051941	-36.4532	-3.79731	1.23369
 393	1	9	0.087961	-33.9389	-0.430092	-3.23627
 394	1	9	0.066782	-32.7914	-1.63609	-2.63799
 395	1	9	0.075908	-32.4899	0.0690228	-2.33232
 396	1	9	0.105172	-35.2117	2.37646	1.32547
 397	1	9	0.115625	-35.4898	1.32719	2.69517
 398	1	9	0.140296	-36.7835	1.58368	1.50705
 399	1	1	-0.004194	-52.6054	-9.65477	3.96651
 400	1	1	-0.097141	-52.5886	-8.23493	3.90051
 401	1	1	-0.172015	-53.83	-7.53982	3.99969
 402	1	2	-0.377994	-53.314	-12.673	4.27462
 403	1	1	0.033493	-53.8285	-10.3131	4.15685
 404	1	1	-0.063739	-55.0452	-8.22174	4.21233
 405	1	2	-0.398381	-57.2787	-10.3159	4.74886
 406	1	1	0.032144	-55.0112	-9.61588	4.28971
 407	1	3	0.032313	-54.1245	-11.7631	4.31273
 408	1	4	0.461698	-55.4965	-11.8358	4.55987
 409	1	3	0.091945	-56.1065	-10.5851	4.54486
 410	1	1	-0.10563	-49.4623	-8.98561	6.78902
 411	1	5	-0.099376	-51.233	-7.50114	3.66423
 412	1	1	-0.043296	-50.1347	-8.15452	4.5546
 413	1	1	-0.073043	-50.4417	-8.49032	5.90394
 414	1	1	-0.117827	-48.155	-9.11837	6.31181
 415	1	1	-0.037562	-48.7933	-8.31359	4.11258
 416	1	1	-0.083705	-47.8328	-8.78497	5.01384
 417	1	5	0.396	-51.2517	-5.97718	4.07423
 418	1	5	0.310495	-50.9314	-7.61978	2.12457
 419	1	6	-0.130298	-50.0028	-5.46367	4.14321
 420	1	6	-0.128745	-51.793	-5.80281	5.29994
 421	1	6	-0.120019	-51.9372	-5.18813	3.21586
 422	1	6	-0.104287	-52.0181	-7.30881	1.37885
 423	1	6	-0.095507	-50.5861	-8.8844	1.79091
 424	1	6	-0.104872	-49.9351	-6.80298	1.71127
 425	1	3	0.456145	-46.3667	-8.96128	4.83969
 426	1	3	0.550902	-46.9098	-9.54106	7.00618
 427	1	4	0.015704	-45.8915	-9.38055	6.0761
 428	1	2	-0.456801	-45.7251	-8.72606	3.83086
 429	1	2	-0.487703	-46.8288	-9.93176	8.15726
 430	1	1	-0.116566	-44.5083	-9.57383	6.36753
 431	1	1	-0.050109	-43.716	-8.48647	6.81325
 432	1	1	0.154929	-42.3376	-8.6896	7.09867
 433	1	1	0.041555	-43.9427	-10.8535	6.20635
 434	1	1	-0.223109	-42.5803	-11.0401	6.48277
 435	1	1	-0.080449	-41.7736	-9.97631	6.92419
 436	1	5	-0.108008	-44.7853	-12.0352	5.73362
 437	1	5	-0.182228	-40.2973	-10.248	7.19863
 438	1	5	-0.345523	-44.3807	-7.11183	6.97299
 439	1	7	0.155183	-51.6941	-10.2404	3.87971
 440	1	7	0.172904	-53.8768	-6.45881	3.91682
 441	1	7	0.158028	-55.9879	-7.68721	4.31178
 442	1	7	0.153129	-49.7055	-9.22906	7.82345
 443	1	7	0.142914	-51.4515	-8.33854	6.2828
 444	1	7	0.135531	-48.4664	-8.04098	3.11411
 445	1	7	0.17765	-42.1454	-12.027	6.35604
 446	1	9	0.046541	-45.5946	-12.2527	6.44397
 447	1	9	0.045238	-44.1869	-12.9473	5.63237
 448	1	9	0.051941	-45.237	-11.8301	4.75615
 449	1	9	0.087961	-39.665	-9.7905	6.42528
 450	1	9	0.066782	-40.0782	-11.3221	7.20307
 451	1	9	0.075908	-39.9844	-9.85467	8.17347
 452	1	9	0.105172	-44.8733	-6.80208	6.04258
 453	1	9	0.115625	-43.6915	-6.30089	7.22886
 454	1	9	0.140296	-45.1401	-7.14101	7.76717
 455	1	1	-0.004194	-56.9505	-24.277	1.14014
 456	1	1	-0.097141	-56.6614	-23.0266	1.74865
 457	1	1	-0.172015	-57.0937	-22.8223	3.09146
 458	1	2	-0.377994	-58.0253	-27.0386	0.313554
 459	1	1	0.033493	-57.6856	-25.227	1.85713
 460	1	1	-0.063739	-57.8136	-23.8071	3.80346
 461	1	2	-0.398381	-59.3379	-26.3567	4.72588
 462	1	1	0.032144	-58.0978	-25.0107	3.15317
 463	1	3	0.032313	-58.1866	-26.552	1.42031
 464	1	4	0.461698	-58.8839	-27.0741	2.51654
 465	1	3	0.091945	-58.8546	-26.2026	3.61537
 466	1	1	-0.10563	-58.5074	-19.0922	1.40272
 467	1	5	-0.099376	-55.8358	-21.9162	1.02653
 468	1	1	-0.043296	-56.4736	-20.5274	1.37332
 469	1	1	-0.073043	-57.8464	-20.2962	1.06719
 470	1	1	-0.117827	-57.7796	-18.1104	2.08611
 471	1	1	-0.037562	-55.7638	-19.4805	2.0225
 472	1	1	-0.083705	-56.445	-18.3054	2.37088
 473	1	5	0.396	-55.8351	-22.0586	-0.553805
 474	1	5	0.310495	-54.3552	-22.0792	1.55048
 475	1	6	-0.130298	-57.0753	-22.2792	-1.05065
 476	1	6	-0.128745	-55.063	-23.0746	-1.00692
 477	1	6	-0.120019	-55.376	-20.9371	-1.1552
 478	1	6	-0.104287	-53.4921	-21.2235	0.959012
 479	1	6	-0.095507	-54.2553	-21.8816	2.8846
 480	1	6	-0.104872	-53.8803	-23.33	1.34396
 481	1	3	0.456145	-55.9734	-17.1541	3.17928
 482	1	3	0.550902	-58.2145	-16.8313	2.73058
 483	1	4	0.015704	-57.0847	-16.3461	3.38067
 484	1	2	-0.456801	-54.8613	-17.0338	3.66373
 485	1	2	-0.487703	-59.3547	-16.3986	2.78675
 486	1	1	-0.116566	-57.0519	-15.2429	4.28772
 487	1	1	-0.050109	-56.4616	-14.0156	3.90388
 488	1	1	0.154929	-56.1811	-13.0387	4.89638
 489	1	1	0.041555	-57.4572	-15.4507	5.62309
 490	1	1	-0.223109	-57.1943	-14.469	6.58789
 491	1	1	-0.080449	-56.53	-13.2814	6.24927
 492	1	5	-0.108008	-58.1384	-16.7439	6.0593
 493	1	5	-0.182228	-56.183	-12.3049	7.37189
 494	1	5	-0.345523	-56.0849	-13.7882	2.43559
 495	1	7	0.155183	-56.6436	-24.5252	0.131004
 496	1	7	0.172904	-56.8679	-21.8864	3.59791
 497	1	7	0.158028	-58.1483	-23.6398	4.82448
 498	1	7	0.153129	-59.5649	-18.9565	1.18788
 499	1	7	0.142914	-58.433	-21.0743	0.588424
 500	1	7	0.135531	-54.7186	-19.5619	2.3041
 501	1	7	0.17765	-57.4795	-14.6508	7.62022
 502	1	9	0.046541	-58.3839	-16.7344	7.12859
 503	1	9	0.045238	-57.497	-17.6147	5.87798
 504	1	9	0.051941	-59.086	-16.8909	5.51336
 505	1	9	0.087961	-56.4898	-12.6875	8.35388
 506	1	9	0.066782	-56.6845	-11.3376	7.23703
 507	1	9	0.075908	-55.101	-12.1262	7.42109
 508	1	9	0.105172	-56.1126	-12.7287	2.1528
 509	1	9	0.115625	-56.7788	-14.2935	1.75351
 510	1	9	0.140296	-55.0727	-14.1621	2.23136
 511	1	4	0.48116	-66.7277	-21.0278	-10.7554
 512	1	3	0.034009	-66.8478	-19.8681	-9.99244
 513	1	1	0.028921	-66.025	-20.1292	-8.78354
 514	1	3	0.071556	-65.8756	-21.9726	-10.1958
 515	1	1	0.025276	-65.4606	-21.3834	-8.90146
 516	1	2	-0.381907	-67.5467	-18.8907	-10.201
 517	1	2	-0.393799	-65.5738	-23.0701	-10.6357
 518	1	1	-0.008998	-65.8362	-19.3415	-7.64221
 519	1	1	-0.064503	-64.6874	-21.9291	-7.87672
 520	1	1	-0.16756	-64.5013	-21.1597	-6.71224
 521	1	1	-0.085161	-65.0644	-19.8617	-6.56848
 522	1	7	0.158939	-66.2966	-18.3596	-7.61616
 523	1	7	0.163781	-64.2591	-22.9217	-7.97706
 524	1	7	0.161401	-63.8989	-21.5797	-5.91241
 525	1	5	-0.078003	-64.7562	-19.0527	-5.27735
 526	1	5	0.303704	-63.3291	-18.4161	-5.48167
 527	1	6	-0.1084	-62.3708	-19.3485	-5.68125
 528	1	6	-0.101508	-62.9513	-17.6656	-4.42483
 529	1	6	-0.111714	-63.2766	-17.6142	-6.56878
 530	1	5	0.380371	-65.7977	-17.8891	-5.00797
 531	1	6	-0.124028	-67.0827	-18.2958	-5.13795
 532	1	6	-0.119704	-65.6661	-16.8331	-5.83915
 533	1	6	-0.115877	-65.6755	-17.4029	-3.755
 534	1	1	-0.024709	-64.8256	-20.0305	-4.05736
 535	1	1	-0.076489	-63.725	-20.3243	-3.19726
 536	1	1	-0.052344	-63.9025	-21.2321	-2.13715
 537	1	1	-0.054202	-66.053	-20.7068	-3.81846
 538	1	1	-0.149083	-66.2223	-21.5891	-2.73793
 539	1	1	-0.063027	-65.1278	-21.8228	-1.90401
 540	1	3	0.499526	-64.9756	-22.8153	-0.813879
 541	1	4	-0.036881	-63.6218	-22.8389	-0.510613
 542	1	3	0.443545	-62.9093	-21.8686	-1.21368
 543	1	1	0.038197	-63.0458	-23.8789	0.2786
 544	1	1	-0.408621	-62.0129	-24.6859	-0.239279
 545	1	1	0.252781	-61.5634	-25.8157	0.466883
 546	1	1	-0.169778	-63.5942	-24.2059	1.53482
 547	1	1	-0.113042	-63.1336	-25.3244	2.25207
 548	1	1	0.016958	-62.135	-26.1478	1.7099
 549	1	7	0.167832	-67.1637	-22.1145	-2.58327
 550	1	7	0.134138	-66.8927	-20.5745	-4.49395
 551	1	7	0.145229	-62.7354	-19.9016	-3.34264
 552	1	2	-0.462312	-61.7023	-21.6913	-1.20839
 553	1	2	-0.483102	-65.8508	-23.5629	-0.41363
 554	1	7	0.144532	-63.5712	-25.5746	3.21552
 555	1	7	0.226042	-61.5745	-24.4684	-1.20653
 556	1	1	0.12103	-60.8821	-28.2235	1.95075
 557	1	1	-0.09864	-61.3998	-29.1762	1.05522
 558	1	1	-0.194398	-60.5916	-30.2284	0.60023
 559	1	1	-0.091961	-59.2701	-30.3266	1.05415
 560	1	1	-0.197799	-58.7786	-29.3976	1.98634
 561	1	1	-0.102777	-59.574	-28.3332	2.47361
 562	1	7	0.132074	-58.625	-31.1187	0.685593
 563	1	7	0.154044	-57.7424	-29.485	2.30917
 564	1	7	0.145155	-62.4285	-29.0934	0.717454
 565	1	7	0.14558	-59.6621	-28.445	3.54862
 566	1	10	-0.24014	-61.7181	-27.2439	2.43725
 567	1	7	0.152938	-64.4062	-23.6108	1.94361
 568	1	7	0.151751	-60.982	-30.9589	-0.100722
 569	1	1	-0.004194	-76.3882	-26.057	-14.7585
 570	1	1	-0.097141	-76.5432	-26.7739	-13.5437
 571	1	1	-0.172015	-77.8552	-27.1877	-13.1677
 572	1	2	-0.377994	-76.6969	-24.5689	-17.4562
 573	1	1	0.033493	-77.5157	-25.7744	-15.5307
 574	1	1	-0.063739	-78.9796	-26.8968	-13.9702
 575	1	2	-0.398381	-80.9379	-26.0064	-16.2286
 576	1	1	0.032144	-78.7755	-26.1883	-15.1567
 577	1	3	0.032313	-77.6139	-25.0822	-16.8368
 578	1	4	0.461698	-78.9586	-25.1576	-17.1854
 579	1	3	0.091945	-79.7377	-25.7922	-16.2181
 580	1	1	-0.10563	-74.296	-23.3683	-12.2968
 581	1	5	-0.099376	-75.2681	-27.1054	-12.7162
 582	1	1	-0.043296	-74.3902	-25.8161	-12.6742
 583	1	1	-0.073043	-75.0135	-24.5793	-12.3433
 584	1	1	-0.117827	-72.9283	-23.4117	-12.573
 585	1	1	-0.037562	-72.9941	-25.8113	-12.9441
 586	1	1	-0.083705	-72.2962	-24.5988	-12.8805
 587	1	5	0.396	-75.5731	-27.5009	-11.218
 588	1	5	0.310495	-74.5664	-28.3215	-13.4377
 589	1	6	-0.130298	-76.1515	-28.717	-11.0899
 590	1	6	-0.128745	-76.3986	-26.611	-10.6207
 591	1	6	-0.120019	-74.4457	-27.5284	-10.471
 592	1	6	-0.104287	-73.5143	-28.8085	-12.7396
 593	1	6	-0.095507	-74.1159	-27.9799	-14.6666
 594	1	6	-0.104872	-75.4141	-29.3605	-13.6236
 595	1	3	0.456145	-70.8506	-24.3136	-13.0812
 596	1	3	0.550902	-71.916	-22.3255	-12.582
 597	1	4	0.015704	-70.7134	-22.9437	-12.8899
 598	1	2	-0.456801	-69.974	-25.1342	-13.2947
 599	1	2	-0.487703	-72.1154	-21.1538	-12.3112
 600	1	1	-0.116566	-69.4727	-22.2528	-12.9772
 601	1	1	-0.050109	-68.7392	-21.962	-11.8049
 602	1	1	0.154929	-67.4927	-21.2974	-11.9183
 603	1	1	0.041555	-68.9869	-21.8631	-14.2423
 604	1	1	-0.223109	-67.7424	-21.2229	-14.3384
 605	1	1	-0.080449	-66.9815	-20.9492	-13.189
 606	1	5	-0.108008	-69.7889	-22.1246	-15.5122
 607	1	5	-0.182228	-65.6138	-20.2894	-13.3355
 608	1	5	-0.345523	-69.3184	-22.3648	-10.4399
 609	1	7	0.155183	-75.412	-25.733	-15.1114
 610	1	7	0.172904	-78.0284	-27.7587	-12.2619
 611	1	7	0.158028	-79.9774	-27.23	-13.6945
 612	1	7	0.153129	-74.7844	-22.4287	-12.0491
 613	1	7	0.142914	-76.0789	-24.5491	-12.1277
 614	1	7	0.135531	-72.4385	-26.7105	-13.1868
 615	1	7	0.17765	-67.3647	-20.9461	-15.3211
 616	1	9	0.046541	-70.8085	-21.7287	-15.425
 617	1	9	0.045238	-69.8566	-23.1989	-15.7208
 618	1	9	0.051941	-69.3321	-21.647	-16.3879
 619	1	9	0.087961	-65.3704	-20.084	-14.3864
 620	1	9	0.066782	-64.818	-20.934	-12.9389
 621	1	9	0.075908	-65.5766	-19.3311	-12.8012
 622	1	9	0.105172	-68.6056	-22.3066	-9.61007
 623	1	9	0.115625	-69.6802	-23.4006	-10.4483
 624	1	9	0.140296	-70.1644	-21.7145	-10.1802
 625	1	1	-0.004194	-74.378	-26.6274	-27.0194
 626	1	1	-0.097141	-75.3889	-27.5214	-26.5648
 627	1	1	-0.172015	-75.0996	-28.3389	-25.4351
 628	1	2	-0.377994	-71.8099	-24.9356	-27.4794
 629	1	1	0.033493	-73.1457	-26.6046	-26.354
 630	1	1	-0.063739	-73.8449	-28.3138	-24.7958
 631	1	2	-0.398381	-70.9179	-27.8628	-23.9695