pySIMM System Object

916 atoms
1005 bonds
1743 angles
2666 dihedrals
296 impropers

10 atom types
12 bond types
21 angle types
8 dihedral types
4 improper types

-126.439925 126.439925 xlo xhi
-126.439925 126.439925 ylo yhi
-126.439925 126.439925 zlo zhi

Masses

   1	14.01	# n
   2	12.01	# c
   3	12.01	# ca
   4	1.008	# hn
   5	16.0	# o
   6	1.008	# ha
   7	12.01	# c3
   8	19.0	# f
   9	16.0	# os
  10	1.008	# hc

Pair Coeffs

   1	0.17	3.249998523775958	# n
   2	0.086	3.3996695084235347	# c
   3	0.086	3.3996695084235347	# ca
   4	0.0157	1.069078461768407	# hn
   5	0.21	2.959921901149463	# o
   6	0.015	2.59964245953351	# ha
   7	0.1094	3.3996695084235347	# c3
   8	0.061	3.1181455134911875	# f
   9	0.17	3.0000123434657784	# os
  10	0.0157	2.649532787749369	# hc

Bond Coeffs

   1	345.8	1.086	# ca,ha
   2	427.6	1.3789	# c,n
   3	637.7	1.2183	# c,o
   4	321.0	1.5156	# c3,ca
   5	300.9	1.5375	# c3,c3
   6	384.2	1.4121	# ca,n
   7	376.6	1.3696	# ca,os
   8	403.2	1.0129	# hn,n
   9	356.9	1.3497	# c3,f
  10	461.1	1.3984	# ca,ca
  11	345.9	1.4906	# c,ca
  12	330.6	1.0969	# c3,hc

Angle Coeffs

   1	48.33	117.55	# c,n,hn
   2	74.22	123.05	# n,c,o
   3	64.28	120.33	# c,ca,ca
   4	66.11	109.24	# c3,c3,f
   5	63.48	119.89	# ca,os,ca
   6	63.53	120.77	# c3,ca,ca
   7	66.62	120.02	# ca,ca,ca
   8	63.15	112.07	# c3,c3,ca
   9	63.82	123.71	# c,n,ca
  10	62.86	111.51	# c3,c3,c3
  11	70.89	107.36	# f,c3,f
  12	67.87	120.19	# ca,ca,n
  13	63.74	127.08	# c,n,c
  14	48.18	119.88	# ca,ca,ha
  15	68.72	122.6	# ca,c,o
  16	63.56	112.24	# ca,c3,ca
  17	69.58	119.2	# ca,ca,os
  18	67.68	115.25	# ca,c,n
  19	49.75	116.02	# ha,ca,n
  20	39.4	107.58	# hc,c3,hc
  21	46.8	110.47	# ca,c3,hc

Dihedral Coeffs

   1	2	2.5	2	180	2.0	1	0	# hn,n,c,o
   2	1	3.625	2	180	# X,ca,ca,X
   3	1	1.0	2	180	# X,c,ca,X
   4	1	0.15555555555555556	3	0	# X,c3,c3,X
   5	1	0.0	2	0	# X,c3,ca,X
   6	1	0.9	2	180	# X,ca,os,X
   7	1	2.5	2	180	# X,c,n,X
   8	1	0.45	2	180	# X,ca,n,X

Improper Coeffs

   1	10.5	-1	2	# c,X,X,o
   2	1.1	-1	2	# ca,X,X,ha
   3	1.1	-1	2	# ca,ca,ca,c3
   4	1.1	-1	2	# n,X,X,hn

Atoms

   1	1	1	0.48116	8.78158	3.43311	30.7939
   2	1	2	0.034009	8.10499	2.21551	30.7942
   3	1	3	0.028921	9.07953	1.2009	31.3137
   4	1	2	0.071556	10.0188	3.33934	31.4325
   5	1	3	0.025276	10.2239	1.88274	31.6956
   6	1	5	-0.381907	6.96327	2.00751	30.423
   7	1	5	-0.393799	10.8279	4.23436	31.6061
   8	1	3	-0.008998	8.96367	-0.189693	31.481
   9	1	3	-0.064503	11.3133	1.2187	32.2701
  10	1	3	-0.16756	11.2184	-0.17656	32.4346
  11	1	3	-0.085161	10.0445	-0.904322	32.0752
  12	1	6	0.158939	8.0327	-0.691909	31.2011
  13	1	6	0.163781	12.2212	1.75889	32.5553
  14	1	6	0.161401	12.0868	-0.670809	32.8496
  15	1	7	-0.078003	9.89065	-2.4266	32.3854
  16	1	7	0.303704	9.96304	-3.24171	31.0263
  17	1	8	-0.1084	8.90481	-2.96215	30.238
  18	1	8	-0.101508	9.95233	-4.58364	31.1826
  19	1	8	-0.111714	11.0672	-2.9337	30.2986
  20	1	7	0.380371	10.9961	-2.96883	33.3751
  21	1	8	-0.124028	12.2311	-3.00919	32.8059
  22	1	8	-0.119704	10.7193	-4.22448	33.7706
  23	1	8	-0.115877	11.0294	-2.23424	34.5235
  24	1	3	-0.024709	8.53109	-2.60634	33.1189
  25	1	3	-0.076489	7.61831	-3.65557	32.8104
  26	1	3	-0.052344	6.43984	-3.74741	33.5615
  27	1	3	-0.054202	8.2063	-1.73509	34.1987
  28	1	3	-0.149083	6.99762	-1.83532	34.9099
  29	1	3	-0.063027	6.12362	-2.85369	34.554
  30	1	2	0.499526	4.79001	-3.18821	35.1092
  31	1	1	-0.036881	4.37252	-4.31595	34.3999
  32	1	2	0.443545	5.33209	-4.71408	33.4678
  33	1	3	0.038197	3.12966	-4.99865	34.6073
  34	1	3	-0.408621	2.34588	-5.38017	33.4986
  35	1	3	0.252781	1.10421	-5.98655	33.695
  36	1	3	-0.169778	2.65375	-5.24808	35.9173
  37	1	3	-0.113042	1.43129	-5.91091	36.1173
  38	1	3	0.016958	0.677053	-6.28766	34.9907
  39	1	6	0.167832	6.74086	-1.13875	35.7009
  40	1	6	0.134138	8.88338	-0.933064	34.4598
  41	1	6	0.145229	7.78158	-4.40541	32.0448
  42	1	5	-0.462312	5.27814	-5.62041	32.6597
  43	1	5	-0.483102	4.27295	-2.65184	36.0802
  44	1	6	0.144532	1.06646	-6.11299	37.1203
  45	1	6	0.226042	2.69256	-5.22127	32.479
  46	1	3	0.12103	-1.68452	-6.14122	34.9962
  47	1	3	-0.09864	-1.7661	-4.8075	35.4552
  48	1	3	-0.194398	-2.95246	-4.06537	35.3019
  49	1	3	-0.091961	-4.06869	-4.66337	34.6888
  50	1	3	-0.197799	-3.9887	-5.99109	34.2252
  51	1	3	-0.102777	-2.80442	-6.73432	34.3932
  52	1	6	0.132074	-5.00176	-4.10499	34.5848
  53	1	6	0.154044	-4.85781	-6.45084	33.7533
  54	1	6	0.145155	-0.916891	-4.34539	35.9439
  55	1	6	0.14558	-2.74449	-7.75897	34.0716
  56	1	9	-0.24014	-0.536603	-6.89338	35.1352
  57	1	6	0.152938	3.2425	-4.94011	36.7817
  58	1	6	0.151751	-3.01256	-3.04683	35.6678
  59	1	1	0.48116	16.0255	-6.85426	23.8118
  60	1	2	0.034009	15.5784	-5.99087	24.814
  61	1	3	0.028921	16.7985	-5.26099	25.2665
  62	1	2	0.071556	17.3706	-6.66814	23.4906
  63	1	3	0.025276	17.8466	-5.66575	24.4683
  64	1	5	-0.381907	14.4584	-5.92777	25.3025
  65	1	5	-0.393799	18.0272	-7.17217	22.5928
  66	1	3	-0.008998	16.9675	-4.33943	26.3045
  67	1	3	-0.064503	19.1199	-5.14637	24.626
  68	1	3	-0.16756	19.2933	-4.17266	25.6201
  69	1	3	-0.085161	18.2359	-3.73097	26.4847
  70	1	6	0.158939	16.1222	-4.11975	26.9482
  71	1	6	0.163781	19.9333	-5.4885	23.9907
  72	1	6	0.161401	20.2997	-3.78056	25.7091
  73	1	7	-0.078003	18.5389	-2.87914	27.7722
  74	1	7	0.303704	19.7467	-1.88379	27.5434
  75	1	8	-0.1084	19.5284	-1.21956	26.3808
  76	1	8	-0.101508	20.9659	-2.46986	27.4921
  77	1	8	-0.111714	19.8777	-0.940115	28.5057
  78	1	7	0.380371	18.9153	-4.00214	28.8372
  79	1	8	-0.124028	19.3817	-3.53096	30.0104
  80	1	8	-0.119704	19.9092	-4.80509	28.3819
  81	1	8	-0.115877	17.837	-4.77933	29.1346
  82	1	3	-0.024709	17.3485	-1.96041	28.2525
  83	1	3	-0.076489	16.3147	-1.47743	27.3819
  84	1	3	-0.052344	15.3046	-0.63295	27.9118
  85	1	3	-0.054202	17.3551	-1.47041	29.5916
  86	1	3	-0.149083	16.3652	-0.6116	30.0891
  87	1	3	-0.063027	15.3495	-0.216122	29.2278
  88	1	2	0.499526	14.1532	0.601165	29.5292
  89	1	1	-0.036881	13.4156	0.628334	28.3508
  90	1	2	0.443545	14.0244	-0.108966	27.3181
  91	1	3	0.038197	12.2068	1.39538	28.2261
  92	1	3	-0.408621	10.996	0.8128	27.7954
  93	1	3	0.252781	9.81743	1.56653	27.7006
  94	1	3	-0.169778	12.1941	2.75535	28.5871
  95	1	3	-0.113042	11.0277	3.52999	28.4434
  96	1	3	0.016958	9.83624	2.93014	28.0101
  97	1	6	0.167832	16.3932	-0.263533	31.1146
  98	1	6	0.134138	18.15	-1.69952	30.2879
  99	1	6	0.145229	16.2679	-1.77553	26.3404
 100	1	5	-0.462312	13.5731	-0.353726	26.2056
 101	1	5	-0.483102	13.8951	1.10835	30.6086
 102	1	6	0.144532	11.0325	4.5901	28.6833
 103	1	6	0.226042	10.9777	-0.2366	27.4891
 104	1	3	0.12103	8.1677	4.62913	28.7489
 105	1	3	-0.09864	7.40237	5.6007	28.085
 106	1	3	-0.194398	6.60358	6.48732	28.8089
 107	1	3	-0.091961	6.5337	6.34975	30.2015
 108	1	3	-0.197799	7.29895	5.35941	30.8589
 109	1	3	-0.102777	8.29881	4.63137	30.166
 110	1	6	0.132074	5.84726	6.98117	30.7661
 111	1	6	0.154044	7.18439	5.23312	31.9306
 112	1	6	0.145155	7.37004	5.59212	27.0047
 113	1	6	0.14558	9.14822	5.29219	30.3024
 114	1	9	-0.24014	8.64716	3.62215	27.9323
 115	1	6	0.152938	13.0932	3.23078	28.9666
 116	1	6	0.151751	5.99352	7.2218	28.2923
 117	1	1	0.48116	5.26797	-19.0756	24.8125
 118	1	2	0.034009	6.28424	-19.8919	24.2702
 119	1	3	0.028921	7.54465	-19.1647	24.5909
 120	1	2	0.071556	5.79498	-17.888	25.372
 121	1	3	0.025276	7.2595	-17.9516	25.1559
 122	1	5	-0.381907	6.19316	-20.9277	23.6067
 123	1	5	-0.393799	5.20215	-16.9282	25.8498
 124	1	3	-0.008998	8.85282	-19.5282	24.3013
 125	1	3	-0.064503	8.25862	-16.9794	25.3132
 126	1	3	-0.16756	9.59024	-17.3037	24.9813
 127	1	3	-0.085161	9.90797	-18.6086	24.5281
 128	1	6	0.158939	9.02652	-20.5232	23.8626
 129	1	6	0.163781	7.99859	-15.9997	25.7131
 130	1	6	0.161401	10.36	-16.5255	25.1263
 131	1	7	-0.078003	11.3778	-19.0293	24.2382
 132	1	7	0.303704	11.6706	-20.5066	24.6775
 133	1	8	-0.1084	11.1733	-20.8165	25.9019
 134	1	8	-0.101508	13.007	-20.6766	24.7148
 135	1	8	-0.111714	11.2271	-21.4527	23.8218
 136	1	7	0.380371	11.5935	-18.8839	22.6619
 137	1	8	-0.124028	12.759	-19.4162	22.2093
 138	1	8	-0.119704	11.512	-17.5796	22.301
 139	1	8	-0.115877	10.6056	-19.4569	21.942
 140	1	3	-0.024709	12.3232	-18.1737	25.1289
 141	1	3	-0.076489	13.2917	-17.3073	24.5714
 142	1	3	-0.052344	13.9309	-16.3841	25.3977
 143	1	3	-0.054202	12.1995	-18.1841	26.5532
 144	1	3	-0.149083	12.9221	-17.2927	27.3724
 145	1	3	-0.063027	13.7429	-16.3534	26.7529
 146	1	2	0.499526	14.38	-15.1243	27.3014
 147	1	1	-0.036881	14.9308	-14.4767	26.1848
 148	1	2	0.443545	14.6933	-15.189	25.0016
 149	1	3	0.038197	15.5571	-13.1966	26.1686
 150	1	3	-0.408621	15.0569	-12.1233	26.9343
 151	1	3	0.252781	15.4085	-10.7956	26.614
 152	1	3	-0.169778	16.5581	-12.9507	25.2051
 153	1	3	-0.113042	16.8709	-11.6374	24.8536
 154	1	3	0.016958	16.27	-10.5748	25.5291
 155	1	6	0.167832	12.7726	-17.2751	28.4581
 156	1	6	0.134138	11.4508	-18.793	27.0448
 157	1	6	0.145229	13.4815	-17.2304	23.505
 158	1	5	-0.462312	14.8056	-14.8325	23.8316
 159	1	5	-0.483102	14.1703	-14.7154	28.4266
 160	1	6	0.144532	17.526	-11.4605	24.0074
 161	1	6	0.226042	14.3172	-12.2976	27.7112
 162	1	3	0.12103	15.1318	-9.07042	24.0092
 163	1	3	-0.09864	14.0929	-9.99559	23.7376
 164	1	3	-0.194398	13.0501	-9.64895	22.8542
 165	1	3	-0.091961	12.9988	-8.34883	22.3322
 166	1	3	-0.197799	14.0249	-7.44366	22.6331
 167	1	3	-0.102777	15.2236	-7.88297	23.2468
 168	1	6	0.132074	12.1632	-8.03833	21.7083
 169	1	6	0.154044	13.9344	-6.41082	22.3001
 170	1	6	0.145155	14.0767	-10.9702	24.2099
 171	1	6	0.14558	15.8367	-8.19447	22.4071
 172	1	9	-0.24014	16.1812	-9.38193	24.8579
 173	1	6	0.152938	16.9902	-13.7587	24.6254
 174	1	6	0.151751	12.2366	-10.3521	22.6453
 175	1	1	0.48116	15.2727	-8.11185	18.2735
 176	1	2	0.034009	14.0768	-8.66043	18.7401
 177	1	3	0.028921	14.3889	-10.1084	18.9568
 178	1	2	0.071556	16.3132	-9.02684	18.1881
 179	1	3	0.025276	15.7072	-10.3201	18.6053
 180	1	5	-0.381907	12.9879	-8.11407	18.9374
 181	1	5	-0.393799	17.3607	-8.89352	17.5903
 182	1	3	-0.008998	13.5092	-11.1904	19.1279
 183	1	3	-0.064503	16.2423	-11.6095	18.58
 184	1	3	-0.16756	15.3965	-12.7097	18.809
 185	1	3	-0.085161	13.9976	-12.5219	18.9855
 186	1	6	0.158939	12.4503	-11.0005	19.2233
 187	1	6	0.163781	17.2737	-11.7477	18.3124
 188	1	6	0.161401	15.8508	-13.6716	18.7185
 189	1	7	-0.078003	13.0199	-13.7303	18.8279
 190	1	7	0.303704	12.4851	-13.6279	17.3385
 191	1	8	-0.1084	13.5125	-13.4255	16.4771
 192	1	8	-0.101508	11.6274	-12.6015	17.2091
 193	1	8	-0.111714	11.8808	-14.7515	16.9249
 194	1	7	0.380371	13.7373	-15.1254	19.0641
 195	1	8	-0.124028	14.4374	-15.1511	20.2369
 196	1	8	-0.119704	14.5528	-15.4338	18.0196
 197	1	8	-0.115877	12.8552	-16.1607	19.1131
 198	1	3	-0.024709	11.8859	-13.6605	19.863
 199	1	3	-0.076489	10.5978	-14.1147	19.5248
 200	1	3	-0.052344	9.64512	-14.1836	20.5192
 201	1	3	-0.054202	12.1787	-13.3397	21.2084
 202	1	3	-0.149083	11.2054	-13.4916	22.2179
 203	1	3	-0.063027	9.93378	-13.9167	21.8385
 204	1	2	0.499526	8.76015	-14.3274	22.637
 205	1	1	-0.036881	7.88047	-14.9106	21.711
 206	1	2	0.443545	8.28731	-14.7564	20.4067
 207	1	3	0.038197	6.70768	-15.6117	22.0169
 208	1	3	-0.408621	6.51309	-16.9113	21.521
 209	1	3	0.252781	5.33109	-17.6005	21.8198
 210	1	3	-0.169778	5.72329	-14.9781	22.7778
 211	1	3	-0.113042	4.53196	-15.6532	23.0575
 212	1	3	0.016958	4.35587	-16.9714	22.6065
 213	1	6	0.167832	11.4444	-13.3269	23.267
 214	1	6	0.134138	13.1827	-13.0372	21.4883
 215	1	6	0.145229	10.3071	-14.4214	18.5326
 216	1	5	-0.462312	7.70889	-15.0619	19.3638
 217	1	5	-0.483102	8.72165	-14.3158	23.8618
 218	1	6	0.144532	3.78139	-15.1882	23.6858
 219	1	6	0.226042	7.27755	-17.3759	20.8978
 220	1	3	0.12103	3.30539	-18.9738	23.4425
 221	1	3	-0.09864	2.51369	-19.8435	22.6556
 222	1	3	-0.194398	2.25801	-21.1386	23.1099
 223	1	3	-0.091961	2.74051	-21.5485	24.3536
 224	1	3	-0.197799	3.5378	-20.684	25.1256
 225	1	3	-0.102777	3.85177	-19.3608	24.6864
 226	1	6	0.132074	2.48749	-22.5354	24.7492
 227	1	6	0.154044	3.88772	-21.0394	26.0981
 228	1	6	0.145155	2.06869	-19.4901	21.7309
 229	1	6	0.14558	3.5415	-18.6279	25.4173
 230	1	9	-0.24014	3.25865	-17.6503	23.0612
 231	1	6	0.152938	5.89692	-13.9792	23.1688
 232	1	6	0.151751	1.62841	-21.7847	22.5172
 233	1	3	-0.004194	12.0767	-5.28614	9.16897
 234	1	3	-0.097141	11.9755	-3.94854	8.7243
 235	1	3	-0.172015	10.9087	-3.62154	7.82651
 236	1	5	-0.377994	12.0251	-8.30738	9.53885
 237	1	3	0.033493	11.2161	-6.23964	8.63302
 238	1	3	-0.063739	10.0549	-4.61326	7.30913
 239	1	5	-0.398381	8.98269	-7.18821	6.16028
 240	1	3	0.032144	10.2739	-5.92366	7.69851
 241	1	2	0.032313	11.2366	-7.70345	8.83554
 242	1	1	0.461698	10.3518	-8.18804	7.88108
 243	1	2	0.091945	9.71345	-7.16569	7.14545
 244	1	3	-0.10563	16.218	-4.25153	11.0965
 245	1	7	-0.099376	13.0442	-2.90216	9.12193
 246	1	3	-0.043296	13.9984	-3.45298	10.2609
 247	1	3	-0.073043	15.4032	-3.64714	10.1
 248	1	3	-0.117827	15.6197	-4.63812	12.3007
 249	1	3	-0.037562	13.4654	-3.76787	11.542
 250	1	3	-0.083705	14.2925	-4.34357	12.521
 251	1	7	0.396	12.3292	-1.59606	9.68831
 252	1	7	0.310495	13.8966	-2.46653	7.85557
 253	1	8	-0.130298	13.1822	-0.835403	10.4261
 254	1	8	-0.128745	11.2763	-1.91766	10.4762
 255	1	8	-0.120019	11.7907	-0.776328	8.76854
 256	1	8	-0.104287	14.6067	-3.5058	7.32391
 257	1	8	-0.095507	13.1286	-1.99075	6.81757
 258	1	8	-0.104872	14.792	-1.48948	8.14688
 259	1	2	0.456145	13.9504	-4.71898	13.913
 260	1	2	0.550902	16.2256	-5.10471	13.5684
 261	1	1	0.015704	15.1782	-5.04965	14.4849
 262	1	5	-0.456801	12.8416	-4.65674	14.4344
 263	1	5	-0.487703	17.4061	-5.3078	13.7549
 264	1	3	-0.116566	15.3099	-5.26284	15.8655
 265	1	3	-0.050109	15.0857	-6.54836	16.4092
 266	1	3	0.154929	15.3681	-6.78631	17.7763
 267	1	3	0.041555	15.775	-4.2038	16.6896
 268	1	3	-0.223109	15.9094	-4.42994	18.073
 269	1	3	-0.080449	15.7772	-5.72056	18.615
 270	1	7	-0.108008	16.1511	-2.82112	16.14
 271	1	7	-0.182228	16.2056	-5.99159	20.075
 272	1	7	-0.345523	14.593	-7.71341	15.5447
 273	1	6	0.155183	12.8529	-5.63382	9.82561
 274	1	6	0.172904	10.7747	-2.60628	7.45565
 275	1	6	0.158028	9.35437	-4.38044	6.51272
 276	1	6	0.153129	17.2915	-4.36346	10.9666
 277	1	6	0.142914	15.9252	-3.32912	9.21133
 278	1	6	0.135531	12.4095	-3.63976	11.7747
 279	1	6	0.17765	16.2147	-3.59658	18.7109
 280	1	10	0.046541	15.262	-2.27394	15.8192
 281	1	10	0.045238	16.8173	-2.90507	15.2705
 282	1	10	0.051941	16.6784	-2.2386	16.9105
 283	1	10	0.087961	16.3793	-5.05827	20.6368
 284	1	10	0.066782	17.1547	-6.56338	20.0831
 285	1	10	0.075908	15.4832	-6.59389	20.6317
 286	1	10	0.105172	14.198	-7.41324	14.581
 287	1	10	0.115625	13.8158	-8.31606	16.0258
 288	1	10	0.140296	15.4519	-8.37182	15.3215
 289	1	1	0.48116	0.00383399	-12.5129	-0.920732
 290	1	2	0.034009	1.03956	-12.8218	-0.00379015
 291	1	3	0.028921	0.799978	-14.2315	0.318263
 292	1	2	0.071556	-0.857665	-13.6195	-1.17094
 293	1	3	0.025276	-0.273814	-14.7072	-0.384631
 294	1	5	-0.381907	2.01909	-12.2014	0.403128
 295	1	5	-0.393799	-1.75974	-13.7511	-1.98822
 296	1	3	-0.008998	1.55937	-15.0691	1.13831
 297	1	3	-0.064503	-0.599151	-16.0636	-0.410192
 298	1	3	-0.16756	0.153182	-16.9018	0.40591
 299	1	3	-0.085161	1.2016	-16.4308	1.24688
 300	1	6	0.158939	2.34597	-14.634	1.73906
 301	1	6	0.163781	-1.42525	-16.4396	-0.997175
 302	1	6	0.161401	-0.148658	-17.9412	0.403035
 303	1	7	-0.078003	1.77177	-17.3051	2.40511
 304	1	7	0.303704	0.769944	-18.4668	2.79324
 305	1	8	-0.1084	1.08437	-19.0359	3.95525
 306	1	8	-0.101508	0.76597	-19.4283	1.84456
 307	1	8	-0.111714	-0.506237	-18.0488	2.92995
 308	1	7	0.380371	3.1952	-17.904	2.03765
 309	1	8	-0.124028	3.1518	-18.6277	0.895535
 310	1	8	-0.119704	3.65061	-18.6924	3.02177
 311	1	8	-0.115877	4.19298	-17.0006	1.81214
 312	1	3	-0.024709	1.85944	-16.3699	3.61881
 313	1	3	-0.076489	3.07895	-16.0634	4.25166
 314	1	3	-0.052344	3.14867	-14.9638	5.07055
 315	1	3	-0.054202	0.708746	-15.5898	3.9513
 316	1	3	-0.149083	0.798068	-14.4968	4.84459
 317	1	3	-0.063027	2.05271	-14.2057	5.39335
 318	1	2	0.499526	2.52026	-13.0822	6.25548
 319	1	1	-0.036881	3.88794	-13.2491	6.32327
 320	1	2	0.443545	4.37184	-14.33	5.60292
 321	1	3	0.038197	4.73776	-12.2332	6.77943
 322	1	3	-0.408621	5.48616	-12.4108	7.95476
 323	1	3	0.252781	6.53466	-11.5231	8.25513
 324	1	3	-0.169778	4.94037	-11.1066	5.96908
 325	1	3	-0.113042	5.90885	-10.1507	6.33053
 326	1	3	0.016958	6.74771	-10.3868	7.44446
 327	1	6	0.167832	-0.0415215	-13.8408	5.05359
 328	1	6	0.134138	-0.238687	-15.7995	3.45198
 329	1	6	0.145229	4.02115	-16.5556	4.06743
 330	1	5	-0.462312	5.51986	-14.625	5.29517
 331	1	5	-0.483102	1.86189	-12.1439	6.67973
 332	1	6	0.144532	6.07819	-9.30427	5.66928
 333	1	6	0.226042	5.30532	-13.2657	8.58598
 334	1	3	0.12103	9.06976	-9.99078	7.01651
 335	1	3	-0.09864	9.05284	-10.7279	5.79201
 336	1	3	-0.194398	10.2452	-11.1602	5.194
 337	1	3	-0.091961	11.4531	-10.8233	5.80829
 338	1	3	-0.197799	11.4829	-10.0506	6.98581
 339	1	3	-0.102777	10.2935	-9.58131	7.59535
 340	1	6	0.132074	12.3779	-11.2006	5.37339
 341	1	6	0.154044	12.4546	-9.7813	7.41718
 342	1	6	0.145155	8.12267	-11.0027	5.3035
 343	1	6	0.14558	10.2905	-9.87347	8.64956
 344	1	9	-0.24014	7.89777	-9.62782	7.64478
 345	1	6	0.152938	4.32166	-10.9611	5.07844
 346	1	6	0.151751	10.238	-11.7253	4.2579
 347	1	1	0.48116	-2.93193	-5.57794	-7.63003
 348	1	2	0.034009	-3.19513	-6.94732	-7.73207
 349	1	3	0.028921	-3.17725	-7.23175	-9.19253
 350	1	2	0.071556	-2.58305	-4.97894	-8.85686
 351	1	3	0.025276	-2.7758	-6.06466	-9.85443
 352	1	5	-0.381907	-3.50348	-7.69837	-6.84195
 353	1	5	-0.393799	-2.61273	-3.78736	-9.13256
 354	1	3	-0.008998	-3.76271	-8.30778	-9.89944
 355	1	3	-0.064503	-2.93291	-5.89935	-11.2351
 356	1	3	-0.16756	-3.56973	-6.93135	-11.9417
 357	1	3	-0.085161	-3.92974	-8.16781	-11.297
 358	1	6	0.158939	-4.16461	-9.15073	-9.33652
 359	1	6	0.163781	-2.68438	-4.91886	-11.6784
 360	1	6	0.161401	-3.85583	-6.75111	-12.9679
 361	1	7	-0.078003	-4.60953	-9.34169	-12.1045
 362	1	7	0.303704	-6.17112	-9.12629	-12.0756
 363	1	8	-0.1084	-6.59702	-7.96666	-12.5932
 364	1	8	-0.101508	-6.62568	-9.13251	-10.7876
 365	1	8	-0.111714	-6.8573	-10.0771	-12.7497
 366	1	7	0.380371	-4.06956	-9.43038	-13.5902
 367	1	8	-0.124028	-4.5803	-8.47932	-14.4342
 368	1	8	-0.119704	-4.31368	-10.6266	-14.1375
 369	1	8	-0.115877	-2.7367	-9.24481	-13.6765
 370	1	3	-0.024709	-4.13036	-10.6928	-11.4384
 371	1	3	-0.076489	-2.76006	-10.834	-11.0592
 372	1	3	-0.052344	-2.46215	-11.7503	-10.0376
 373	1	3	-0.054202	-5.06203	-11.659	-10.9246
 374	1	3	-0.149083	-4.71239	-12.5104	-9.88577
 375	1	3	-0.063027	-3.42493	-12.5182	-9.42481
 376	1	2	0.499526	-2.87391	-13.0312	-8.13419
 377	1	1	-0.036881	-1.61111	-12.4493	-8.00558
 378	1	2	0.443545	-1.28399	-11.7307	-9.15476
 379	1	3	0.038197	-0.882173	-12.3647	-6.79156
 380	1	3	-0.408621	-0.337049	-13.498	-6.18501
 381	1	3	0.252781	0.447922	-13.4142	-5.02425
 382	1	3	-0.169778	-0.648103	-11.1209	-6.21182
 383	1	3	-0.113042	0.11845	-11.0245	-5.04016
 384	1	3	0.016958	0.677196	-12.1671	-4.42714
 385	1	6	0.167832	-5.47385	-13.0334	-9.3541
 386	1	6	0.134138	-6.13022	-11.6118	-11.1085
 387	1	6	0.145229	-1.99808	-10.1281	-11.3653
 388	1	5	-0.462312	-0.354112	-10.9836	-9.32236
 389	1	5	-0.483102	-3.51636	-13.7143	-7.36346
 390	1	6	0.144532	0.350346	-10.0359	-4.62326
 391	1	6	0.226042	-0.393904	-14.4694	-6.702
 392	1	3	0.12103	1.08289	-11.0805	-2.31793
 393	1	3	-0.09864	1.92058	-9.96766	-2.0597
 394	1	3	-0.194398	1.4774	-8.95746	-1.19165
 395	1	3	-0.091961	0.243181	-9.14057	-0.518028
 396	1	3	-0.197799	-0.571845	-10.2489	-0.767293
 397	1	3	-0.102777	-0.126345	-11.2733	-1.62159
 398	1	6	0.132074	-0.136602	-8.39652	0.173407
 399	1	6	0.154044	-1.54025	-10.3741	-0.220305
 400	1	6	0.145155	2.86825	-9.85979	-2.56671
 401	1	6	0.14558	-0.932363	-11.5591	-2.29333
 402	1	9	-0.24014	1.45011	-12.0223	-3.27488
 403	1	6	0.152938	-1.03021	-10.2353	-6.71149
 404	1	6	0.151751	2.09443	-8.07809	-0.984016
 405	1	3	-0.004194	2.54521	-3.81419	1.61955
 406	1	3	-0.097141	1.47497	-3.76743	2.53854
 407	1	3	-0.172015	1.62717	-4.65024	3.65657
 408	1	5	-0.377994	3.99668	-4.97878	-0.607332
 409	1	3	0.033493	3.4623	-4.84338	1.69161
 410	1	3	-0.063739	2.67277	-5.55204	3.79995
 411	1	5	-0.398381	5.21062	-7.27421	3.3467
 412	1	3	0.032144	3.58897	-5.62352	2.79443
 413	1	2	0.032313	4.17246	-5.38281	0.546994
 414	1	1	0.461698	5.00557	-6.35289	1.16648
 415	1	2	0.091945	4.66837	-6.57149	2.531
 416	1	3	-0.10563	0.103902	-1.23404	-1.20437
 417	1	7	-0.099376	0.317414	-2.70667	2.38375
 418	1	3	-0.043296	-0.0178449	-2.5642	0.877053
 419	1	3	-0.073043	0.344208	-1.36033	0.184452
 420	1	3	-0.117827	-0.418232	-2.30326	-1.89235
 421	1	3	-0.037562	-0.58441	-3.64668	0.140607
 422	1	3	-0.083705	-0.726561	-3.48421	-1.25068
 423	1	7	0.396	0.869216	-1.37875	3.00848
 424	1	7	0.310495	-0.913597	-3.16326	3.27465
 425	1	8	-0.130298	1.10449	-1.50459	4.35893
 426	1	8	-0.128745	0.00424188	-0.351905	2.84262
 427	1	8	-0.120019	2.09567	-1.01772	2.4774
 428	1	8	-0.104287	-0.747302	-3.18797	4.61267
 429	1	8	-0.095507	-1.25782	-4.45298	3.0816
 430	1	8	-0.104872	-2.02227	-2.44821	3.02089
 431	1	2	0.456145	-1.42704	-4.33317	-2.24421
 432	1	2	0.550902	-1.0117	-2.32151	-3.24565
 433	1	1	0.015704	-1.61947	-3.53898	-3.34734
 434	1	5	-0.456801	-1.9069	-5.41672	-1.96039
 435	1	5	-0.487703	-1.19982	-1.35776	-3.94998
 436	1	3	-0.116566	-2.61922	-3.80231	-4.32119
 437	1	3	-0.050109	-2.25311	-4.55922	-5.46061
 438	1	3	0.154929	-3.23077	-4.79716	-6.46644
 439	1	3	0.041555	-3.85489	-3.12077	-4.23999
 440	1	3	-0.223109	-4.78222	-3.38429	-5.24256
 441	1	3	-0.080449	-4.52035	-4.2406	-6.33382
 442	1	7	-0.108008	-4.1799	-2.09924	-3.13984
 443	1	7	-0.182228	-5.56519	-4.42905	-7.43954
 444	1	7	-0.345523	-0.856793	-5.13152	-5.66597
 445	1	6	0.155183	2.46674	-3.3117	0.656793
 446	1	6	0.172904	0.89068	-4.73394	4.47753
 447	1	6	0.158028	2.71144	-6.18662	4.64472
 448	1	6	0.153129	0.266735	-0.340917	-1.75743
 449	1	6	0.142914	0.81337	-0.491979	0.644144
 450	1	6	0.135531	-0.813596	-4.60893	0.610536
 451	1	6	0.17765	-5.787	-2.91571	-5.15184
 452	1	10	0.046541	-5.20011	-1.70467	-3.18896
 453	1	10	0.045238	-3.51262	-1.22044	-3.21682
 454	1	10	0.051941	-4.03449	-2.49871	-2.12791
 455	1	10	0.087961	-5.35295	-3.90958	-8.3654
 456	1	10	0.066782	-6.56143	-4.03197	-7.15513
 457	1	10	0.075908	-5.67554	-5.49426	-7.67291
 458	1	10	0.105172	-0.921348	-6.18715	-5.9935
 459	1	10	0.115625	-0.26559	-5.14145	-4.75118
 460	1	10	0.140296	-0.307321	-4.54178	-6.42549
 461	1	1	0.48116	9.31391	6.97969	-9.30156
 462	1	2	0.034009	8.71108	7.65187	-8.20186
 463	1	3	0.028921	8.90734	6.68926	-7.05623
 464	1	2	0.071556	9.68566	5.7148	-9.01768
 465	1	3	0.025276	9.36001	5.50041	-7.58574
 466	1	5	-0.381907	7.87199	8.59395	-8.22843
 467	1	5	-0.393799	10.3748	4.9686	-9.66204
 468	1	3	-0.008998	8.47516	6.78658	-5.73234
 469	1	3	-0.064503	9.24098	4.31203	-6.82314
 470	1	3	-0.16756	8.84861	4.38822	-5.48797
 471	1	3	-0.085161	8.53751	5.64091	-4.89321
 472	1	6	0.158939	8.09977	7.70672	-5.35885
 473	1	6	0.163781	9.64484	3.40106	-7.25288
 474	1	6	0.161401	8.83678	3.476	-4.95272
 475	1	7	-0.078003	8.16052	5.58782	-3.39964
 476	1	7	0.303704	9.52326	5.60822	-2.64849
 477	1	8	-0.1084	10.1625	6.77375	-2.96343
 478	1	8	-0.101508	10.4076	4.59616	-3.00713
 479	1	8	-0.111714	9.45126	5.53625	-1.32835
 480	1	7	0.380371	7.17345	6.66351	-2.73164
 481	1	8	-0.124028	6.04316	6.74247	-3.41445
 482	1	8	-0.119704	7.68385	7.85147	-2.72214
 483	1	8	-0.115877	6.8552	6.51053	-1.43277
 484	1	3	-0.024709	7.30742	4.29914	-3.18945
 485	1	3	-0.076489	7.72284	3.31595	-2.23027
 486	1	3	-0.052344	6.73132	2.34012	-1.90368
 487	1	3	-0.054202	6.09403	4.1186	-3.93995
 488	1	3	-0.149083	5.17582	3.08467	-3.59011
 489	1	3	-0.063027	5.53169	2.22667	-2.52016
 490	1	2	0.499526	4.97454	0.872563	-2.13734
 491	1	1	-0.036881	5.8395	0.277075	-1.25679
 492	1	2	0.443545	6.85176	1.17001	-0.961584
 493	1	3	0.038197	5.93272	-1.14692	-0.929941
 494	1	3	-0.408621	5.7266	-2.19387	-1.79703
 495	1	3	0.252781	6.17412	-3.54774	-1.59177
 496	1	3	-0.169778	6.56532	-1.51996	0.224376
 497	1	3	-0.113042	7.02968	-2.77889	0.532508
 498	1	3	0.016958	6.83503	-3.83545	-0.391584
 499	1	6	0.167832	4.19679	2.96601	-4.05638
 500	1	6	0.134138	5.85637	4.79455	-4.73562
 501	1	6	0.145229	8.66803	3.18266	-1.78243
 502	1	5	-0.462312	7.86403	1.01259	-0.279936
 503	1	5	-0.483102	4.06248	0.271473	-2.70492
 504	1	6	0.144532	7.58663	-2.89216	1.44436
 505	1	6	0.226042	5.31279	-1.95304	-2.75384
 506	1	3	0.12103	6.81035	-6.38139	-0.463952
 507	1	3	-0.09864	7.56171	-7.17052	-1.37681
 508	1	3	-0.194398	7.32973	-8.55854	-1.55279
 509	1	3	-0.091961	6.33944	-9.14134	-0.731881
 510	1	3	-0.197799	5.6595	-8.38373	0.216333
 511	1	3	-0.102777	6.05075	-7.05899	0.524055
 512	1	6	0.132074	6.13022	-10.1989	-0.843845
 513	1	6	0.154044	4.84289	-8.86641	0.753637
 514	1	6	0.145155	8.39808	-6.76764	-1.91324
 515	1	6	0.14558	6.77196	-7.12518	1.32412
 516	1	9	-0.24014	7.33975	-5.12244	-0.180306
 517	1	6	0.152938	6.747	-0.808702	1.03103
 518	1	6	0.151751	7.98422	-9.15839	-2.16114
 519	1	3	-0.004194	3.24591	7.74115	-17.6652
 520	1	3	-0.097141	3.53195	8.31677	-18.9091
 521	1	3	-0.172015	2.57568	9.034	-19.6321
 522	1	5	-0.377994	2.31063	6.98089	-14.9608
 523	1	3	0.033493	2.04842	8.02375	-17.0985
 524	1	3	-0.063739	1.2302	9.29356	-19.1064
 525	1	5	-0.398381	-1.23784	9.24619	-17.0951
 526	1	3	0.032144	1.03447	8.72718	-17.7953
 527	1	2	0.032313	1.63647	7.64333	-15.7412
 528	1	1	0.461698	0.335467	8.21151	-15.6811
 529	1	2	0.091945	-0.138554	8.76336	-16.8859
 530	1	3	-0.10563	5.93149	10.1543	-15.7888
 531	1	7	-0.099376	5.07541	8.35438	-19.1904
 532	1	3	-0.043296	5.79602	8.70716	-17.7891
 533	1	3	-0.073043	5.45439	9.8754	-17.1057
 534	1	3	-0.117827	6.75104	9.29946	-15.1865
 535	1	3	-0.037562	6.60485	7.77008	-17.106
 536	1	3	-0.083705	7.17403	8.15195	-15.8767
 537	1	7	0.396	5.42872	9.47506	-20.1817
 538	1	7	0.310495	5.36232	6.97435	-19.9351
 539	1	8	-0.130298	4.71584	10.5871	-19.8208
 540	1	8	-0.128745	5.32712	9.25862	-21.4613
 541	1	8	-0.120019	6.69021	9.771	-20.0717
 542	1	8	-0.104287	4.51775	6.88558	-21.0083
 543	1	8	-0.095507	5.1355	5.82316	-19.2712
 544	1	8	-0.104872	6.6479	6.83636	-20.4113
 545	1	2	0.456145	8.21818	7.48491	-14.9727
 546	1	2	0.550902	7.57411	9.46605	-13.9836
 547	1	1	0.015704	8.48186	8.38452	-13.9557
 548	1	5	-0.456801	8.79329	6.44348	-15.1094
 549	1	5	-0.487703	7.35458	10.2316	-13.0622
 550	1	3	-0.116566	9.37858	8.18086	-12.8772
 551	1	3	-0.050109	8.91746	7.56999	-11.6998
 552	1	3	0.154929	9.7022	7.62336	-10.5348
 553	1	3	0.041555	10.6662	8.69	-12.8985
 554	1	3	-0.223109	11.3942	8.88099	-11.7422
 555	1	3	-0.080449	10.9604	8.30815	-10.555
 556	1	7	-0.108008	11.2177	9.30803	-14.2497
 557	1	7	-0.182228	11.9437	8.34272	-9.44223
 558	1	7	-0.345523	7.62998	6.77235	-11.7129
 559	1	6	0.155183	4.02733	7.21221	-17.0571
 560	1	6	0.172904	2.75988	9.4922	-20.6507
 561	1	6	0.158028	0.435899	9.83605	-19.6531
 562	1	6	0.153129	5.57197	11.0978	-15.311
 563	1	6	0.142914	4.66724	10.5447	-17.5127
 564	1	6	0.135531	6.91182	6.86117	-17.6059
 565	1	6	0.17765	12.3238	9.42721	-11.8446
 566	1	10	0.046541	11.8413	8.56989	-14.7678
 567	1	10	0.045238	11.8845	10.1487	-14.0084
 568	1	10	0.051941	10.4626	9.68277	-14.9675
 569	1	10	0.087961	11.7022	9.3098	-8.98358
 570	1	10	0.066782	13.023	8.24553	-9.81431
 571	1	10	0.075908	11.7485	7.55562	-8.71233
 572	1	10	0.105172	6.82188	7.23154	-12.2256
 573	1	10	0.115625	7.21714	6.5738	-10.7222
 574	1	10	0.140296	7.77019	5.81461	-12.1509
 575	1	1	0.48116	-11.6282	15.1689	-8.07424
 576	1	2	0.034009	-10.8953	16.2515	-7.68205
 577	1	3	0.028921	-9.63609	15.6171	-7.15838
 578	1	2	0.071556	-11.126	13.8413	-7.91139
 579	1	3	0.025276	-9.82179	14.2268	-7.28232
 580	1	5	-0.381907	-11.1636	17.4297	-7.8476
 581	1	5	-0.393799	-11.4281	12.8894	-8.59638
 582	1	3	-0.008998	-8.52777	16.1745	-6.53099
 583	1	3	-0.064503	-8.81142	13.315	-6.77405
 584	1	3	-0.16756	-7.6722	13.9183	-6.21888
 585	1	3	-0.085161	-7.47982	15.2893	-6.08267
 586	1	6	0.158939	-8.52265	17.2297	-6.4235
 587	1	6	0.163781	-8.89086	12.2856	-6.9007
 588	1	6	0.161401	-6.96966	13.1707	-5.853
 589	1	7	-0.078003	-6.16942	15.7137	-5.29218
 590	1	7	0.303704	-6.56048	15.3857	-3.85452
 591	1	8	-0.1084	-6.61994	14.0435	-3.60435
 592	1	8	-0.101508	-7.74325	15.8866	-3.54304
 593	1	8	-0.111714	-5.66642	15.9231	-2.87663
 594	1	7	0.380371	-5.77373	17.2915	-5.40006
 595	1	8	-0.124028	-5.78148	17.7289	-6.66272
 596	1	8	-0.119704	-4.50518	17.4439	-5.07006
 597	1	8	-0.115877	-6.50668	18.1963	-4.76066
 598	1	3	-0.024709	-4.91504	14.8292	-5.70645
 599	1	3	-0.076489	-4.56676	14.7876	-7.08814
 600	1	3	-0.052344	-3.47958	14.0048	-7.50519
 601	1	3	-0.054202	-4.14092	14.0226	-4.77208
 602	1	3	-0.149083	-3.1132	13.1546	-5.27603
 603	1	3	-0.063027	-2.77129	13.2091	-6.62865
 604	1	2	0.499526	-1.91248	12.2524	-7.42149
 605	1	1	-0.036881	-2.07713	12.5876	-8.73867
 606	1	2	0.443545	-2.97311	13.6922	-8.92036
 607	1	3	0.038197	-1.38296	11.8969	-9.82724
 608	1	3	-0.408621	-0.956032	12.5862	-10.9836
 609	1	3	0.252781	-0.34684	11.9472	-12.1166
 610	1	3	-0.169778	-1.25465	10.4645	-9.85806
 611	1	3	-0.113042	-0.779649	9.78892	-11.0449
 612	1	3	0.016958	-0.299892	10.5345	-12.142
 613	1	6	0.167832	-2.57502	12.5198	-4.57637
 614	1	6	0.134138	-4.33301	14.0129	-3.7505
 615	1	6	0.145229	-5.11103	15.325	-7.86674
 616	1	5	-0.462312	-3.29732	14.3913	-9.90287
 617	1	5	-0.483102	-1.45997	11.2213	-7.04983
 618	1	6	0.144532	-0.732687	8.61387	-11.0663
 619	1	6	0.226042	-0.877955	13.6615	-10.9879
 620	1	3	0.12103	-0.952595	8.9743	-13.8703
 621	1	3	-0.09864	-2.3464	9.04594	-13.5674
 622	1	3	-0.194398	-3.23131	7.93897	-13.7574
 623	1	3	-0.091961	-2.79749	6.76256	-14.3636
 624	1	3	-0.197799	-1.47315	6.7595	-14.8284
 625	1	3	-0.102777	-0.522058	7.89312	-14.5732
 626	1	6	0.132074	-3.51583	5.92206	-14.5022
 627	1	6	0.154044	-1.19603	5.88006	-15.4544
 628	1	6	0.145155	-2.73115	9.92169	-13.04
 629	1	6	0.14558	0.324691	7.66208	-13.9457
 630	1	9	-0.24014	-0.0417796	9.93655	-13.3255
 631	1	6	0.152938	-1.54697	9.89902	-9.03471
 632	1	6	0.151751	-4.28706	8.05639	-13.4406
 633	1	3	-0.004194	-20.905	15.5746	-10.1472
 634	1	3	-0.097141	-22.0457	15.551	-9.34339
 635	1	3	-0.172015	-23.1658	14.8318	-9.89577
 636	1	5	-0.377994	-18.8232	15.6282	-12.6467
 637	1	3	0.033493	-20.8462	14.8887	-11.4159
 638	1	3	-0.063739	-23.084	14.1109	-11.1407