pySIMM System Object

1024 atoms
1121 bonds
1955 angles
2962 dihedrals
320 impropers

10 atom types
12 bond types
21 angle types
8 dihedral types
4 improper types

-131.502821 131.502821 xlo xhi
-131.502821 131.502821 ylo yhi
-131.502821 131.502821 zlo zhi

Masses

   1	14.01	# n
   2	12.01	# c
   3	12.01	# ca
   4	1.008	# hn
   5	16.0	# o
   6	1.008	# ha
   7	12.01	# c3
   8	19.0	# f
   9	16.0	# os
  10	1.008	# hc

Pair Coeffs

   1	0.17	3.249998523775958	# n
   2	0.086	3.3996695084235347	# c
   3	0.086	3.3996695084235347	# ca
   4	0.0157	1.069078461768407	# hn
   5	0.21	2.959921901149463	# o
   6	0.015	2.59964245953351	# ha
   7	0.1094	3.3996695084235347	# c3
   8	0.061	3.1181455134911875	# f
   9	0.17	3.0000123434657784	# os
  10	0.0157	2.649532787749369	# hc

Bond Coeffs

   1	345.8	1.086	# ca,ha
   2	427.6	1.3789	# c,n
   3	637.7	1.2183	# c,o
   4	321.0	1.5156	# c3,ca
   5	300.9	1.5375	# c3,c3
   6	384.2	1.4121	# ca,n
   7	376.6	1.3696	# ca,os
   8	403.2	1.0129	# hn,n
   9	356.9	1.3497	# c3,f
  10	461.1	1.3984	# ca,ca
  11	345.9	1.4906	# c,ca
  12	330.6	1.0969	# c3,hc

Angle Coeffs

   1	48.33	117.55	# c,n,hn
   2	74.22	123.05	# n,c,o
   3	64.28	120.33	# c,ca,ca
   4	66.11	109.24	# c3,c3,f
   5	63.48	119.89	# ca,os,ca
   6	63.53	120.77	# c3,ca,ca
   7	66.62	120.02	# ca,ca,ca
   8	63.15	112.07	# c3,c3,ca
   9	63.82	123.71	# c,n,ca
  10	62.86	111.51	# c3,c3,c3
  11	70.89	107.36	# f,c3,f
  12	67.87	120.19	# ca,ca,n
  13	63.74	127.08	# c,n,c
  14	48.18	119.88	# ca,ca,ha
  15	68.72	122.6	# ca,c,o
  16	63.56	112.24	# ca,c3,ca
  17	69.58	119.2	# ca,ca,os
  18	67.68	115.25	# ca,c,n
  19	49.75	116.02	# ha,ca,n
  20	39.4	107.58	# hc,c3,hc
  21	46.8	110.47	# ca,c3,hc

Dihedral Coeffs

   1	2	2.5	2	180	2.0	1	0	# hn,n,c,o
   2	1	3.625	2	180	# X,ca,ca,X
   3	1	1.0	2	180	# X,c,ca,X
   4	1	0.15555555555555556	3	0	# X,c3,c3,X
   5	1	0.0	2	0	# X,c3,ca,X
   6	1	0.9	2	180	# X,ca,os,X
   7	1	2.5	2	180	# X,c,n,X
   8	1	0.45	2	180	# X,ca,n,X

Improper Coeffs

   1	10.5	-1	2	# c,X,X,o
   2	1.1	-1	2	# ca,X,X,ha
   3	1.1	-1	2	# ca,ca,ca,c3
   4	1.1	-1	2	# n,X,X,hn

Atoms

   1	1	1	0.48116	-32.6989	12.8398	15.8091
   2	1	2	0.034009	-33.2631	13.2848	17.0165
   3	1	3	0.028921	-34.3351	12.3056	17.3434
   4	1	2	0.071556	-33.3216	11.6749	15.341
   5	1	3	0.025276	-34.3546	11.349	16.3498
   6	1	5	-0.381907	-33.0478	14.3403	17.5936
   7	1	5	-0.393799	-33.1498	11.0813	14.2908
   8	1	3	-0.008998	-35.2421	12.2843	18.4129
   9	1	3	-0.064503	-35.2643	10.299	16.3719
  10	1	3	-0.16756	-36.209	10.2755	17.4145
  11	1	3	-0.085161	-36.2236	11.2571	18.4521
  12	1	6	0.158939	-35.187	13.0794	19.149
  13	1	6	0.163781	-35.2572	9.54848	15.5795
  14	1	6	0.161401	-36.9555	9.48287	17.4015
  15	1	7	-0.078003	-37.3745	11.21	19.5041
  16	1	7	0.303704	-37.1188	12.084	20.7976
  17	1	8	-0.1084	-38.079	11.9027	21.7354
  18	1	8	-0.101508	-37.0706	13.4246	20.5556
  19	1	8	-0.111714	-35.9655	11.7116	21.3832
  20	1	7	0.380371	-38.6296	11.7946	18.7789
  21	1	8	-0.124028	-39.0571	10.9871	17.7848
  22	1	8	-0.119704	-38.3432	12.9999	18.2343
  23	1	8	-0.115877	-39.68	11.9458	19.6136
  24	1	3	-0.024709	-37.5658	9.72189	19.9279
  25	1	3	-0.076489	-38.8237	9.05862	19.9577
  26	1	3	-0.052344	-38.8575	7.6926	20.2855
  27	1	3	-0.054202	-36.4001	8.96672	20.2304
  28	1	3	-0.149083	-36.4408	7.58643	20.503
  29	1	3	-0.063027	-37.6972	6.97254	20.5134
  30	1	2	0.499526	-38.0651	5.54534	20.7015
  31	1	1	-0.036881	-39.4509	5.49881	20.6447
  32	1	2	0.443545	-40.0119	6.7492	20.4136
  33	1	3	0.038197	-40.2092	4.29505	20.7215
  34	1	3	-0.408621	-41.326	4.1872	21.5672
  35	1	3	0.252781	-42.134	3.03753	21.5276
  36	1	3	-0.169778	-39.9025	3.22906	19.858
  37	1	3	-0.113042	-40.6931	2.06964	19.8343
  38	1	3	0.016958	-41.8192	1.9686	20.6678
  39	1	6	0.167832	-35.5344	7.01255	20.6838
  40	1	6	0.134138	-35.4271	9.45421	20.204
  41	1	6	0.145229	-39.7638	9.55731	19.7422
  42	1	5	-0.462312	-41.1966	7.03742	20.3508
  43	1	5	-0.483102	-37.285	4.61408	20.7899
  44	1	6	0.144532	-40.4448	1.2544	19.1663
  45	1	6	0.226042	-41.6109	5.01222	22.2127
  46	1	3	0.12103	-43.9671	0.833561	20.7113
  47	1	3	-0.09864	-44.7395	1.96351	20.3711
  48	1	3	-0.194398	-46.1332	1.93989	20.5206
  49	1	3	-0.091961	-46.769	0.781645	20.982
  50	1	3	-0.197799	-46.0078	-0.363783	21.2755
  51	1	3	-0.102777	-44.6091	-0.340809	21.1433
  52	1	6	0.132074	-47.8478	0.760809	21.0945
  53	1	6	0.154044	-46.506	-1.28201	21.6002
  54	1	6	0.145155	-44.2668	2.85836	19.9845
  55	1	6	0.14558	-44.015	-1.21638	21.4059
  56	1	9	-0.24014	-42.5918	0.828424	20.6279
  57	1	6	0.152938	-39.0529	3.3017	19.1844
  58	1	6	0.151751	-46.7239	2.82308	20.2849
  59	1	1	0.48116	-15.0228	10.5135	19.1356
  60	1	2	0.034009	-15.9791	9.54191	18.7969
  61	1	3	0.028921	-17.1465	9.83507	19.6581
  62	1	2	0.071556	-15.4963	11.4385	20.0721
  63	1	3	0.025276	-16.8508	10.9458	20.4151
  64	1	5	-0.381907	-15.8296	8.52497	18.1371
  65	1	5	-0.393799	-14.8806	12.2904	20.6984
  66	1	3	-0.008998	-18.3015	9.07049	19.87
  67	1	3	-0.064503	-17.6751	11.3152	21.4766
  68	1	3	-0.16756	-18.8057	10.5119	21.7509
  69	1	3	-0.085161	-19.1558	9.38163	20.9597
  70	1	6	0.158939	-18.4759	8.20776	19.2336
  71	1	6	0.163781	-17.4038	12.1497	22.121
  72	1	6	0.161401	-19.3826	10.785	22.6261
  73	1	7	-0.078003	-20.3399	8.42008	21.3368
  74	1	7	0.303704	-19.69	7.01144	21.7118
  75	1	8	-0.1084	-18.7768	7.12665	22.6986
  76	1	8	-0.101508	-19.0012	6.42165	20.7196
  77	1	8	-0.111714	-20.5814	6.08267	22.1273
  78	1	7	0.380371	-21.1994	8.86372	22.605
  79	1	8	-0.124028	-21.701	10.1172	22.4835
  80	1	8	-0.119704	-20.4933	8.86626	23.7648
  81	1	8	-0.115877	-22.2676	8.03198	22.7814
  82	1	3	-0.024709	-21.3539	8.38042	20.1327
  83	1	3	-0.076489	-21.9317	9.5954	19.6547
  84	1	3	-0.052344	-23.0161	9.55013	18.7569
  85	1	3	-0.054202	-21.8538	7.15537	19.5793
  86	1	3	-0.149083	-22.9425	7.1309	18.6785
  87	1	3	-0.063027	-23.5272	8.3464	18.3169
  88	1	2	0.499526	-24.779	8.59739	17.562
  89	1	1	-0.036881	-24.9981	9.96234	17.6462
  90	1	2	0.443545	-23.9395	10.6226	18.2723
  91	1	3	0.038197	-26.2458	10.5506	17.2827
  92	1	3	-0.408621	-27.447	9.98802	17.7551
  93	1	3	0.252781	-28.6902	10.5322	17.4014
  94	1	3	-0.169778	-26.3161	11.6899	16.4665
  95	1	3	-0.113042	-27.5654	12.231	16.0921
  96	1	3	0.016958	-28.7598	11.6353	16.539
  97	1	6	0.167832	-23.3598	6.1932	18.3165
  98	1	6	0.134138	-21.4442	6.20105	19.8873
  99	1	6	0.145229	-21.6072	10.566	20.0354
 100	1	5	-0.462312	-23.8398	11.8118	18.5137
 101	1	5	-0.483102	-25.5015	7.7463	17.0747
 102	1	6	0.144532	-27.6035	13.1154	15.4661
 103	1	6	0.226042	-27.4311	9.10524	18.3824
 104	1	3	0.12103	-30.4661	12.6683	15.0597
 105	1	3	-0.09864	-29.8591	12.3294	13.8363
 106	1	3	-0.194398	-30.337	12.8973	12.6464
 107	1	3	-0.091961	-31.4305	13.7732	12.6832
 108	1	3	-0.197799	-32.0375	14.0875	13.9071
 109	1	3	-0.102777	-31.6136	13.4894	15.1133
 110	1	6	0.132074	-31.822	14.2006	11.7628
 111	1	6	0.154044	-32.8908	14.7655	13.9165
 112	1	6	0.145155	-29.0346	11.6244	13.8106
 113	1	6	0.14558	-31.4426	14.2603	15.856
 114	1	9	-0.24014	-30.0104	12.1412	16.2496
 115	1	6	0.152938	-25.4028	12.1583	16.1136
 116	1	6	0.151751	-29.8809	12.6298	11.6966
 117	1	3	-0.004194	-12.2447	12.9706	8.0253
 118	1	3	-0.097141	-12.3669	12.0561	9.10593
 119	1	3	-0.172015	-13.6507	11.8564	9.69001
 120	1	5	-0.377994	-12.6299	15.3936	6.0934
 121	1	3	0.033493	-13.3921	13.68	7.62654
 122	1	3	-0.063739	-14.7964	12.5153	9.22116
 123	1	5	-0.398381	-16.8014	14.4323	7.91614
 124	1	3	0.032144	-14.63	13.4368	8.19
 125	1	2	0.032313	-13.5352	14.8258	6.6853
 126	1	1	0.461698	-14.8888	15.1761	6.76571
 127	1	2	0.091945	-15.6215	14.3602	7.60911
 128	1	3	-0.10563	-11.2523	13.4832	12.919
 129	1	7	-0.099376	-11.1653	11.2879	9.73213
 130	1	3	-0.043296	-11.1701	11.6678	11.2318
 131	1	3	-0.073043	-11.2234	13.0475	11.5797
 132	1	3	-0.117827	-11.2326	12.5008	13.9134
 133	1	3	-0.037562	-11.1322	10.7098	12.2665
 134	1	3	-0.083705	-11.1579	11.159	13.586
 135	1	7	0.396	-9.74234	11.693	9.18519
 136	1	7	0.310495	-11.3887	9.73996	9.45512
 137	1	8	-0.130298	-9.50492	11.215	7.94268
 138	1	8	-0.128745	-8.74786	11.221	9.97442
 139	1	8	-0.120019	-9.55423	13.0371	9.14731
 140	1	8	-0.104287	-11.5775	9.50797	8.13803
 141	1	8	-0.095507	-12.487	9.21898	10.0697
 142	1	8	-0.104872	-10.3276	8.97664	9.82849
 143	1	2	0.456145	-11.2734	10.3701	14.8322
 144	1	2	0.550902	-11.3966	12.6122	15.3895
 145	1	1	0.015704	-11.4473	11.3022	15.8466
 146	1	5	-0.456801	-11.3973	9.15874	14.8967
 147	1	5	-0.487703	-11.6281	13.6439	16.0003
 148	1	3	-0.116566	-11.8628	10.9099	17.1453
 149	1	3	-0.050109	-13.2395	10.926	17.4847
 150	1	3	0.154929	-13.6484	10.4654	18.7569
 151	1	3	0.041555	-10.8994	10.4026	18.0417
 152	1	3	-0.223109	-11.3188	9.93809	19.2917
 153	1	3	-0.080449	-12.6761	9.94937	19.6508
 154	1	7	-0.108008	-9.40241	10.3992	17.7205
 155	1	7	-0.182228	-13.0549	9.39964	21.0192
 156	1	7	-0.345523	-14.2734	11.4667	16.4855
 157	1	6	0.155183	-11.3024	13.1874	7.53247
 158	1	6	0.172904	-13.7654	11.1941	10.5401
 159	1	6	0.158028	-15.7691	12.3524	9.67163
 160	1	6	0.153129	-11.3314	14.5382	13.1684
 161	1	6	0.142914	-11.2552	13.804	10.8016
 162	1	6	0.135531	-11.0913	9.64191	12.0762
 163	1	6	0.17765	-10.5805	9.56826	19.9962
 164	1	10	0.046541	-9.05853	11.4081	17.4738
 165	1	10	0.045238	-9.16033	9.73288	16.875
 166	1	10	0.051941	-8.81396	10.0524	18.5763
 167	1	10	0.087961	-13.4177	10.1999	21.6755
 168	1	10	0.066782	-12.1957	8.93622	21.5181
 169	1	10	0.075908	-13.836	8.63368	20.9427
 170	1	10	0.105172	-14.0402	11.1489	15.4643
 171	1	10	0.115625	-15.2991	11.117	16.6653
 172	1	10	0.140296	-14.2986	12.5638	16.5203
 173	1	3	-0.004194	-22.0179	24.6035	11.3706
 174	1	3	-0.097141	-21.5522	23.4496	10.6961
 175	1	3	-0.172015	-21.7505	23.3521	9.28669
 176	1	5	-0.377994	-23.2314	27.2791	12.2413
 177	1	3	0.033493	-22.6478	25.5994	10.6229
 178	1	3	-0.063739	-22.4152	24.3648	8.56047
 179	1	5	-0.398381	-24.1006	26.818	7.68383
 180	1	3	0.032144	-22.8709	25.4787	9.26728
 181	1	2	0.032313	-23.2712	26.8531	11.0978
 182	1	1	0.461698	-23.8815	27.4298	9.97216
 183	1	2	0.091945	-23.6788	26.647	8.82431
 184	1	3	-0.10563	-17.6805	22.5173	9.2134
 185	1	7	-0.099376	-20.8487	22.2958	11.4545
 186	1	3	-0.043296	-19.7005	21.8503	10.4949
 187	1	3	-0.073043	-18.7382	22.8238	10.0923
 188	1	3	-0.117827	-17.671	21.2543	8.62392
 189	1	3	-0.037562	-19.6021	20.5529	9.9322
 190	1	3	-0.083705	-18.6005	20.3002	8.98356
 191	1	7	0.396	-21.944	21.1945	11.7985
 192	1	7	0.310495	-20.1953	22.7374	12.8312
 193	1	8	-0.130298	-21.4726	20.2129	12.6005
 194	1	8	-0.128745	-22.4514	20.5774	10.7124
 195	1	8	-0.120019	-23.0129	21.726	12.4448
 196	1	8	-0.104287	-19.4781	23.8855	12.7543
 197	1	8	-0.095507	-19.3575	21.7802	13.2827
 198	1	8	-0.104872	-21.104	22.9428	13.8151
 199	1	2	0.456145	-18.2948	19.0574	8.21849
 200	1	2	0.550902	-16.7659	20.6763	7.59688
 201	1	1	0.015704	-17.2091	19.3819	7.41199
 202	1	5	-0.456801	-18.8727	17.9859	8.31854
 203	1	5	-0.487703	-15.8437	21.2459	7.04866
 204	1	3	-0.116566	-16.6034	18.4527	6.52204
 205	1	3	-0.050109	-15.7917	17.4257	7.04706
 206	1	3	0.154929	-15.4429	16.3432	6.20257
 207	1	3	0.041555	-16.9304	18.494	5.14781
 208	1	3	-0.223109	-16.5078	17.4395	4.31185
 209	1	3	-0.080449	-15.8226	16.3311	4.84434
 210	1	7	-0.108008	-17.7134	19.6774	4.57586
 211	1	7	-0.182228	-15.4893	15.154	3.92984
 212	1	7	-0.345523	-15.4234	17.4404	8.54177
 213	1	6	0.155183	-21.9207	24.7464	12.44
 214	1	6	0.172904	-21.418	22.4667	8.7427
 215	1	6	0.158028	-22.6016	24.2832	7.49027
 216	1	6	0.153129	-16.9331	23.2682	8.94032
 217	1	6	0.142914	-18.8074	23.8479	10.4584
 218	1	6	0.135531	-20.2845	19.7522	10.1993
 219	1	6	0.17765	-16.764	17.4582	3.2598
 220	1	10	0.046541	-18.6693	19.8322	5.10708
 221	1	10	0.045238	-17.943	19.5199	3.50697
 222	1	10	0.051941	-17.1278	20.6115	4.65238
 223	1	10	0.087961	-15.7956	15.3495	2.89399
 224	1	10	0.066782	-16.0053	14.2368	4.25012
 225	1	10	0.075908	-14.4109	14.9626	3.92292
 226	1	10	0.105172	-14.452	16.9709	8.74774
 227	1	10	0.115625	-16.179	16.9073	9.1403
 228	1	10	0.140296	-15.3484	18.4554	8.94525
 229	1	1	0.48116	-10.7245	37.6255	2.08514
 230	1	2	0.034009	-11.8044	38.5148	2.04124
 231	1	3	0.028921	-12.9994	37.6611	1.82604
 232	1	2	0.071556	-11.102	36.2927	1.86716
 233	1	3	0.025276	-12.5715	36.3485	1.70424
 234	1	5	-0.381907	-11.8023	39.7054	2.30197
 235	1	5	-0.393799	-10.4268	35.2756	1.94296
 236	1	3	-0.008998	-14.3663	37.982	1.87912
 237	1	3	-0.064503	-13.4773	35.2907	1.59701
 238	1	3	-0.16756	-14.8506	35.6013	1.61192
 239	1	3	-0.085161	-15.3281	36.9352	1.7659
 240	1	6	0.158939	-14.6389	39.0087	2.05521
 241	1	6	0.163781	-13.1312	34.2683	1.53131
 242	1	6	0.161401	-15.5571	34.7823	1.54647
 243	1	7	-0.078003	-16.8815	37.1433	1.88169
 244	1	7	0.303704	-17.2763	38.6065	2.31924
 245	1	8	-0.1084	-18.6128	38.7373	2.44137
 246	1	8	-0.101508	-16.8684	39.4961	1.40212
 247	1	8	-0.111714	-16.7568	38.9977	3.51405
 248	1	7	0.380371	-17.5299	36.844	0.457508
 249	1	8	-0.124028	-16.9144	37.555	-0.514857
 250	1	8	-0.119704	-18.8501	37.1393	0.379743
 251	1	8	-0.115877	-17.4295	35.5454	0.0837861
 252	1	3	-0.024709	-17.3999	36.2126	3.01607
 253	1	3	-0.076489	-18.6561	35.5295	3.00636
 254	1	3	-0.052344	-19.0169	34.7618	4.13736
 255	1	3	-0.054202	-16.5951	36.1349	4.18624
 256	1	3	-0.149083	-16.9828	35.3814	5.30902
 257	1	3	-0.063027	-18.1979	34.6966	5.24725
 258	1	2	0.499526	-18.824	33.8119	6.25785
 259	1	1	-0.036881	-20.0163	33.3841	5.68976
 260	1	2	0.443545	-20.2162	33.9051	4.41724
 261	1	3	0.038197	-20.9285	32.5268	6.37026
 262	1	3	-0.408621	-21.3345	31.3096	5.79301
 263	1	3	0.252781	-22.0629	30.373	6.53958
 264	1	3	-0.169778	-21.3212	32.8283	7.68415
 265	1	3	-0.113042	-22.0493	31.8925	8.44367
 266	1	3	0.016958	-22.3859	30.6578	7.87585
 267	1	6	0.167832	-16.365	35.3205	6.20338
 268	1	6	0.134138	-15.6505	36.6759	4.24571
 269	1	6	0.145229	-19.3373	35.5742	2.162
 270	1	5	-0.462312	-21.1611	33.7134	3.67282
 271	1	5	-0.483102	-18.3598	33.5541	7.35846
 272	1	6	0.144532	-22.2907	32.0881	9.48271
 273	1	6	0.226042	-21.0394	31.0612	4.78155
 274	1	3	0.12103	-24.2337	29.5134	8.91706
 275	1	3	-0.09864	-25.185	30.1333	8.08679
 276	1	3	-0.194398	-26.5499	29.9654	8.3561
 277	1	3	-0.091961	-26.9397	29.1939	9.46048
 278	1	3	-0.197799	-25.978	28.572	10.2755
 279	1	3	-0.102777	-24.5968	28.6825	9.99378
 280	1	6	0.132074	-28.0173	29.0912	9.70127
 281	1	6	0.154044	-26.3135	27.9835	11.1314
 282	1	6	0.145155	-24.8719	30.7355	7.25079
 283	1	6	0.14558	-24.0965	29.0513	10.8765
 284	1	9	-0.24014	-22.8914	29.6836	8.69243
 285	1	6	0.152938	-21.0127	33.7543	8.15749
 286	1	6	0.151751	-27.2859	30.4433	7.7329
 287	1	1	0.48116	6.45183	36.7188	-6.64185
 288	1	2	0.034009	5.58494	35.6774	-7.02938
 289	1	3	0.028921	4.29083	35.9649	-6.3536
 290	1	2	0.071556	5.76585	37.6894	-5.89941
 291	1	3	0.025276	4.3862	37.1915	-5.74416
 292	1	5	-0.381907	5.82066	34.6831	-7.69779
 293	1	5	-0.393799	6.18611	38.7099	-5.38517
 294	1	3	-0.008998	3.21632	35.118	-6.0882
 295	1	3	-0.064503	3.37458	37.6787	-4.92941
 296	1	3	-0.16756	2.27026	36.8549	-4.64108
 297	1	3	-0.085161	2.21956	35.5336	-5.14206
 298	1	6	0.158939	3.29384	34.1089	-6.45115
 299	1	6	0.163781	3.46465	38.6651	-4.46214
 300	1	6	0.161401	1.53882	37.2174	-3.91506
 301	1	7	-0.078003	1.20614	34.5407	-4.5127
 302	1	7	0.303704	1.01828	33.2753	-5.42135
 303	1	8	-0.1084	-0.0745067	32.5671	-5.10898
 304	1	8	-0.101508	2.03765	32.4017	-5.32778
 305	1	8	-0.111714	0.886467	33.6242	-6.72131
 306	1	7	0.380371	1.8098	34.1158	-3.10967
 307	1	8	-0.124028	1.94571	35.1564	-2.26396
 308	1	8	-0.119704	3.0395	33.5588	-3.21973
 309	1	8	-0.115877	1.03802	33.23	-2.46904
 310	1	3	-0.024709	-0.20169	35.2556	-4.41758
 311	1	3	-0.076489	-0.907303	35.4	-3.19913
 312	1	3	-0.052344	-2.1452	36.0512	-3.19157
 313	1	3	-0.054202	-0.783467	35.8234	-5.58643
 314	1	3	-0.149083	-2.0525	36.4592	-5.56432
 315	1	3	-0.063027	-2.70835	36.5715	-4.33418
 316	1	2	0.499526	-3.99828	37.2214	-3.95514
 317	1	1	-0.036881	-4.15249	37.0203	-2.57744
 318	1	2	0.443545	-3.05884	36.3233	-2.05834
 319	1	3	0.038197	-5.31319	37.4322	-1.81721
 320	1	3	-0.408621	-5.24637	37.6725	-0.423496
 321	1	3	0.252781	-6.37626	38.0855	0.308903
 322	1	3	-0.169778	-6.57093	37.6448	-2.44128
 323	1	3	-0.113042	-7.70313	38.0643	-1.71643
 324	1	3	0.016958	-7.61037	38.2875	-0.33972
 325	1	6	0.167832	-2.49948	36.8272	-6.48838
 326	1	6	0.134138	-0.271394	35.7573	-6.54592
 327	1	6	0.145229	-0.495015	35.0297	-2.27067
 328	1	5	-0.462312	-2.79138	36.0642	-0.894291
 329	1	5	-0.483102	-4.72893	37.829	-4.71918
 330	1	6	0.144532	-8.65392	38.2209	-2.22452
 331	1	6	0.226042	-4.30912	37.5839	0.114997
 332	1	3	0.12103	-8.79416	38.9289	1.68574
 333	1	3	-0.09864	-8.15607	40.0733	2.19315
 334	1	3	-0.194398	-8.12218	40.3119	3.574
 335	1	3	-0.091961	-8.74813	39.4013	4.434
 336	1	3	-0.197799	-9.39934	38.2691	3.91934
 337	1	3	-0.102777	-9.42554	38.0073	2.53441
 338	1	6	0.132074	-8.75399	39.5846	5.51026
 339	1	6	0.154044	-9.94709	37.6246	4.60441
 340	1	6	0.145155	-7.6932	40.7754	1.50872
 341	1	6	0.14558	-8.94523	37.0557	2.35514
 342	1	9	-0.24014	-8.76273	38.6691	0.333422
 343	1	6	0.152938	-6.70222	37.495	-3.51674
 344	1	6	0.151751	-7.63901	41.1953	3.96361
 345	1	1	0.48116	13.9944	26.4498	4.72798
 346	1	2	0.034009	14.7371	26.9188	3.64689
 347	1	3	0.028921	14.8407	28.4052	3.88827
 348	1	2	0.071556	13.7474	27.4431	5.6696
 349	1	3	0.025276	14.3026	28.7084	5.11591
 350	1	5	-0.381907	15.206	26.2407	2.73767
 351	1	5	-0.393799	13.0167	27.3533	6.62595
 352	1	3	-0.008998	15.3387	29.414	3.06174
 353	1	3	-0.064503	14.1575	30.0331	5.53028
 354	1	3	-0.16756	14.7562	31.0589	4.76277
 355	1	3	-0.085161	15.316	30.7729	3.48308
 356	1	6	0.158939	15.7304	29.1288	2.08238
 357	1	6	0.163781	13.6472	30.2585	6.47115
 358	1	6	0.161401	14.74	32.0653	5.16852
 359	1	7	-0.078003	15.8954	31.8876	2.55557
 360	1	7	0.303704	15.4421	33.369	2.95652
 361	1	8	-0.1084	16.0204	33.8382	4.07161
 362	1	8	-0.101508	14.1257	33.4651	3.15173
 363	1	8	-0.111714	15.7273	34.2742	2.00179
 364	1	7	0.380371	17.4342	31.8048	2.65381
 365	1	8	-0.124028	17.8833	30.5875	2.30408
 366	1	8	-0.119704	17.8413	31.9697	3.91847
 367	1	8	-0.115877	18.0482	32.7169	1.8536
 368	1	3	-0.024709	15.4498	31.6265	1.07671
 369	1	3	-0.076489	14.0886	31.8087	0.799944
 370	1	3	-0.052344	13.6873	31.9624	-0.519449
 371	1	3	-0.054202	16.3028	31.3584	-0.0599864
 372	1	3	-0.149083	15.8277	31.3861	-1.39999
 373	1	3	-0.063027	14.5057	31.7829	-1.60256
 374	1	2	0.499526	13.7342	32.1489	-2.818
 375	1	1	-0.036881	12.5073	32.6018	-2.34694
 376	1	2	0.443545	12.4198	32.5243	-0.972477
 377	1	3	0.038197	11.4707	33.1826	-3.12732
 378	1	3	-0.408621	10.1188	33.0385	-2.73959
 379	1	3	0.252781	9.10969	33.8361	-3.31942
 380	1	3	-0.169778	11.783	33.9965	-4.2353
 381	1	3	-0.113042	10.7668	34.7208	-4.89956
 382	1	3	0.016958	9.44611	34.6835	-4.38112
 383	1	6	0.167832	16.4985	31.2849	-2.24118
 384	1	6	0.134138	17.364	31.2086	0.0726708
 385	1	6	0.145229	13.3598	31.9959	1.57563
 386	1	5	-0.462312	11.635	33.0839	-0.217367
 387	1	5	-0.483102	14.1049	32.033	-3.96968
 388	1	6	0.144532	11.0146	35.3339	-5.7488
 389	1	6	0.226042	9.85507	32.4202	-1.88605
 390	1	3	0.12103	8.62759	36.5642	-5.7254
 391	1	3	-0.09864	9.60147	37.4876	-5.30115
 392	1	3	-0.194398	9.85972	38.6574	-6.03926
 393	1	3	-0.091961	9.15051	38.8863	-7.23337
 394	1	3	-0.197799	8.19752	37.9485	-7.66815
 395	1	3	-0.102777	7.85672	36.7911	-6.89846
 396	1	6	0.132074	9.3416	39.7769	-7.82502
 397	1	6	0.154044	7.63396	38.1434	-8.58491
 398	1	6	0.145155	10.123	37.3193	-4.36996
 399	1	6	0.14558	7.89744	35.9029	-7.50098
 400	1	9	-0.24014	8.44998	35.4	-4.99122
 401	1	6	0.152938	12.8126	34.0985	-4.5792
 402	1	6	0.151751	10.6072	39.3828	-5.70163
 403	1	3	-0.004194	17.3738	15.2992	4.85139
 404	1	3	-0.097141	18.0406	15.7047	6.04796
 405	1	3	-0.172015	18.3637	14.6735	6.97971
 406	1	5	-0.377994	16.4991	13.7805	2.28405
 407	1	3	0.033493	17.2222	13.9179	4.58764
 408	1	3	-0.063739	18.1164	13.3032	6.72507
 409	1	5	-0.398381	17.4857	10.4998	5.45722
 410	1	3	0.032144	17.5828	12.9502	5.48009
 411	1	2	0.032313	16.8171	13.2343	3.32883
 412	1	1	0.461698	16.9138	11.8622	3.58326
 413	1	2	0.091945	17.3737	11.5832	4.87344
 414	1	3	-0.10563	15.2955	18.616	7.48504
 415	1	7	-0.099376	18.5857	17.1669	6.20414
 416	1	3	-0.043296	17.3827	18.1464	6.27618
 417	1	3	-0.073043	16.398	17.8012	7.22115
 418	1	3	-0.117827	15.2059	19.8239	6.79618
 419	1	3	-0.037562	17.2236	19.344	5.52934
 420	1	3	-0.083705	16.1039	20.1506	5.79511
 421	1	7	0.396	19.4641	17.386	7.53955
 422	1	7	0.310495	19.4993	17.474	4.93533
 423	1	8	-0.130298	20.6066	16.612	7.57132
 424	1	8	-0.128745	18.7644	17.2489	8.71378
 425	1	8	-0.120019	19.8109	18.6825	7.57648
 426	1	8	-0.104287	20.006	18.746	4.91668
 427	1	8	-0.095507	18.8986	17.2834	3.73472
 428	1	8	-0.104872	20.5545	16.6469	4.8838
 429	1	2	0.456145	15.611	21.3636	5.06865
 430	1	2	0.550902	14.0933	20.825	6.74101
 431	1	1	0.015704	14.3791	21.6501	5.64742
 432	1	5	-0.456801	16.1652	21.9191	4.14281
 433	1	5	-0.487703	13.0263	20.7446	7.32917
 434	1	3	-0.116566	13.5643	22.7143	5.15865
 435	1	3	-0.050109	14.0627	24.0266	5.30576
 436	1	3	0.154929	13.3897	25.14	4.73528
 437	1	3	0.041555	12.3881	22.4758	4.41385
 438	1	3	-0.223109	11.6926	23.6009	3.88837
 439	1	3	-0.080449	12.1889	24.9193	4.02214
 440	1	7	-0.108008	11.7881	21.0776	4.18826
 441	1	7	-0.182228	11.442	26.1002	3.39567
 442	1	7	-0.345523	15.344	24.3144	6.11869
 443	1	6	0.155183	17.0033	16.0063	4.1018
 444	1	6	0.172904	18.8837	14.9121	7.90631
 445	1	6	0.158028	18.4056	12.5368	7.445
 446	1	6	0.153129	14.5148	18.3073	8.18332
 447	1	6	0.142914	16.4995	16.8669	7.77369
 448	1	6	0.135531	17.886	19.6462	4.72592
 449	1	6	0.17765	10.7857	23.437	3.34077
 450	1	10	0.046541	11.0667	21.0433	3.37435
 451	1	10	0.045238	11.2345	20.7879	5.09284
 452	1	10	0.051941	12.5519	20.3337	3.97864
 453	1	10	0.087961	12.104	26.7312	2.79843
 454	1	10	0.066782	10.9775	26.7272	4.15582
 455	1	10	0.075908	10.6546	25.7628	2.69709
 456	1	10	0.105172	15.7119	23.4447	6.68726
 457	1	10	0.115625	15.1966	25.0979	6.88136
 458	1	10	0.140296	16.1796	24.608	5.47866
 459	1	3	-0.004194	24.6356	4.13924	-2.63691
 460	1	3	-0.097141	24.0852	5.17114	-1.8417
 461	1	3	-0.172015	24.5139	6.50722	-2.04851
 462	1	5	-0.377994	25.9955	2.44829	-4.87327
 463	1	3	0.033493	25.554	4.48262	-3.64336
 464	1	3	-0.063739	25.4319	6.86607	-3.04953
 465	1	5	-0.398381	27.4315	6.87148	-5.30875
 466	1	3	0.032144	25.9202	5.82424	-3.86435
 467	1	2	0.032313	26.1341	3.65112	-4.70518
 468	1	1	0.461698	26.8073	4.55486	-5.5195
 469	1	2	0.091945	26.8444	5.86789	-4.98607
 470	1	3	-0.10563	20.5602	7.30693	-2.73854
 471	1	7	-0.099376	22.9331	4.95722	-0.795974
 472	1	3	-0.043296	21.8859	6.00838	-1.10999
 473	1	3	-0.073043	21.5692	6.35834	-2.46586
 474	1	3	-0.117827	19.9383	7.95456	-1.62783
 475	1	3	-0.037562	21.2227	6.64092	-0.0583931
 476	1	3	-0.083705	20.2961	7.60976	-0.338076
 477	1	7	0.396	22.2027	3.56989	-0.914038
 478	1	7	0.310495	23.6195	5.10688	0.635537
 479	1	8	-0.130298	21.9148	3.24173	-2.19765
 480	1	8	-0.128745	22.9199	2.59148	-0.318288
 481	1	8	-0.120019	21.0307	3.54802	-0.251368
 482	1	8	-0.104287	22.8926	4.57572	1.67572
 483	1	8	-0.095507	23.9052	6.385	0.970034
 484	1	8	-0.104872	24.8068	4.49804	0.64199
 485	1	2	0.456145	19.4243	8.23878	0.623023
 486	1	2	0.550902	18.8019	8.90584	-1.46889
 487	1	1	0.015704	18.602	9.0528	-0.0878311
 488	1	5	-0.456801	19.3739	7.85048	1.76519
 489	1	5	-0.487703	18.0042	9.18364	-2.35994
 490	1	3	-0.116566	17.5043	9.61129	0.643965
 491	1	3	-0.050109	17.7667	10.6006	1.6568
 492	1	3	0.154929	16.7194	10.8985	2.5764
 493	1	3	0.041555	16.2483	9.00308	0.540474
 494	1	3	-0.223109	15.271	9.30374	1.48585
 495	1	3	-0.080449	15.4876	10.22	2.48538
 496	1	7	-0.108008	15.9517	7.90995	-0.469917
 497	1	7	-0.182228	14.3739	10.3953	3.50516
 498	1	7	-0.345523	19.1805	11.27	1.75958
 499	1	6	0.155183	24.3561	3.09935	-2.50195
 500	1	6	0.172904	24.0777	7.3227	-1.45209
 501	1	6	0.158028	25.7462	7.88519	-3.23278
 502	1	6	0.153129	20.3066	7.55504	-3.77733
 503	1	6	0.142914	22.0665	5.84572	-3.3099
 504	1	6	0.135531	21.4163	6.43994	0.978098
 505	1	6	0.17765	14.3339	8.76645	1.48596
 506	1	10	0.046541	15.6968	8.36884	-1.42666
 507	1	10	0.045238	15.1183	7.26212	-0.159474
 508	1	10	0.051941	16.8199	7.2468	-0.574047
 509	1	10	0.087961	14.3389	11.4211	3.89547
 510	1	10	0.066782	14.5479	9.71236	4.35062
 511	1	10	0.075908	13.3902	10.1279	3.08401
 512	1	10	0.105172	19.9952	10.5507	1.93877
 513	1	10	0.115625	19.2345	11.9989	2.56754
 514	1	10	0.140296	19.446	11.8008	0.812687
 515	1	3	-0.004194	36.1229	-1.34602	-9.72085
 516	1	3	-0.097141	36.2089	0.016943	-10.1197
 517	1	3	-0.172015	36.1102	0.337752	-11.5103
 518	1	5	-0.377994	35.3955	-4.28392	-9.46642
 519	1	3	0.033493	35.9269	-2.28137	-10.7186
 520	1	3	-0.063739	36.0018	-0.610399	-12.4994
 521	1	5	-0.398381	35.4709	-3.13734	-13.9785
 522	1	3	0.032144	35.842	-1.90528	-12.03
 523	1	2	0.032313	35.5661	-3.70909	-10.545
 524	1	1	0.461698	35.1673	-4.07282	-11.8054
 525	1	2	0.091945	35.4851	-3.09073	-12.756
 526	1	3	-0.10563	34.3592	4.32322	-8.49467
 527	1	7	-0.099376	36.4949	1.20488	-9.13881
 528	1	3	-0.043296	35.2166	2.05345	-8.8972
 529	1	3	-0.073043	35.4163	3.40152	-8.46958
 530	1	3	-0.117827	33.0662	3.8126	-8.65549
 531	1	3	-0.037562	33.888	1.53473	-9.0196
 532	1	3	-0.083705	32.8214	2.45751	-8.88967
 533	1	7	0.396	37.6818	2.0812	-9.81009
 534	1	7	0.310495	36.9613	0.648842	-7.74172
 535	1	8	-0.130298	37.2209	3.05236	-10.6362
 536	1	8	-0.128745	38.5036	1.27357	-10.529
 537	1	8	-0.120019	38.4816	2.70523	-8.92447
 538	1	8	-0.104287	35.9081	0.0559722	-7.11744
 539	1	8	-0.095507	37.5123	1.53577	-6.87176
 540	1	8	-0.104872	37.9678	-0.207959	-7.94165
 541	1	2	0.456145	31.3398	2.20001	-8.74447
 542	1	2	0.550902	31.7429	4.45055	-8.36736
 543	1	1	0.015704	30.7634	3.45558	-8.41118
 544	1	5	-0.456801	30.8078	1.11956	-8.543
 545	1	5	-0.487703	31.5885	5.61253	-8.06582
 546	1	3	-0.116566	29.3463	3.6771	-8.14869
 547	1	3	-0.050109	28.7863	3.85754	-6.87138
 548	1	3	0.154929	27.3797	4.14397	-6.73468
 549	1	3	0.041555	28.4995	3.73157	-9.26191
 550	1	3	-0.223109	27.1309	3.97291	-9.11675
 551	1	3	-0.080449	26.5421	4.15745	-7.86749
 552	1	7	-0.108008	29.0548	3.52636	-10.6352
 553	1	7	-0.182228	25.0263	4.39871	-7.85025
 554	1	7	-0.345523	29.6973	3.7628	-5.68803
 555	1	6	0.155183	36.1172	-1.66611	-8.69775
 556	1	6	0.172904	36.1625	1.36429	-11.8748
 557	1	6	0.158028	35.9444	-0.342357	-13.5671
 558	1	6	0.153129	34.5028	5.37996	-8.27085
 559	1	6	0.142914	36.4063	3.77361	-8.28378
 560	1	6	0.135531	33.7115	0.458898	-9.0759
 561	1	6	0.17765	26.5137	3.95145	-10.0162
 562	1	10	0.046541	29.8523	4.24682	-10.8123
 563	1	10	0.045238	28.3085	3.70485	-11.4169
 564	1	10	0.051941	29.367	2.48142	-10.7881
 565	1	10	0.087961	24.7475	4.93015	-8.7767
 566	1	10	0.066782	24.642	4.99645	-7.01257
 567	1	10	0.075908	24.497	3.44541	-7.86986
 568	1	10	0.105172	29.1394	3.68578	-4.76564
 569	1	10	0.115625	30.3584	4.62851	-5.67477
 570	1	10	0.140296	30.3408	2.86892	-5.78393
 571	1	3	-0.004194	30.8551	-14.5701	-18.3485
 572	1	3	-0.097141	31.5203	-13.4125	-17.8738
 573	1	3	-0.172015	31.2058	-12.1229	-18.4723
 574	1	5	-0.377994	28.8199	-16.5155	-19.5562
 575	1	3	0.033493	29.8531	-14.3849	-19.3231
 576	1	3	-0.063739	30.2467	-12.0197	-19.5102
 577	1	5	-0.398381	27.6475	-12.4563	-21.2494
 578	1	3	0.032144	29.5683	-13.1776	-19.9185
 579	1	2	0.032313	28.7676	-15.3175	-19.7367
 580	1	1	0.461698	27.7405	-14.5359	-20.1926
 581	1	2	0.091945	28.1739	-13.2979	-20.5643
 582	1	3	-0.10563	34.1372	-9.80509	-17.0661
 583	1	7	-0.099376	32.6775	-13.5331	-16.7655
 584	1	3	-0.043296	33.1429	-12.0848	-16.4402
 585	1	3	-0.073043	33.8229	-11.1998	-17.3703
 586	1	3	-0.117827	33.807	-9.33504	-15.8119
 587	1	3	-0.037562	32.9846	-11.5302	-15.1255
 588	1	3	-0.083705	33.2908	-10.2047	-14.8863
 589	1	7	0.396	33.9737	-14.3774	-17.1703
 590	1	7	0.310495	32.0829	-14.2461	-15.5138
 591	1	8	-0.130298	33.8703	-15.7324	-17.1561
 592	1	8	-0.128745	34.9908	-14.0296	-16.2803
 593	1	8	-0.120019	34.4626	-14.0257	-18.3615
 594	1	8	-0.104287	31.7225	-15.5127	-15.7102
 595	1	8	-0.095507	31.0026	-13.5745	-15.1025
 596	1	8	-0.104872	32.9409	-14.2543	-14.4558
 597	1	2	0.456145	33.1827	-9.43566	-13.5804
 598	1	2	0.550902	33.922	-7.94599	-15.2638
 599	1	1	0.015704	33.4387	-8.11074	-13.937
 600	1	5	-0.456801	32.8065	-9.8788	-12.5056
 601	1	5	-0.487703	34.4105	-6.95176	-15.7957
 602	1	3	-0.116566	33.2308	-7.00902	-13.0543
 603	1	3	-0.050109	34.3497	-6.2259	-12.6606
 604	1	3	0.154929	34.088	-5.02216	-11.9499
 605	1	3	0.041555	31.915	-6.67839	-12.6523
 606	1	3	-0.223109	31.7004	-5.50956	-11.925
 607	1	3	-0.080449	32.7398	-4.64015	-11.6009
 608	1	7	-0.108008	30.6797	-7.52502	-12.8756
 609	1	7	-0.182228	32.4009	-3.32435	-10.902
 610	1	7	-0.345523	35.8045	-6.47836	-13.0883
 611	1	6	0.155183	31.1141	-15.5631	-18.0022
 612	1	6	0.172904	31.5385	-11.2111	-18.048
 613	1	6	0.158028	29.9308	-11.047	-19.8702
 614	1	6	0.153129	34.6352	-9.13517	-17.7488
 615	1	6	0.142914	34.0016	-11.4863	-18.4016
 616	1	6	0.135531	32.6553	-12.0621	-14.2402
 617	1	6	0.17765	30.692	-5.29196	-11.5725
 618	1	10	0.046541	30.0824	-7.13308	-13.6828
 619	1	10	0.045238	30.0456	-7.51973	-12.0084
 620	1	10	0.051941	30.8922	-8.54552	-13.0787
 621	1	10	0.087961	31.2867	-3.19298	-10.8568
 622	1	10	0.066782	32.7679	-2.43425	-11.4856
 623	1	10	0.075908	32.7866	-3.25255	-9.85646
 624	1	10	0.105172	36.5024	-6.62885	-12.2414
 625	1	10	0.115625	36.1566	-5.64242	-13.7013
 626	1	10	0.140296	35.9684	-7.38365	-13.6802
 627	1	3	-0.004194	17.6265	-12.4388	-13.0665
 628	1	3	-0.097141	17.268	-12.952	-14.3252
 629	1	3	-0.172015	16.2822	-12.157	-14.9799
 630	1	5	-0.377994	18.1324	-10.7074	-10.3743
 631	1	3	0.033493	17.2658	-11.1565	-12.6386
 632	1	3	-0.063739	15.8954	-10.8587	-14.5999
 633	1	5	-0.398381	15.2533	-8.32702	-13.1191
 634	1	3	0.032144	16.3601	-10.3609	-13.3698
 635	1	2	0.032313	17.3892	-10.5128	-11.3091
 636	1	1	0.461698	16.3954	-9.49665	-11.36
 637	1	2	0.091945	15.8625	-9.26993	-12.6124
 638	1	3	-0.10563	20.4851	-12.2796	-16.995
 639	1	7	-0.099376	17.8099	-14.2693	-14.9723
 640	1	3	-0.043296	19.2341	-13.9282	-15.6349
 641	1	3	-0.073043	19.4335	-12.6325	-16.1209
 642	1	3	-0.117827	21.4595	-13.2193	-17.2777
 643	1	3	-0.037562	20.2994	-14.8461	-15.8171
 644	1	3	-0.083705	21.4638	-14.4639	-16.6067
 645	1	7	0.396	16.8827	-14.7911	-16.11