pySIMM System Object

2384 atoms
2609 bonds
4564 angles
6900 dihedrals
736 impropers

10 atom types
12 bond types
21 angle types
8 dihedral types
4 improper types

-169.502718 169.502718 xlo xhi
-169.502718 169.502718 ylo yhi
-169.502718 169.502718 zlo zhi

Masses

   1	12.01	# ca
   2	16.0	# o
   3	12.01	# c
   4	14.01	# n
   5	12.01	# c3
   6	19.0	# f
   7	1.008	# ha
   8	1.008	# hn
   9	1.008	# hc
  10	16.0	# os

Pair Coeffs

   1	0.086	3.3996695084235347	# ca
   2	0.21	2.959921901149463	# o
   3	0.086	3.3996695084235347	# c
   4	0.17	3.249998523775958	# n
   5	0.1094	3.3996695084235347	# c3
   6	0.061	3.1181455134911875	# f
   7	0.015	2.59964245953351	# ha
   8	0.0157	1.069078461768407	# hn
   9	0.0157	2.649532787749369	# hc
  10	0.17	3.0000123434657784	# os

Bond Coeffs

   1	345.8	1.086	# ca,ha
   2	300.9	1.5375	# c3,c3
   3	637.7	1.2183	# c,o
   4	356.9	1.3497	# c3,f
   5	427.6	1.3789	# c,n
   6	345.9	1.4906	# c,ca
   7	330.6	1.0969	# c3,hc
   8	384.2	1.4121	# ca,n
   9	321.0	1.5156	# c3,ca
  10	403.2	1.0129	# hn,n
  11	461.1	1.3984	# ca,ca
  12	376.6	1.3696	# ca,os

Angle Coeffs

   1	68.72	122.6	# ca,c,o
   2	48.33	117.55	# c,n,hn
   3	67.68	115.25	# ca,c,n
   4	63.15	112.07	# c3,c3,ca
   5	62.86	111.51	# c3,c3,c3
   6	63.82	123.71	# c,n,ca
   7	67.87	120.19	# ca,ca,n
   8	63.53	120.77	# c3,ca,ca
   9	63.56	112.24	# ca,c3,ca
  10	63.74	127.08	# c,n,c
  11	48.18	119.88	# ca,ca,ha
  12	64.28	120.33	# c,ca,ca
  13	70.89	107.36	# f,c3,f
  14	39.4	107.58	# hc,c3,hc
  15	74.22	123.05	# n,c,o
  16	66.11	109.24	# c3,c3,f
  17	46.8	110.47	# ca,c3,hc
  18	66.62	120.02	# ca,ca,ca
  19	63.48	119.89	# ca,os,ca
  20	69.58	119.2	# ca,ca,os
  21	49.75	116.02	# ha,ca,n

Dihedral Coeffs

   1	2	2.5	2	180	2.0	1	0	# hn,n,c,o
   2	1	3.625	2	180	# X,ca,ca,X
   3	1	1.0	2	180	# X,c,ca,X
   4	1	0.15555555555555556	3	0	# X,c3,c3,X
   5	1	0.0	2	0	# X,c3,ca,X
   6	1	2.5	2	180	# X,c,n,X
   7	1	0.45	2	180	# X,ca,n,X
   8	1	0.9	2	180	# X,ca,os,X

Improper Coeffs

   1	1.1	-1	2	# ca,ca,ca,c3
   2	1.1	-1	2	# ca,X,X,ha
   3	1.1	-1	2	# n,X,X,hn
   4	10.5	-1	2	# c,X,X,o

Atoms

   1	1	1	-0.004194	3.77977	59.3159	94.0709
   2	1	1	-0.097141	4.3169	59.6492	95.3423
   3	1	1	-0.172015	4.49619	61.0249	95.6638
   4	1	2	-0.377994	2.5847	59.256	91.2195
   5	1	1	0.033493	3.44408	60.3481	93.1903
   6	1	1	-0.063739	4.14847	62.0489	94.7605
   7	1	2	-0.398381	3.15307	63.7313	92.3658
   8	1	1	0.032144	3.62317	61.6733	93.5234
   9	1	3	0.032313	2.88616	60.2761	91.8181
  10	1	4	0.461698	2.76794	61.6051	91.3992
  11	1	3	0.091945	3.1779	62.5108	92.3854
  12	1	1	-0.10563	2.41686	59.7903	99.1715
  13	1	5	-0.099376	4.79318	58.5763	96.3595
  14	1	1	-0.043296	4.30237	59.0116	97.7694
  15	1	1	-0.073043	2.9459	59.415	97.9227
  16	1	1	-0.117827	3.27197	59.7648	100.275
  17	1	1	-0.037562	5.13607	58.9972	98.9195
  18	1	1	-0.083705	4.59409	59.3894	100.15
  19	1	5	0.396	6.36316	58.5193	96.2187
  20	1	5	0.310495	4.1912	57.1398	96.1067
  21	1	6	-0.130298	6.92611	57.5041	96.9093
  22	1	6	-0.128745	6.94854	59.6625	96.6423
  23	1	6	-0.120019	6.7419	58.3663	94.9292
  24	1	6	-0.104287	4.44303	56.307	97.1427
  25	1	6	-0.095507	4.68103	56.537	94.9991
  26	1	6	-0.104872	2.84563	57.1776	95.9748
  27	1	3	0.456145	5.22578	59.4744	101.494
  28	1	3	0.550902	3.00953	60.0824	101.704
  29	1	4	0.015704	4.21808	59.8888	102.357
  30	1	2	-0.456801	6.39188	59.2364	101.758
  31	1	2	-0.487703	1.94358	60.4352	102.179
  32	1	1	-0.116566	4.38192	60.084	103.76
  33	1	1	-0.050109	4.29469	58.9823	104.641
  34	1	1	0.154929	4.39624	59.1919	106.027
  35	1	1	0.041555	4.57792	61.3851	104.278
  36	1	1	-0.223109	4.67634	61.5734	105.668
  37	1	1	-0.080449	4.58169	60.4831	106.546
  38	1	5	-0.108008	4.68268	62.5946	103.359
  39	1	5	-0.182228	4.68455	60.7016	108.046
  40	1	5	-0.345523	4.08036	57.5651	104.122
  41	1	7	0.155183	3.63489	58.2938	93.7398
  42	1	7	0.172904	4.92409	61.309	96.6227
  43	1	7	0.158028	4.2904	63.0989	95.0044
  44	1	7	0.153129	1.37357	60.083	99.2802
  45	1	7	0.142914	2.28396	59.4306	97.0604
  46	1	7	0.135531	6.17539	58.6892	98.8884
  47	1	7	0.17765	4.81776	62.5756	106.07
  48	1	9	0.046541	3.74462	62.7567	102.814
  49	1	9	0.045238	5.48812	62.4625	102.626
  50	1	9	0.051941	4.90138	63.5125	103.918
  51	1	9	0.087961	4.01517	61.5124	108.374
  52	1	9	0.066782	5.70951	60.9787	108.329
  53	1	9	0.075908	4.41173	59.8016	108.602
  54	1	9	0.105172	3.16302	57.4941	103.524
  55	1	9	0.115625	3.98924	56.8446	104.946
  56	1	9	0.140296	4.92859	57.2438	103.501
  57	1	4	0.48116	16.5591	55.2196	79.913
  58	1	3	0.034009	15.7276	56.0886	79.2088
  59	1	1	0.028921	14.5016	56.1958	80.0322
  60	1	3	0.071556	15.9651	54.7182	81.0691
  61	1	1	0.025276	14.6361	55.3792	81.1351
  62	1	2	-0.381907	15.97	56.7201	78.1942
  63	1	2	-0.393799	16.4574	53.993	81.9175
  64	1	1	-0.008998	13.3863	57.0142	79.8481
  65	1	1	-0.064503	13.6416	55.3203	82.1156
  66	1	1	-0.16756	12.5021	56.1359	81.9471
  67	1	1	-0.085161	12.3634	57.0112	80.8307
  68	1	7	0.158939	13.3563	57.6375	78.9611
  69	1	7	0.163781	13.7588	54.6744	82.9834
  70	1	7	0.161401	11.7218	56.0952	82.7041
  71	1	5	-0.078003	11.0885	57.8943	80.7041
  72	1	5	0.303704	11.2504	59.1004	79.7016
  73	1	6	-0.1084	11.3037	58.715	78.4067
  74	1	6	-0.101508	12.3722	59.8104	79.9617
  75	1	6	-0.111714	10.2247	59.9778	79.7983
  76	1	5	0.380371	9.9441	56.9286	80.2051
  77	1	6	-0.124028	10.3657	56.1491	79.1849
  78	1	6	-0.119704	8.84483	57.5764	79.7595
  79	1	6	-0.115877	9.541	56.0792	81.177
  80	1	1	-0.024709	10.8049	58.5436	82.0863
  81	1	1	-0.076489	9.48901	58.6995	82.5898
  82	1	1	-0.052344	9.31503	59.3007	83.8395
  83	1	1	-0.054202	11.8896	59.0569	82.8544
  84	1	1	-0.149083	11.6893	59.6648	84.1099
  85	1	1	-0.063027	10.3775	59.7619	84.5853
  86	1	3	0.499526	9.83933	60.3377	85.8483
  87	1	4	-0.036881	8.45985	60.1715	85.7804
  88	1	3	0.443545	8.06638	59.5662	84.5923
  89	1	1	0.038197	7.53618	60.6	86.7757
  90	1	1	-0.408621	6.4539	59.7734	87.134
  91	1	1	0.252781	5.45948	60.2377	88.0058
  92	1	1	-0.169778	7.64336	61.8767	87.3616
  93	1	1	-0.113042	6.65137	62.3435	88.2425
  94	1	1	0.016958	5.53926	61.5385	88.5349
  95	1	7	0.167832	12.523	60.0509	84.6932
  96	1	7	0.134138	12.9054	58.9865	82.4733
  97	1	7	0.145229	8.60932	58.3718	82.0448
  98	1	2	-0.462312	6.93943	59.2947	84.2139
  99	1	2	-0.483102	10.4988	60.858	86.7319
 100	1	7	0.144532	6.71833	63.3436	88.6635
 101	1	7	0.226042	6.33888	58.7871	86.6939
 102	1	1	0.12103	3.17702	61.8511	89.0503
 103	1	1	-0.09864	2.72032	61.6871	87.7267
 104	1	1	-0.194398	1.35887	61.4658	87.4718
 105	1	1	-0.091961	0.463379	61.3805	88.5445
 106	1	1	-0.197799	0.924152	61.585	89.8546
 107	1	1	-0.102777	2.25843	61.9776	90.115
 108	1	7	0.132074	-0.580652	61.1372	88.3644
 109	1	7	0.154044	0.221161	61.4772	90.6791
 110	1	7	0.145155	3.42062	61.7118	86.8966
 111	1	7	0.14558	2.1971	63.0497	90.2637
 112	1	10	-0.24014	4.52021	62.0555	89.3051
 113	1	7	0.152938	8.47796	62.5263	87.1083
 114	1	7	0.151751	1.01005	61.3112	86.4532
 115	1	1	-0.004194	24.1675	46.1282	74.156
 116	1	1	-0.097141	23.2695	47.2048	74.3945
 117	1	1	-0.172015	21.8773	46.9713	74.2158
 118	1	2	-0.377994	25.5416	43.3784	73.6697
 119	1	1	0.033493	23.6515	44.8858	73.7662
 120	1	1	-0.063739	21.3789	45.7123	73.8214
 121	1	2	-0.398381	20.9942	42.732	73.0116
 122	1	1	0.032144	22.2973	44.6848	73.5927
 123	1	3	0.032313	24.3498	43.595	73.5275
 124	1	4	0.461698	23.3407	42.6883	73.2059
 125	1	3	0.091945	22.0728	43.2662	73.2127
 126	1	1	-0.10563	21.6984	49.0564	78.0379
 127	1	5	-0.099376	23.7555	48.637	74.7664
 128	1	1	-0.043296	22.7688	49.2475	75.8093
 129	1	1	-0.073043	22.4771	48.514	76.9947
 130	1	1	-0.117827	21.1708	50.3395	77.862
 131	1	1	-0.037562	22.2051	50.544	75.672
 132	1	1	-0.083705	21.3957	51.044	76.6985
 133	1	5	0.396	23.8314	49.4461	73.4121
 134	1	5	0.310495	25.1753	48.6581	75.459
 135	1	6	-0.130298	22.6051	49.6742	72.8881
 136	1	6	-0.128745	24.5127	48.7674	72.4603
 137	1	6	-0.120019	24.4411	50.6469	73.5464
 138	1	6	-0.104287	25.4208	49.8528	76.0426
 139	1	6	-0.095507	26.1993	48.4269	74.6067
 140	1	6	-0.104872	25.2691	47.7383	76.4457
 141	1	3	0.456145	20.7538	52.3746	76.8303
 142	1	3	0.550902	20.4114	51.218	78.7972
 143	1	4	0.015704	20.2315	52.4188	78.1173
 144	1	2	-0.456801	20.7707	53.2603	75.9944
 145	1	2	-0.487703	20.1173	50.9492	79.9498
 146	1	1	-0.116566	19.737	53.6193	78.7123
 147	1	1	-0.050109	18.3569	53.8015	78.9722
 148	1	1	0.154929	17.924	55.0088	79.5824
 149	1	1	0.041555	20.6619	54.6407	79.0279
 150	1	1	-0.223109	20.2119	55.8369	79.6009
 151	1	1	-0.080449	18.8573	56.0236	79.9009
 152	1	5	-0.108008	22.1597	54.4716	78.7915
 153	1	5	-0.182228	18.4439	57.313	80.6059
 154	1	5	-0.345523	17.3657	52.689	78.6109
 155	1	7	0.155183	25.2424	46.2273	74.2612
 156	1	7	0.172904	21.1661	47.7804	74.3678
 157	1	7	0.158028	20.3135	45.5374	73.6894
 158	1	7	0.153129	21.5286	48.5067	78.9616
 159	1	7	0.142914	22.8899	47.5174	77.1281
 160	1	7	0.135531	22.4005	51.1853	74.8191
 161	1	7	0.17765	20.9295	56.6158	79.8426
 162	1	9	0.046541	22.3981	54.4921	77.7206
 163	1	9	0.045238	22.5263	53.5261	79.2085
 164	1	9	0.051941	22.7379	55.2752	79.2638
 165	1	9	0.087961	19.3163	57.9024	80.9156
 166	1	9	0.066782	17.86	57.1065	81.5145
 167	1	9	0.075908	17.8417	57.9513	79.9471
 168	1	9	0.105172	16.3301	53.0392	78.5257
 169	1	9	0.115625	17.3834	51.8942	79.3707
 170	1	9	0.140296	17.6054	52.2324	77.6423
 171	1	1	-0.004194	27.0895	34.4568	63.5024
 172	1	1	-0.097141	26.6142	35.3994	64.4538
 173	1	1	-0.172015	26.3181	36.7167	64.0016
 174	1	2	-0.377994	28.4619	33.03	61.1391
 175	1	1	0.033493	27.2713	34.8543	62.1771
 176	1	1	-0.063739	26.4766	37.0879	62.6488
 177	1	2	-0.398381	27.4236	37.3182	59.7052
 178	1	1	0.032144	26.9693	36.1311	61.7571
 179	1	3	0.032313	27.9782	34.1479	61.081
 180	1	4	0.461698	28.0885	35.0862	60.0574
 181	1	3	0.091945	27.458	36.292	60.3637
 182	1	1	-0.10563	23.433	37.0292	67.1735
 183	1	5	-0.099376	26.5514	35.0235	65.9646
 184	1	1	-0.043296	25.6765	36.0446	66.7717
 185	1	1	-0.073043	24.3158	36.2441	66.3994
 186	1	1	-0.117827	23.9335	37.646	68.3259
 187	1	1	-0.037562	26.1417	36.7128	67.9407
 188	1	1	-0.083705	25.2568	37.5064	68.6812
 189	1	5	0.396	28.0412	34.952	66.4898
 190	1	5	0.310495	25.8696	33.6114	66.1568
 191	1	6	-0.130298	28.8371	34.1501	65.7471
 192	1	6	-0.128745	28.1119	34.4739	67.7526
 193	1	6	-0.120019	28.6364	36.1665	66.4596
 194	1	6	-0.104287	26.6795	32.5657	65.8855
 195	1	6	-0.095507	24.7893	33.4668	65.3562
 196	1	6	-0.104872	25.4417	33.4341	67.4275
 197	1	3	0.456145	25.474	38.2322	69.961
 198	1	3	0.550902	23.2525	38.45	69.3833
 199	1	4	0.015704	24.2305	38.7358	70.3314
 200	1	2	-0.456801	26.5255	38.2987	70.5737
 201	1	2	-0.487703	22.0665	38.7259	69.4216
 202	1	1	-0.116566	23.9689	39.3432	71.6033
 203	1	1	-0.050109	23.7909	40.7439	71.7453
 204	1	1	0.154929	23.5581	41.2921	73.0349
 205	1	1	0.041555	23.8836	38.5083	72.7408
 206	1	1	-0.223109	23.6912	39.0696	74.0133
 207	1	1	-0.080449	23.5338	40.4541	74.1741
 208	1	5	-0.108008	23.9708	36.9906	72.6135
 209	1	5	-0.182228	23.3396	41.0149	75.582
 210	1	5	-0.345523	23.8359	41.6755	70.528
 211	1	7	0.155183	27.4034	33.4559	63.7797
 212	1	7	0.172904	26.0095	37.4872	64.7031
 213	1	7	0.158028	26.3024	38.1084	62.3161
 214	1	7	0.153129	22.3854	37.1339	66.9002
 215	1	7	0.142914	23.9228	35.7591	65.5106
 216	1	7	0.135531	27.151	36.6078	68.3228
 217	1	7	0.17765	23.6506	38.4192	74.883
 218	1	9	0.046541	23.3261	36.6185	71.8071
 219	1	9	0.045238	23.6509	36.4884	73.5342
 220	1	9	0.051941	24.9986	36.6729	72.4043
 221	1	9	0.087961	24.2179	41.593	75.8983
 222	1	9	0.066782	23.1946	40.2154	76.3193
 223	1	9	0.075908	22.4572	41.6667	75.6426
 224	1	9	0.105172	24.5762	42.4739	70.6702
 225	1	9	0.115625	22.8567	42.1437	70.3596
 226	1	9	0.140296	24.1067	41.1705	69.5955
 227	1	1	-0.004194	28.6002	29.5922	48.0803
 228	1	1	-0.097141	29.3129	30.2016	49.1504
 229	1	1	-0.172015	30.2075	31.2626	48.8316
 230	1	2	-0.377994	27.3496	28.6943	45.3886
 231	1	1	0.033493	28.7834	30.0615	46.7779
 232	1	1	-0.063739	30.387	31.7159	47.505
 233	1	2	-0.398381	30.2519	32.1819	44.4112
 234	1	1	0.032144	29.6529	31.0923	46.4916
 235	1	3	0.032313	28.1584	29.5991	45.5127
 236	1	4	0.461698	28.6996	30.4184	44.5253
 237	1	3	0.091945	29.6194	31.3376	45.0254
 238	1	1	-0.10563	27.9568	33.1205	52.0566
 239	1	5	-0.099376	29.2022	29.7027	50.6292
 240	1	1	-0.043296	29.0058	30.918	51.5935
 241	1	1	-0.073043	28.1929	32.0195	51.2007
 242	1	1	-0.117827	28.5345	33.1032	53.3323
 243	1	1	-0.037562	29.5508	30.9361	52.9061
 244	1	1	-0.083705	29.3044	32.0352	53.7376
 245	1	5	0.396	30.5343	28.902	50.9257
 246	1	5	0.310495	27.9526	28.767	50.8552
 247	1	6	-0.130298	30.4852	28.1542	52.0519
 248	1	6	-0.128745	31.5949	29.7348	51.0476
 249	1	6	-0.120019	30.8365	28.0455	49.9244
 250	1	6	-0.104287	27.7343	28.5196	52.1632
 251	1	6	-0.095507	28.0633	27.559	50.2546
 252	1	6	-0.104872	26.8205	29.3525	50.3994
 253	1	3	0.456145	29.7729	32.2965	55.1217
 254	1	3	0.550902	28.4852	34.0895	54.455
 255	1	4	0.015704	29.2605	33.5419	55.4737
 256	1	2	-0.456801	30.4968	31.565	55.7741
 257	1	2	-0.487703	27.8898	35.1539	54.4522
 258	1	1	-0.116566	29.5776	34.2048	56.704
 259	1	1	-0.050109	28.6216	34.3223	57.7467
 260	1	1	0.154929	28.9966	34.937	58.9716
 261	1	1	0.041555	30.884	34.715	56.883
 262	1	1	-0.223109	31.2443	35.295	58.1078
 263	1	1	-0.080449	30.3204	35.4006	59.1558
 264	1	5	-0.108008	31.9352	34.6423	55.7775
 265	1	5	-0.182228	30.7827	36.0145	60.4768
 266	1	5	-0.345523	27.208	33.7705	57.5337
 267	1	7	0.155183	27.9144	28.7639	48.2158
 268	1	7	0.172904	30.7817	31.7386	49.6232
 269	1	7	0.158028	31.0764	32.5235	47.2668
 270	1	7	0.153129	27.3393	33.9603	51.739
 271	1	7	0.142914	27.7277	32.0228	50.2167
 272	1	7	0.135531	30.1529	30.1264	53.3021
 273	1	7	0.17765	32.2578	35.6619	58.2451
 274	1	9	0.046541	32.7883	35.2999	55.9875
 275	1	9	0.045238	31.5223	34.9513	54.809
 276	1	9	0.051941	32.3274	33.6227	55.6745
 277	1	9	0.087961	30.674	35.3049	61.3072
 278	1	9	0.066782	30.2128	36.9214	60.7186
 279	1	9	0.075908	31.8409	36.3032	60.4416
 280	1	9	0.105172	26.6044	33.737	58.4473
 281	1	9	0.115625	27.2406	32.7424	57.1516
 282	1	9	0.140296	26.6577	34.3841	56.8074
 283	1	1	-0.004194	28.0864	22.576	34.9922
 284	1	1	-0.097141	28.9027	23.6576	35.4287
 285	1	1	-0.172015	28.7881	24.8971	34.7386
 286	1	2	-0.377994	26.0274	20.6779	33.6244
 287	1	1	0.033493	27.1978	22.7764	33.9252
 288	1	1	-0.063739	27.8754	25.0809	33.6773
 289	1	2	-0.398381	25.7028	24.7721	31.4528
 290	1	1	0.032144	27.0888	23.9954	33.2857
 291	1	3	0.032313	26.241	21.8326	33.2914
 292	1	4	0.461698	25.6003	22.5726	32.2978
 293	1	3	0.091945	26.0619	23.886	32.2127
 294	1	1	-0.10563	31.627	26.6162	38.2693
 295	1	5	-0.099376	29.9921	23.4922	36.5362
 296	1	1	-0.043296	30.1866	24.8489	37.295
 297	1	1	-0.073043	31.4688	25.433	37.5232
 298	1	1	-0.117827	30.4848	27.2135	38.8042
 299	1	1	-0.037562	29.0514	25.5028	37.8507
 300	1	1	-0.083705	29.2317	26.6714	38.6068
 301	1	5	0.396	29.6108	22.4358	37.6454
 302	1	5	0.310495	31.2903	23.0111	35.7841
 303	1	6	-0.130298	30.4353	22.5244	38.7154
 304	1	6	-0.128745	29.6702	21.1495	37.2298
 305	1	6	-0.120019	28.3579	22.6454	38.1068
 306	1	6	-0.104287	31.7551	23.9805	34.9644
 307	1	6	-0.095507	31.0544	21.9372	34.9951
 308	1	6	-0.104872	32.2989	22.6627	36.6157
 309	1	3	0.456145	28.2537	27.4997	39.3705
 310	1	3	0.550902	30.3526	28.4129	39.6702
 311	1	4	0.015704	29.0035	28.4947	39.991
 312	1	2	-0.456801	27.0528	27.3064	39.457
 313	1	2	-0.487703	31.2629	29.1413	40.0285
 314	1	1	-0.116566	28.4641	29.4519	40.906
 315	1	1	-0.050109	28.7975	29.3914	42.284
 316	1	1	0.154929	28.3001	30.3871	43.1627
 317	1	1	0.041555	27.6232	30.4827	40.4264
 318	1	1	-0.223109	27.1021	31.429	41.3214
 319	1	1	-0.080449	27.437	31.3973	42.6819
 320	1	5	-0.108008	27.2966	30.6314	38.9447
 321	1	5	-0.182228	26.8902	32.4904	43.5971
 322	1	5	-0.345523	29.7285	28.2939	42.8226
 323	1	7	0.155183	28.1412	21.5879	35.4367
 324	1	7	0.172904	29.4288	25.7342	35.0087
 325	1	7	0.158028	27.7932	26.0328	33.1576
 326	1	7	0.153129	32.6124	27.0435	38.4479
 327	1	7	0.142914	32.3768	24.9781	37.1467
 328	1	7	0.135531	28.0509	25.1008	37.7229
 329	1	7	0.17765	26.4589	32.2205	40.945
 330	1	9	0.046541	26.8471	31.609	38.7266
 331	1	9	0.045238	26.5861	29.8643	38.619
 332	1	9	0.051941	28.1994	30.5501	38.3248
 333	1	9	0.087961	26.4209	32.0678	44.4947
 334	1	9	0.066782	26.1278	33.0974	43.0935
 335	1	9	0.075908	27.6875	33.1754	43.9147
 336	1	9	0.105172	29.761	27.4043	42.1852
 337	1	9	0.115625	29.4092	27.9199	43.8025
 338	1	9	0.140296	30.7576	28.6684	42.92
 339	1	1	-0.004194	23.6386	19.5183	19.7356
 340	1	1	-0.097141	24.3488	19.7454	20.9514
 341	1	1	-0.172015	25.4895	18.9309	21.2034
 342	1	2	-0.377994	22.7986	18.8658	16.8288
 343	1	1	0.033493	24.1092	18.5571	18.8313
 344	1	1	-0.063739	25.9189	17.9352	20.3006
 345	1	2	-0.398381	26.494	16.2179	17.7909
 346	1	1	0.032144	25.216	17.7845	19.1022
 347	1	3	0.032313	23.7039	18.3028	17.4216
 348	1	4	0.461698	24.6401	17.3967	16.9098
 349	1	3	0.091945	25.5513	16.9867	17.8908
 350	1	1	-0.10563	23.5575	18.8163	25.1255
 351	1	5	-0.099376	24.0589	20.9669	21.8913
 352	1	1	-0.043296	23.9514	20.5519	23.3994
 353	1	1	-0.073043	23.7137	19.1978	23.7762
 354	1	1	-0.117827	23.6064	19.8118	26.1042
 355	1	1	-0.037562	23.96	21.5333	24.4355
 356	1	1	-0.083705	23.7825	21.1363	25.7704
 357	1	5	0.396	25.2488	21.9709	21.6152
 358	1	5	0.310495	22.6815	21.6546	21.5544
 359	1	6	-0.130298	25.5202	22.0625	20.2902
 360	1	6	-0.128745	26.3987	21.5649	22.2023
 361	1	6	-0.120019	25.0073	23.2284	22.0416
 362	1	6	-0.104287	21.6909	20.7371	21.6469
 363	1	6	-0.095507	22.6498	22.2216	20.326
 364	1	6	-0.104872	22.3478	22.6498	22.4044
 365	1	3	0.456145	23.7526	21.9306	27.0357
 366	1	3	0.550902	23.4791	19.7064	27.5815
 367	1	4	0.015704	23.5608	21.0062	28.0644
 368	1	2	-0.456801	23.8882	23.1384	27.1242
 369	1	2	-0.487703	23.3296	18.6732	28.2123
 370	1	1	-0.116566	23.4664	21.3181	29.4617
 371	1	1	-0.050109	24.6111	21.7553	30.1797
 372	1	1	0.154929	24.495	22.0684	31.5582
 373	1	1	0.041555	22.235	21.1421	30.1431
 374	1	1	-0.223109	22.1564	21.3943	31.5195
 375	1	1	-0.080449	23.2633	21.8817	32.2266
 376	1	5	-0.108008	20.9519	20.7088	29.4416
 377	1	5	-0.182228	23.0846	22.2262	33.7042
 378	1	5	-0.345523	25.9539	21.9108	29.4557
 379	1	7	0.155183	22.7873	20.106	19.4202
 380	1	7	0.172904	26.0799	19.0966	22.1023
 381	1	7	0.158028	26.8193	17.3531	20.4871
 382	1	7	0.153129	23.3868	17.7771	25.4014
 383	1	7	0.142914	23.6278	18.4221	23.0217
 384	1	7	0.135531	24.0867	22.5907	24.2228
 385	1	7	0.17765	21.2103	21.2462	32.0334
 386	1	9	0.046541	20.9317	21.0062	28.3861
 387	1	9	0.045238	20.0715	21.1633	29.914
 388	1	9	0.051941	20.832	19.6197	29.4918
 389	1	9	0.087961	22.0238	22.3365	33.962
 390	1	9	0.066782	23.5715	23.1743	33.9657
 391	1	9	0.075908	23.4975	21.4372	34.347
 392	1	9	0.105172	26.1474	21.0709	28.7775
 393	1	9	0.115625	26.8173	21.9507	30.1298
 394	1	9	0.140296	25.9645	22.8366	28.8621
 395	1	1	-0.004194	17.2517	12.6578	6.87676
 396	1	1	-0.097141	17.65	13.2024	8.12871
 397	1	1	-0.172015	17.0904	12.605	9.29755
 398	1	2	-0.377994	16.4619	10.8344	4.55562
 399	1	1	0.033493	16.4329	11.5169	6.85139
 400	1	1	-0.063739	16.272	11.4481	9.24998
 401	1	2	-0.398381	14.486	8.98801	8.33901
 402	1	1	0.032144	15.9515	10.9177	7.99672
 403	1	3	0.032313	16.009	10.7054	5.68297
 404	1	4	0.461698	15.1654	9.70527	6.20067
 405	1	3	0.091945	15.1045	9.74889	7.60152
 406	1	1	-0.10563	21.2081	12.8785	10.6534
 407	1	5	-0.099376	18.6011	14.4565	8.25665
 408	1	1	-0.043296	19.5803	14.3165	9.46228
 409	1	1	-0.073043	20.1952	13.0552	9.6873
 410	1	1	-0.117827	21.5775	13.9904	11.4207
 411	1	1	-0.037562	19.9892	15.4194	10.2699
 412	1	1	-0.083705	20.9618	15.2119	11.2552
 413	1	5	0.396	17.6336	15.6733	8.44364
 414	1	5	0.310495	19.5411	14.6738	7.00668
 415	1	6	-0.130298	16.5875	15.5732	7.59732
 416	1	6	-0.128745	17.1259	15.6684	9.69468
 417	1	6	-0.120019	18.187	16.8904	8.24256
 418	1	6	-0.104287	18.8716	15.1862	5.95001
 419	1	6	-0.095507	20.0908	13.5035	6.59946
 420	1	6	-0.104872	20.5758	15.5187	7.2827
 421	1	3	0.456145	21.6722	16.2108	12.0988
 422	1	3	0.550902	22.7218	14.1938	12.3541
 423	1	4	0.015704	22.7239	15.5409	12.6948
 424	1	2	-0.456801	21.4226	17.3971	12.1742
 425	1	2	-0.487703	23.5529	13.354	12.6373
 426	1	1	-0.116566	23.7602	16.2025	13.4305
 427	1	1	-0.050109	23.709	16.3618	14.8411
 428	1	1	0.154929	24.7392	17.0836	15.5122
 429	1	1	0.041555	24.8511	16.7322	12.7115
 430	1	1	-0.223109	25.8655	17.4242	13.3797
 431	1	1	-0.080449	25.8292	17.6009	14.7639
 432	1	5	-0.108008	24.984	16.5424	11.2082
 433	1	5	-0.182228	26.9736	18.4011	15.3753
 434	1	5	-0.345523	22.5567	15.761	15.6503
 435	1	7	0.155183	17.5841	13.075	5.931
 436	1	7	0.172904	17.3157	13.035	10.2717
 437	1	7	0.158028	15.89	10.9829	10.1567
 438	1	7	0.153129	21.7271	11.9266	10.766
 439	1	7	0.142914	19.9341	12.2092	9.0553
 440	1	7	0.135531	19.6156	16.4282	10.1226
 441	1	7	0.17765	26.6995	17.8243	12.8089
 442	1	9	0.046541	25.966	16.8726	10.8482
 443	1	9	0.045238	24.2245	17.1222	10.6694
 444	1	9	0.051941	24.8799	15.4877	10.9261
 445	1	9	0.087961	26.6188	19.36	15.7741
 446	1	9	0.066782	27.7491	18.6314	14.633
 447	1	9	0.075908	27.482	17.8572	16.1773
 448	1	9	0.105172	22.9067	15.3306	16.5975
 449	1	9	0.115625	22.0433	14.9492	15.1231
 450	1	9	0.140296	21.8015	16.5254	15.8815
 451	1	4	0.48116	8.37046	10.39	-10.8867
 452	1	3	0.034009	8.49744	9.90844	-9.5674
 453	1	1	0.028921	7.74043	10.9062	-8.76695
 454	1	3	0.071556	7.7349	11.6311	-10.97
 455	1	1	0.025276	7.24751	11.8891	-9.60179
 456	1	2	-0.381907	9.02919	8.87698	-9.14365
 457	1	2	-0.393799	7.70037	12.4189	-11.9091
 458	1	1	-0.008998	7.50119	10.9101	-7.39633
 459	1	1	-0.064503	6.4788	12.9374	-9.10708
 460	1	1	-0.16756	6.25745	12.9873	-7.7139
 461	1	1	-0.085161	6.74246	11.9625	-6.82817
 462	1	7	0.158939	7.92107	10.1033	-6.79739
 463	1	7	0.163781	6.09241	13.6965	-9.78201
 464	1	7	0.161401	5.68539	13.8337	-7.34554
 465	1	5	-0.078003	6.42407	11.8979	-5.29991
 466	1	5	0.303704	5.801	13.2221	-4.75158
 467	1	6	-0.1084	4.55253	13.4313	-5.21664
 468	1	6	-0.101508	6.56899	14.2638	-5.13466
 469	1	6	-0.111714	5.7183	13.2324	-3.39421
 470	1	5	0.380371	5.37798	10.7503	-5.09049
 471	1	6	-0.124028	4.4585	10.7388	-6.06652
 472	1	6	-0.119704	4.69714	10.8136	-3.91637
 473	1	6	-0.115877	5.97892	9.55954	-5.17557
 474	1	1	-0.024709	7.74964	11.6652	-4.50132
 475	1	1	-0.076489	7.72721	11.1297	-3.19587
 476	1	1	-0.052344	8.87079	11.192	-2.40436
 477	1	1	-0.054202	9.01564	12.1	-5.00066
 478	1	1	-0.149083	10.1946	12.0872	-4.22721
 479	1	1	-0.063027	10.074	11.6421	-2.90738
 480	1	3	0.499526	11.0822	11.5159	-1.82502
 481	1	4	-0.036881	10.3894	10.9677	-0.73439
 482	1	3	0.443545	9.04557	10.7366	-1.01669
 483	1	1	0.038197	10.9767	10.77	0.549671
 484	1	1	-0.408621	11.8168	11.7628	1.09119
 485	1	1	0.252781	12.482	11.5504	2.31023
 486	1	1	-0.169778	10.6772	9.63599	1.33709
 487	1	1	-0.113042	11.3442	9.41858	2.56711
 488	1	1	0.016958	12.3207	10.34	3.01069
 489	1	7	0.167832	11.1378	12.4521	-4.62288
 490	1	7	0.134138	9.09445	12.5027	-6.00495
 491	1	7	0.145229	6.81029	10.7694	-2.74297
 492	1	2	-0.462312	8.13237	10.3409	-0.306499
 493	1	2	-0.483102	12.277	11.7579	-1.94031
 494	1	7	0.144532	11.1441	8.51968	3.14656
 495	1	7	0.226042	12.0133	12.6752	0.538238
 496	1	1	0.12103	14.0821	9.01214	4.15439
 497	1	1	-0.09864	14.5658	8.39035	2.98362
 498	1	1	-0.194398	15.472	7.32451	3.07915
 499	1	1	-0.091961	15.8376	6.83341	4.34203
 500	1	1	-0.197799	15.3953	7.48477	5.50381
 501	1	1	-0.102777	14.5694	8.63284	5.43565
 502	1	7	0.132074	16.4885	5.9659	4.41771
 503	1	7	0.154044	15.7177	7.10659	6.47267
 504	1	7	0.145155	14.2571	8.74643	2.00652
 505	1	7	0.14558	13.7167	8.52182	6.09792
 506	1	10	-0.24014	13.1788	10.0673	4.07408
 507	1	7	0.152938	9.96222	8.89528	0.979033
 508	1	7	0.151751	15.8396	6.84581	2.17385
 509	1	4	0.48116	10.7367	-5.49169	-16.6423
 510	1	3	0.034009	9.4189	-5.74217	-16.2596
 511	1	1	0.028921	8.972	-4.49715	-15.5849
 512	1	3	0.071556	11.1237	-4.18715	-16.3805
 513	1	1	0.025276	9.9836	-3.5461	-15.6454
 514	1	2	-0.381907	8.76866	-6.77261	-16.3093
 515	1	2	-0.393799	12.2243	-3.73328	-16.6033
 516	1	1	-0.008998	7.82576	-4.32742	-14.8027
 517	1	1	-0.064503	9.87643	-2.35274	-14.9341
 518	1	1	-0.16756	8.64091	-2.08389	-14.308
 519	1	1	-0.085161	7.61676	-3.06412	-14.1801
 520	1	7	0.158939	7.12658	-5.15544	-14.7739
 521	1	7	0.163781	10.7067	-1.62561	-14.8646
 522	1	7	0.161401	8.53314	-1.13801	-13.7815
 523	1	5	-0.078003	6.37627	-2.75715	-13.3102
 524	1	5	0.303704	5.18586	-3.71082	-13.6184
 525	1	6	-0.1084	5.45659	-4.98602	-13.27
 526	1	6	-0.101508	4.77841	-3.691	-14.9139
 527	1	6	-0.111714	4.09028	-3.37724	-12.9209
 528	1	5	0.380371	6.76999	-2.96164	-11.7964
 529	1	6	-0.124028	5.75298	-2.74051	-10.9269
 530	1	6	-0.119704	7.76048	-2.09338	-11.4934
 531	1	6	-0.115877	7.23134	-4.21404	-11.5039
 532	1	1	-0.024709	5.96732	-1.29552	-13.6251
 533	1	1	-0.076489	6.01175	-0.241035	-12.669
 534	1	1	-0.052344	5.82875	1.08503	-13.0638
 535	1	1	-0.054202	5.72505	-0.934076	-14.9676
 536	1	1	-0.149083	5.48413	0.408011	-15.3288
 537	1	1	-0.063027	5.60608	1.38226	-14.3584
 538	1	3	0.499526	5.71952	2.83122	-14.5682
 539	1	4	-0.036881	5.98067	3.37847	-13.2991
 540	1	3	0.443545	6.01254	2.36675	-12.3256
 541	1	1	0.038197	6.24987	4.77896	-13.0784
 542	1	1	-0.408621	7.08171	5.2947	-12.0529
 543	1	1	0.252781	7.22092	6.69147	-11.842
 544	1	1	-0.169778	5.64891	5.73371	-13.9221
 545	1	1	-0.113042	5.77024	7.12292	-13.7478
 546	1	1	0.016958	6.55687	7.61676	-12.6997
 547	1	7	0.167832	5.31611	0.699668	-16.3586
 548	1	7	0.134138	5.76686	-1.6745	-15.7605
 549	1	7	0.145229	6.22756	-0.406664	-11.6232
 550	1	2	-0.462312	6.4077	2.42734	-11.1757
 551	1	2	-0.483102	5.55901	3.39038	-15.6472
 552	1	7	0.144532	5.23992	7.8082	-14.4006
 553	1	7	0.226042	7.5159	4.63361	-11.3137
 554	1	1	0.12103	7.84289	9.59585	-12.9855
 555	1	1	-0.09864	7.96173	10.1086	-14.285
 556	1	1	-0.194398	9.14881	10.7689	-14.6527
 557	1	1	-0.091961	10.2378	10.8155	-13.7669
 558	1	1	-0.197799	10.1073	10.2619	-12.4756
 559	1	1	-0.102777	8.87138	9.73528	-12.0429
 560	1	7	0.132074	11.1463	11.3357	-14.0534
 561	1	7	0.154044	10.9177	10.3791	-11.7548
 562	1	7	0.145155	7.15457	9.97293	-14.9981
 563	1	7	0.14558	9.03977	8.78284	-11.56
 564	1	10	-0.24014	6.67514	8.98445	-12.5826
 565	1	7	0.152938	4.99495	5.41507	-14.7236
 566	1	7	0.151751	9.24539	11.1762	-15.6508
 567	1	1	-0.004194	11.841	-15.6892	-15.13
 568	1	1	-0.097141	10.8854	-15.6929	-14.052
 569	1	1	-0.172015	9.70314	-16.4646	-14.174
 570	1	2	-0.377994	13.2426	-15.9004	-17.9267
 571	1	1	0.033493	11.4887	-16.3498	-16.3307
 572	1	1	-0.063739	9.40586	-17.1791	-15.322
 573	1	2	-0.398381	9.21027	-18.2607	-18.2021
 574	1	1	0.032144	10.2663	-17.0162	-16.4105
 575	1	3	0.032313	12.1665	-16.4178	-17.6401
 576	1	4	0.461698	11.2893	-17.1461	-18.4365
 577	1	3	0.091945	10.1377	-17.5865	-17.7571
 578	1	1	-0.10563	13.9561	-12.0546	-13.1696
 579	1	5	-0.099376	11.1669	-14.8664	-12.7683
 580	1	1	-0.043296	11.9969	-13.5963	-13.2175
 581	1	1	-0.073043	13.2266	-13.16	-12.6175
 582	1	1	-0.117827	13.4406	-11.3714	-14.3052
 583	1	1	-0.037562	11.4563	-12.807	-14.2672
 584	1	1	-0.083705	12.2057	-11.7482	-14.7805
 585	1	5	0.396	11.8524	-15.8012	-11.7272
 586	1	5	0.310495	9.84728	-14.4054	-12.0607
 587	1	6	-0.130298	11.158	-16.9696	-11.5647
 588	1	6	-0.128745	11.9372	-15.1828	-10.5246
 589	1	6	-0.120019	13.0961	-16.1769	-12.0389
 590	1	6	-0.104287	9.05411	-13.8613	-13.0264
 591	1	6	-0.095507	10.1194	-13.4424	-11.1366
 592	1	6	-0.104872	9.13789	-15.3623	-11.4129
 593	1	3	0.456145	11.8077	-10.8547	-15.8888
 594	1	3	0.550902	13.8479	-10.1181	-15.0751
 595	1	4	0.015704	12.7896	-9.87347	-15.9626
 596	1	2	-0.456801	10.7099	-10.935	-16.4014
 597	1	2	-0.487703	14.8663	-9.45264	-14.925
 598	1	1	-0.116566	12.6157	-8.70549	-16.7879
 599	1	1	-0.050109	12.0037	-7.54271	-16.261
 600	1	1	0.154929	11.5848	-6.50405	-17.1504
 601	1	1	0.041555	12.8493	-8.77418	-18.1893
 602	1	1	-0.223109	12.3988	-7.74766	-19.0535
 603	1	1	-0.080449	11.7444	-6.60682	-18.5644
 604	1	5	-0.108008	13.6446	-9.90986	-18.7957
 605	1	5	-0.182228	11.1301	-5.5963	-19.596
 606	1	5	-0.345523	11.8153	-7.43035	-14.7577
 607	1	7	0.155183	12.7834	-15.1342	-15.0461
 608	1	7	0.172904	8.99218	-16.5617	-13.3549
 609	1	7	0.158028	8.50375	-17.7746	-15.404
 610	1	7	0.153129	14.9026	-11.7734	-12.7148
 611	1	7	0.142914	13.6389	-13.683	-11.7615
 612	1	7	0.135531	10.509	-13.0541	-14.7393
 613	1	7	0.17765	12.5644	-7.82886	-20.1149
 614	1	9	0.046541	13.558	-9.89448	-19.891
 615	1	9	0.045238	13.3247	-10.8909	-18.4278
 616	1	9	0.051941	14.7115	-9.78301	-18.566
 617	1	9	0.087961	10.8004	-6.15246	-20.4818
 618	1	9	0.066782	11.8921	-4.88911	-19.9477
 619	1	9	0.075908	10.2561	-5.03715	-19.2197
 620	1	9	0.105172	11.0249	-8.09785	-14.4016
 621	1	9	0.115625	11.5837	-6.40514	-14.4216
 622	1	9	0.140296	12.7562	-7.7357	-14.2516
 623	1	4	0.48116	18.9623	-30.225	-20.7368
 624	1	3	0.034009	18.9188	-30.4227	-19.3699
 625	1	1	0.028921	17.5029	-30.2126	-19.0011
 626	1	3	0.071556	17.7436	-29.916	-21.2996
 627	1	1	0.025276	16.8294	-29.9115	-20.1554
 628	1	2	-0.381907	19.8412	-30.7688	-18.6575
 629	1	2	-0.393799	17.4591	-29.7588	-22.4804
 630	1	1	-0.008998	16.8533	-30.4113	-17.7962
 631	1	1	-0.064503	15.4624	-29.6709	-20.1527
 632	1	1	-0.16756	14.7795	-29.8693	-18.9237
 633	1	1	-0.085161	15.4544	-30.2348	-17.724
 634	1	7	0.158939	17.4541	-30.6647	-16.9156
 635	1	7	0.163781	14.931	-29.4225	-21.0639
 636	1	7	0.161401	13.6968	-29.8383	-18.9569
 637	1	5	-0.078003	14.6251	-30.4632	-16.4521
 638	1	5	0.303704	13.9517	-31.8842	-16.6868
 639	1	6	-0.1084	13.0822	-31.9301	-17.6997
 640	1	6	-0.101508	13.2279	-32.3242	-15.632
 641	1	6	-0.111714	14.8464	-32.8632	-16.9502
 642	1	5	0.380371	15.4821	-30.4157	-15.1244
 643	1	6	-0.124028	16.3287	-29.336	-15.0631
 644	1	6	-0.119704	14.6897	-30.372	-14.0266
 645	1	6	-0.115877	16.2574	-31.4952	-14.9828
 646	1	1	-0.024709	13.5769	-29.2847	-16.3733
 647	1	1	-0.076489	14.0665	-27.9611	-16.4729
 648	1	1	-0.052344	13.1453	-26.9062	-16.5803
 649	1	1	-0.054202	12.1558	-29.455	-16.2729
 650	1	1	-0.149083	11.2701	-28.3621	-16.4502
 651	1	1	-0.063027	11.7908	-27.0959	-16.6884
 652	1	3	0.499526	11.1788	-25.761	-17.0799
 653	1	4	-0.036881	12.2323	-24.8689	-17.193
 654	1	3	0.443545	13.4152	-25.4768	-16.8399
 655	1	1	0.038197	12.1638	-23.5402	-17.6861