pySIMM System Object

1362 atoms
1490 bonds
2605 angles
3934 dihedrals
420 impropers

10 atom types
12 bond types
21 angle types
8 dihedral types
4 improper types

-144.737583 144.737583 xlo xhi
-144.737583 144.737583 ylo yhi
-144.737583 144.737583 zlo zhi

Masses

   1	14.01	# n
   2	12.01	# c
   3	12.01	# ca
   4	1.008	# hn
   5	16.0	# o
   6	1.008	# ha
   7	12.01	# c3
   8	19.0	# f
   9	16.0	# os
  10	1.008	# hc

Pair Coeffs

   1	0.17	3.249998523775958	# n
   2	0.086	3.3996695084235347	# c
   3	0.086	3.3996695084235347	# ca
   4	0.0157	1.069078461768407	# hn
   5	0.21	2.959921901149463	# o
   6	0.015	2.59964245953351	# ha
   7	0.1094	3.3996695084235347	# c3
   8	0.061	3.1181455134911875	# f
   9	0.17	3.0000123434657784	# os
  10	0.0157	2.649532787749369	# hc

Bond Coeffs

   1	345.8	1.086	# ca,ha
   2	427.6	1.3789	# c,n
   3	637.7	1.2183	# c,o
   4	321.0	1.5156	# c3,ca
   5	300.9	1.5375	# c3,c3
   6	384.2	1.4121	# ca,n
   7	376.6	1.3696	# ca,os
   8	403.2	1.0129	# hn,n
   9	356.9	1.3497	# c3,f
  10	461.1	1.3984	# ca,ca
  11	345.9	1.4906	# c,ca
  12	330.6	1.0969	# c3,hc

Angle Coeffs

   1	48.33	117.55	# c,n,hn
   2	74.22	123.05	# n,c,o
   3	64.28	120.33	# c,ca,ca
   4	66.11	109.24	# c3,c3,f
   5	63.48	119.89	# ca,os,ca
   6	63.53	120.77	# c3,ca,ca
   7	66.62	120.02	# ca,ca,ca
   8	63.15	112.07	# c3,c3,ca
   9	63.82	123.71	# c,n,ca
  10	62.86	111.51	# c3,c3,c3
  11	70.89	107.36	# f,c3,f
  12	67.87	120.19	# ca,ca,n
  13	63.74	127.08	# c,n,c
  14	48.18	119.88	# ca,ca,ha
  15	68.72	122.6	# ca,c,o
  16	63.56	112.24	# ca,c3,ca
  17	69.58	119.2	# ca,ca,os
  18	67.68	115.25	# ca,c,n
  19	39.4	107.58	# hc,c3,hc
  20	46.8	110.47	# ca,c3,hc
  21	49.75	116.02	# ha,ca,n

Dihedral Coeffs

   1	2	2.5	2	180	2.0	1	0	# hn,n,c,o
   2	1	3.625	2	180	# X,ca,ca,X
   3	1	1.0	2	180	# X,c,ca,X
   4	1	0.15555555555555556	3	0	# X,c3,c3,X
   5	1	0.0	2	0	# X,c3,ca,X
   6	1	0.9	2	180	# X,ca,os,X
   7	1	2.5	2	180	# X,c,n,X
   8	1	0.45	2	180	# X,ca,n,X

Improper Coeffs

   1	10.5	-1	2	# c,X,X,o
   2	1.1	-1	2	# ca,X,X,ha
   3	1.1	-1	2	# ca,ca,ca,c3
   4	1.1	-1	2	# n,X,X,hn

Atoms

   1	1	1	0.48116	31.3012	-44.7405	32.882
   2	1	2	0.034009	31.6243	-44.5962	34.2355
   3	1	3	0.028921	32.2792	-43.2958	34.3803
   4	1	2	0.071556	31.5977	-43.5741	32.1552
   5	1	3	0.025276	32.2118	-42.6819	33.1609
   6	1	5	-0.381907	31.2718	-45.2721	35.1812
   7	1	5	-0.393799	31.225	-43.2004	31.0524
   8	1	3	-0.008998	32.9213	-42.7151	35.4767
   9	1	3	-0.064503	32.7232	-41.4127	32.9902
  10	1	3	-0.16756	33.356	-40.7859	34.0811
  11	1	3	-0.085161	33.4789	-41.4243	35.3459
  12	1	6	0.158939	33.0202	-43.2805	36.3916
  13	1	6	0.163781	32.6619	-40.9304	32.0213
  14	1	6	0.161401	33.7829	-39.8039	33.9007
  15	1	7	-0.078003	34.2536	-40.8273	36.5513
  16	1	7	0.303704	35.7512	-41.3886	36.4955
  17	1	8	-0.1084	36.546	-40.7619	37.4023
  18	1	8	-0.101508	36.3854	-41.2657	35.2979
  19	1	8	-0.111714	35.8081	-42.7126	36.741
  20	1	7	0.380371	34.338	-39.2523	36.4939
  21	1	8	-0.124028	35.2943	-38.8576	35.6337
  22	1	8	-0.119704	33.1715	-38.6789	36.0993
  23	1	8	-0.115877	34.6785	-38.6962	37.6868
  24	1	3	-0.024709	33.4477	-41.224	37.8357
  25	1	3	-0.076489	34.0189	-41.9522	38.9164
  26	1	3	-0.052344	33.2087	-42.3148	39.9982
  27	1	3	-0.054202	32.0633	-40.8837	37.9277
  28	1	3	-0.149083	31.2778	-41.202	39.0572
  29	1	3	-0.063027	31.8774	-41.9643	40.0546
  30	1	2	0.499526	31.2772	-42.5666	41.2552
  31	1	1	-0.036881	32.3112	-43.2436	41.887
  32	1	2	0.443545	33.5149	-43.1513	41.1839
  33	1	3	0.038197	32.0684	-43.9848	43.0766
  34	1	3	-0.408621	31.2249	-43.4364	44.0723
  35	1	3	0.252781	30.827	-44.2128	45.167
  36	1	3	-0.169778	32.4931	-45.3191	43.1859
  37	1	3	-0.113042	32.106	-46.0924	44.2885
  38	1	3	0.016958	31.293	-45.5315	45.2785
  39	1	6	0.167832	30.2198	-40.9453	39.1112
  40	1	6	0.134138	31.5818	-40.3575	37.1051
  41	1	6	0.145229	35.061	-42.2468	38.941
  42	1	5	-0.462312	34.5545	-43.7669	41.3597
  43	1	5	-0.483102	30.1063	-42.476	41.5814
  44	1	6	0.144532	32.4298	-47.1287	44.3785
  45	1	6	0.226042	30.8074	-42.4357	43.9747
  46	1	3	0.12103	29.69	-46.8145	46.6075
  47	1	3	-0.09864	29.5507	-47.6524	47.721
  48	1	3	-0.194398	28.2885	-48.1664	48.0661
  49	1	3	-0.091961	27.1485	-47.8322	47.318
  50	1	3	-0.197799	27.2887	-46.9923	46.1997
  51	1	3	-0.102777	28.5606	-46.5096	45.8242
  52	1	6	0.132074	26.173	-48.2257	47.5966
  53	1	6	0.154044	26.4173	-46.7451	45.5993
  54	1	6	0.145155	30.4236	-47.8951	48.3171
  55	1	6	0.14558	28.6585	-45.8836	44.9426
  56	1	9	-0.24014	30.9495	-46.3136	46.3493
  57	1	6	0.152938	33.1189	-45.7546	42.4183
  58	1	6	0.151751	28.1932	-48.8225	48.9252
  59	1	3	-0.004194	29.5877	-55.753	36.4424
  60	1	3	-0.097141	30.2789	-55.6524	35.2088
  61	1	3	-0.172015	29.561	-55.9658	34.0223
  62	1	5	-0.377994	27.4974	-56.0812	38.7282
  63	1	3	0.033493	28.2747	-56.234	36.4484
  64	1	3	-0.063739	28.2514	-56.4826	34.0492
  65	1	5	-0.398381	25.4668	-57.4749	34.8124
  66	1	3	0.032144	27.6368	-56.6178	35.2916
  67	1	2	0.032313	27.2865	-56.3274	37.5572
  68	1	1	0.461698	26.0879	-56.783	36.9836
  69	1	2	0.091945	26.2558	-57.0256	35.6175
  70	1	3	-0.10563	32.6778	-52.8117	32.1149
  71	1	7	-0.099376	31.7511	-55.164	35.1055
  72	1	3	-0.043296	31.7932	-53.9449	34.1333
  73	1	3	-0.073043	32.7103	-53.8649	33.0439
  74	1	3	-0.117827	31.8002	-51.7455	32.3366
  75	1	3	-0.037562	30.9055	-52.8425	34.3137
  76	1	3	-0.083705	30.975	-51.7338	33.4417
  77	1	7	0.396	32.6187	-56.3867	34.6023
  78	1	7	0.310495	32.3821	-54.678	36.4618
  79	1	8	-0.130298	32.53	-57.4641	35.4176
  80	1	8	-0.128745	33.938	-56.0841	34.5064
  81	1	8	-0.120019	32.2314	-56.8045	33.3795
  82	1	8	-0.104287	33.6096	-54.1661	36.2096
  83	1	8	-0.095507	32.5056	-55.6661	37.3951
  84	1	8	-0.104872	31.6749	-53.6625	37.0081
  85	1	2	0.456145	30.3078	-50.3911	33.4718
  86	1	2	0.550902	31.6134	-50.4769	31.5729
  87	1	1	0.015704	30.7737	-49.6949	32.3569
  88	1	5	-0.456801	29.523	-49.9804	34.312
  89	1	5	-0.487703	32.1496	-50.1831	30.5216
  90	1	3	-0.116566	30.3508	-48.3428	32.0597
  91	1	3	-0.050109	31.1288	-47.2144	32.4417
  92	1	3	0.154929	30.5805	-45.8869	32.4005
  93	1	3	0.041555	29.0636	-48.1444	31.523
  94	1	3	-0.223109	28.5112	-46.8465	31.5029
  95	1	3	-0.080449	29.2276	-45.7358	32.0016
  96	1	7	-0.108008	28.2633	-49.353	31.0474
  97	1	7	-0.182228	28.499	-44.3942	32.067
  98	1	7	-0.345523	32.5589	-47.4559	32.93
  99	1	6	0.155183	30.0339	-55.4799	37.3924
 100	1	6	0.172904	30.0173	-55.7989	33.0512
 101	1	6	0.158028	27.7021	-56.702	33.1392
 102	1	6	0.153129	33.3495	-52.802	31.2616
 103	1	6	0.142914	33.4109	-54.6502	32.8134
 104	1	6	0.135531	30.1975	-52.822	35.1336
 105	1	6	0.17765	27.4943	-46.705	31.1491
 106	1	10	0.046541	28.9094	-50.0953	30.5596
 107	1	10	0.045238	27.5064	-49.0808	30.2904
 108	1	10	0.051941	27.7401	-49.8483	31.879
 109	1	10	0.087961	27.4194	-44.5474	32.1566
 110	1	10	0.066782	28.68	-43.8053	31.1526
 111	1	10	0.075908	28.8075	-43.7837	32.9232
 112	1	10	0.105172	32.5384	-47.8354	33.9614
 113	1	10	0.115625	33.1793	-46.5494	32.9363
 114	1	10	0.140296	33.0965	-48.1886	32.3207
 115	1	1	0.48116	17.6276	-60.8973	21.145
 116	1	2	0.034009	17.0486	-61.4247	22.2991
 117	1	3	0.028921	17.0616	-60.3068	23.2724
 118	1	2	0.071556	18.0464	-59.5745	21.3127
 119	1	3	0.025276	17.7157	-59.2327	22.709
 120	1	5	-0.381907	16.7234	-62.5796	22.526
 121	1	5	-0.393799	18.5819	-58.8346	20.5045
 122	1	3	-0.008998	16.5935	-60.2533	24.5913
 123	1	3	-0.064503	17.9528	-58.0491	23.4141
 124	1	3	-0.16756	17.548	-58.017	24.7582
 125	1	3	-0.085161	16.8786	-59.1053	25.3783
 126	1	6	0.158939	16.0515	-61.1091	24.979
 127	1	6	0.163781	18.4671	-57.2059	22.9538
 128	1	6	0.161401	17.776	-57.1288	25.3421
 129	1	7	-0.078003	16.5577	-58.9773	26.8957
 130	1	7	0.303704	16.0599	-60.3153	27.5419
 131	1	8	-0.1084	14.792	-60.6218	27.2259
 132	1	8	-0.101508	16.0932	-60.295	28.8879
 133	1	8	-0.111714	16.846	-61.3487	27.186
 134	1	7	0.380371	15.4394	-57.8608	27.0383
 135	1	8	-0.124028	14.8928	-57.8371	28.2701
 136	1	8	-0.119704	14.4173	-58.0371	26.1603
 137	1	8	-0.115877	15.9043	-56.6091	26.8452
 138	1	3	-0.024709	17.8683	-58.6683	27.6676
 139	1	3	-0.076489	17.8713	-57.8676	28.8382
 140	1	3	-0.052344	19.0659	-57.7093	29.5449
 141	1	3	-0.054202	19.0727	-59.3309	27.2903
 142	1	3	-0.149083	20.271	-59.1533	28.0058
 143	1	3	-0.063027	20.2304	-58.3189	29.1296
 144	1	2	0.499526	21.2585	-58.0643	30.1666
 145	1	1	-0.036881	20.6377	-57.2981	31.1739
 146	1	2	0.443545	19.3013	-57.0557	30.8639
 147	1	3	0.038197	21.2502	-56.962	32.4342
 148	1	3	-0.408621	21.0932	-55.7033	33.0618
 149	1	3	0.252781	21.7655	-55.422	34.2768
 150	1	3	-0.169778	22.0194	-57.9346	33.104
 151	1	3	-0.113042	22.6334	-57.6684	34.3394
 152	1	3	0.016958	22.5375	-56.3999	34.9435
 153	1	6	0.167832	21.1796	-59.6844	27.7312
 154	1	6	0.134138	19.0907	-60.0127	26.4463
 155	1	6	0.145229	16.9759	-57.4098	29.2426
 156	1	5	-0.462312	18.4398	-56.5413	31.5608
 157	1	5	-0.483102	22.372	-58.5634	30.1387
 158	1	6	0.144532	23.2293	-58.4477	34.8036
 159	1	6	0.226042	20.4673	-54.94	32.6071
 160	1	3	0.12103	23.6152	-57.0307	37.095
 161	1	3	-0.09864	22.6208	-57.9305	37.5279
 162	1	3	-0.194398	22.8459	-58.8312	38.5741
 163	1	3	-0.091961	24.1032	-58.8701	39.1808
 164	1	3	-0.197799	25.0874	-57.9397	38.8072
 165	1	3	-0.102777	24.883	-56.9923	37.7584
 166	1	6	0.132074	24.2841	-59.589	39.9768
 167	1	6	0.154044	26.0314	-57.967	39.3547
 168	1	6	0.145155	21.6389	-57.9035	37.0571
 169	1	6	0.14558	24.9539	-55.9956	38.187
 170	1	9	-0.24014	23.2369	-56.0964	36.1238
 171	1	6	0.152938	22.1593	-58.9176	32.6607
 172	1	6	0.151751	22.0511	-59.4934	38.9129
 173	1	1	0.48116	3.14278	-49.2881	17.286
 174	1	2	0.034009	3.47345	-50.0785	16.1848
 175	1	3	0.028921	4.50101	-51.0271	16.7057
 176	1	2	0.071556	3.92015	-49.5416	18.4169
 177	1	3	0.025276	4.74934	-50.7327	18.038
 178	1	5	-0.381907	2.91316	-50.1237	15.1001
 179	1	5	-0.393799	3.77314	-49.0691	19.5344
 180	1	3	-0.008998	5.13389	-52.0992	16.0705
 181	1	3	-0.064503	5.62381	-51.5355	18.7943
 182	1	3	-0.16756	6.26347	-52.6313	18.1567
 183	1	3	-0.085161	6.06173	-52.9094	16.7765
 184	1	6	0.158939	4.86059	-52.3052	15.0432
 185	1	6	0.163781	5.77588	-51.3261	19.8472
 186	1	6	0.161401	6.88816	-53.2795	18.7565
 187	1	7	-0.078003	6.6743	-54.1883	16.1159
 188	1	7	0.303704	6.87777	-54.0443	14.5509
 189	1	8	-0.1084	7.72794	-54.9729	14.031
 190	1	8	-0.101508	7.3952	-52.8192	14.2802
 191	1	8	-0.111714	5.73441	-54.1776	13.8458
 192	1	7	0.380371	5.66784	-55.3595	16.4313
 193	1	8	-0.124028	4.38628	-55.0621	16.143
 194	1	8	-0.119704	5.70353	-55.6506	17.7579
 195	1	8	-0.115877	5.90565	-56.4918	15.7287
 196	1	3	-0.024709	8.08002	-54.4521	16.7208
 197	1	3	-0.076489	8.47483	-55.7573	17.0989
 198	1	3	-0.052344	9.76707	-55.9737	17.5515
 199	1	3	-0.054202	9.03715	-53.4065	16.8331
 200	1	3	-0.149083	10.3673	-53.6519	17.2686
 201	1	3	-0.063027	10.7162	-54.979	17.6045
 202	1	2	0.499526	11.9972	-55.6304	18.0321
 203	1	1	-0.036881	11.7295	-57.0012	18.181
 204	1	2	0.443545	10.3714	-57.2529	17.9514
 205	1	3	0.038197	12.6884	-58.0227	18.5068
 206	1	3	-0.408621	13.8862	-57.7273	19.1874
 207	1	3	0.252781	14.8453	-58.7298	19.4413
 208	1	3	-0.169778	12.4806	-59.3626	18.1011
 209	1	3	-0.113042	13.4306	-60.3637	18.361
 210	1	3	0.016958	14.6261	-60.0513	19.0174
 211	1	6	0.167832	11.0989	-52.847	17.3262
 212	1	6	0.134138	8.75881	-52.3967	16.5384
 213	1	6	0.145229	7.82171	-56.6329	17.0399
 214	1	5	-0.462312	9.72943	-58.286	18.0192
 215	1	5	-0.483102	13.046	-55.0324	18.1906
 216	1	6	0.144532	13.2568	-61.3805	18.0176
 217	1	6	0.226042	14.0916	-56.7239	19.5456
 218	1	3	0.12103	16.8573	-61.0405	18.9737
 219	1	3	-0.09864	17.3015	-60.5566	17.7334
 220	1	3	-0.194398	18.6626	-60.6553	17.4045
 221	1	3	-0.091961	19.5706	-61.2263	18.314
 222	1	3	-0.197799	19.0975	-61.7456	19.53
 223	1	3	-0.102777	17.7448	-61.6043	19.9073
 224	1	6	0.132074	20.6238	-61.2884	18.0691
 225	1	6	0.154044	19.8034	-62.2081	20.2195
 226	1	6	0.145155	16.5999	-60.101	17.0399
 227	1	6	0.14558	17.3486	-62.5536	20.2523
 228	1	9	-0.24014	15.5188	-61.0628	19.2929
 229	1	6	0.152938	11.5826	-59.6501	17.5591
 230	1	6	0.151751	19.0261	-60.2508	16.4605
 231	1	3	-0.004194	-3.74498	-39.1259	12.9828
 232	1	3	-0.097141	-2.3339	-39.3761	13.0577
 233	1	3	-0.172015	-1.51413	-38.3041	13.5499
 234	1	5	-0.377994	-6.63642	-38.0143	13.1286
 235	1	3	0.033493	-4.24219	-37.8632	13.3565
 236	1	3	-0.063739	-2.03623	-37.0208	13.8344
 237	1	5	-0.398381	-3.77942	-34.5783	14.4325
 238	1	3	0.032144	-3.41509	-36.8369	13.7321
 239	1	2	0.032313	-5.64582	-37.3625	13.4198
 240	1	1	0.461698	-5.57072	-36.0389	13.8737
 241	1	2	0.091945	-4.23528	-35.6462	14.0633
 242	1	3	-0.10563	-0.986201	-41.8341	16.3162
 243	1	7	-0.099376	-1.68063	-40.7408	12.6104
 244	1	3	-0.043296	-1.13575	-41.5217	13.8451
 245	1	3	-0.073043	-1.42823	-41.1128	15.1773
 246	1	3	-0.117827	-0.23692	-42.9957	16.1258
 247	1	3	-0.037562	-0.367921	-42.7119	13.6926
 248	1	3	-0.083705	0.0113207	-43.4261	14.8456
 249	1	7	0.396	-2.73681	-41.6756	11.9133
 250	1	7	0.310495	-0.500938	-40.4014	11.623
 251	1	8	-0.130298	-3.6524	-42.1062	12.8152
 252	1	8	-0.128745	-2.23597	-42.7837	11.3338
 253	1	8	-0.120019	-3.41937	-41.034	10.9482
 254	1	8	-0.104287	-0.0405821	-41.4722	10.9299
 255	1	8	-0.095507	0.574514	-39.884	12.2672
 256	1	8	-0.104872	-0.87715	-39.4722	10.7222
 257	1	2	0.456145	0.571499	-44.7941	14.9439
 258	1	2	0.550902	0.197324	-44.0581	17.0859
 259	1	1	0.015704	0.559074	-45.1323	16.2908
 260	1	5	-0.456801	0.826825	-45.5118	13.9971
 261	1	5	-0.487703	0.0594084	-44.0499	18.2969
 262	1	3	-0.116566	0.636443	-46.4886	16.7738
 263	1	3	-0.050109	1.8742	-47.1664	16.8885
 264	1	3	0.154929	1.92663	-48.5176	17.3394
 265	1	3	0.041555	-0.564126	-47.1523	17.1438
 266	1	3	-0.223109	-0.511827	-48.4577	17.6494
 267	1	3	-0.080449	0.712921	-49.1377	17.7544
 268	1	7	-0.108008	-1.91559	-46.4318	17.1159
 269	1	7	-0.182228	0.652432	-50.5608	18.292
 270	1	7	-0.345523	3.1292	-46.3896	16.5205
 271	1	6	0.155183	-4.47644	-39.8761	12.7113
 272	1	6	0.172904	-0.449548	-38.431	13.6998
 273	1	6	0.158028	-1.40226	-36.2053	14.1915
 274	1	6	0.153129	-1.2419	-41.4966	17.3247
 275	1	6	0.142914	-2.02259	-40.2202	15.3586
 276	1	6	0.135531	-0.137551	-43.1309	12.7155
 277	1	6	0.17765	-1.43977	-48.9423	17.956
 278	1	10	0.046541	-2.01262	-45.7565	17.9829
 279	1	10	0.045238	-2.75942	-47.1353	17.1789
 280	1	10	0.051941	-2.05643	-45.8584	16.1876
 281	1	10	0.087961	0.691821	-51.2847	17.4746
 282	1	10	0.066782	-0.267968	-50.7463	18.8679
 283	1	10	0.075908	1.49451	-50.7698	18.9801
 284	1	10	0.105172	4.04868	-46.9428	16.7333
 285	1	10	0.115625	3.1901	-45.4356	17.0749
 286	1	10	0.140296	3.14845	-46.1483	15.4537
 287	1	1	0.48116	-18.6619	-21.4782	8.9328
 288	1	2	0.034009	-18.2413	-22.3663	7.95561
 289	1	3	0.028921	-17.1786	-23.2034	8.58939
 290	1	2	0.071556	-17.979	-21.6477	10.128
 291	1	3	0.025276	-17.0438	-22.7815	9.89457
 292	1	5	-0.381907	-18.7119	-22.5046	6.8445
 293	1	5	-0.393799	-18.1543	-21.077	11.1911
 294	1	3	-0.008998	-16.35	-24.217	8.07144
 295	1	3	-0.064503	-16.1041	-23.3719	10.7496
 296	1	3	-0.16756	-15.2216	-24.3349	10.2356
 297	1	3	-0.085161	-15.3289	-24.7787	8.88977
 298	1	6	0.158939	-16.4617	-24.4718	7.02486
 299	1	6	0.163781	-15.996	-23.0154	11.7728
 300	1	6	0.161401	-14.4275	-24.7082	10.8833
 301	1	7	-0.078003	-14.2343	-25.72	8.30138
 302	1	7	0.303704	-13.0155	-24.8061	7.86697
 303	1	8	-0.1084	-12.1347	-25.3847	7.03607
 304	1	8	-0.101508	-12.2982	-24.3951	8.92267
 305	1	8	-0.111714	-13.4432	-23.7061	7.21012
 306	1	7	0.380371	-14.7232	-26.5049	7.01766
 307	1	8	-0.124028	-15.9601	-27.031	7.21586
 308	1	8	-0.119704	-13.8659	-27.5115	6.72198
 309	1	8	-0.115877	-14.8006	-25.764	5.88308
 310	1	3	-0.024709	-13.8545	-26.8315	9.3345
 311	1	3	-0.076489	-12.5642	-27.3982	9.41064
 312	1	3	-0.052344	-12.3248	-28.5137	10.2301
 313	1	3	-0.054202	-14.8609	-27.4306	10.123
 314	1	3	-0.149083	-14.6156	-28.568	10.929
 315	1	3	-0.063027	-13.3266	-29.1372	10.9425
 316	1	2	0.499526	-12.7447	-30.3642	11.5942
 317	1	1	-0.036881	-11.4073	-30.3739	11.2082
 318	1	2	0.443545	-11.0767	-29.2983	10.397
 319	1	3	0.038197	-10.5018	-31.4415	11.4814
 320	1	3	-0.408621	-10.141	-31.7481	12.8039
 321	1	3	0.252781	-9.14429	-32.6983	13.0459
 322	1	3	-0.169778	-9.87616	-32.1265	10.4169
 323	1	3	-0.113042	-8.92835	-33.1271	10.6614
 324	1	3	0.016958	-8.53997	-33.3955	11.9825
 325	1	6	0.167832	-15.4355	-29.0266	11.4894
 326	1	6	0.134138	-15.878	-27.0491	10.0723
 327	1	6	0.145229	-11.741	-27.0064	8.81612
 328	1	5	-0.462312	-10.052	-29.1203	9.76477
 329	1	5	-0.483102	-13.3476	-31.204	12.2371
 330	1	6	0.144532	-8.44738	-33.6536	9.84466
 331	1	6	0.226042	-10.5712	-31.1943	13.6377
 332	1	3	0.12103	-7.67477	-35.1853	13.2715
 333	1	3	-0.09864	-8.89167	-35.8713	13.3747
 334	1	3	-0.194398	-9.2127	-36.5503	14.554
 335	1	3	-0.091961	-8.3449	-36.4802	15.6484
 336	1	3	-0.197799	-7.12095	-35.8153	15.5154
 337	1	3	-0.102777	-6.70222	-35.2598	14.2906
 338	1	6	0.132074	-8.61553	-36.9495	16.5829
 339	1	6	0.154044	-6.44487	-35.8161	16.364
 340	1	6	0.145155	-9.62461	-35.8204	12.5628
 341	1	6	0.14558	-6.18795	-34.3231	14.4225
 342	1	9	-0.24014	-7.52483	-34.2873	12.2447
 343	1	6	0.152938	-10.1185	-31.8734	9.38711
 344	1	6	0.151751	-10.1581	-37.0735	14.6438
 345	1	3	-0.004194	-22.0155	-13.2053	0.417192
 346	1	3	-0.097141	-21.9544	-13.2165	1.84122
 347	1	3	-0.172015	-23.1747	-13.4072	2.53848
 348	1	5	-0.377994	-22.7121	-13.0115	-2.5503
 349	1	3	0.033493	-23.2419	-13.3011	-0.220567
 350	1	3	-0.063739	-24.4172	-13.483	1.86483
 351	1	5	-0.398381	-26.7204	-13.2807	-0.23382
 352	1	3	0.032144	-24.4229	-13.3805	0.46848
 353	1	2	0.032313	-23.5252	-13.1515	-1.65955
 354	1	1	0.461698	-24.9054	-13.1804	-1.7576
 355	1	2	0.091945	-25.5324	-13.3123	-0.513532
 356	1	3	-0.10563	-20.2568	-13.6248	6.51453
 357	1	7	-0.099376	-20.6466	-12.8956	2.63414
 358	1	3	-0.043296	-20.6556	-13.5911	4.06174
 359	1	3	-0.073043	-20.4003	-12.9129	5.2975
 360	1	3	-0.117827	-20.3245	-15.0302	6.4888
 361	1	3	-0.037562	-20.837	-15.0092	4.11658
 362	1	3	-0.083705	-20.6558	-15.6946	5.32789
 363	1	7	0.396	-19.3935	-13.4674	1.87339
 364	1	7	0.310495	-20.4953	-11.3233	2.71042
 365	1	8	-0.130298	-19.6373	-14.7156	1.41342
 366	1	8	-0.128745	-18.3074	-13.5064	2.69101
 367	1	8	-0.120019	-19.0267	-12.7496	0.788751
 368	1	8	-0.104287	-19.3371	-10.9646	3.30388
 369	1	8	-0.095507	-21.535	-10.7335	3.33914
 370	1	8	-0.104872	-20.4684	-10.7335	1.50404
 371	1	2	0.456145	-20.7957	-17.1446	5.65765
 372	1	2	0.550902	-20.2081	-16.0242	7.58854
 373	1	1	0.015704	-20.5418	-17.2548	7.02621
 374	1	5	-0.456801	-21.0476	-18.0453	4.87181
 375	1	5	-0.487703	-19.8161	-15.7796	8.7156
 376	1	3	-0.116566	-20.667	-18.4888	7.76263
 377	1	3	-0.050109	-19.5424	-19.3198	8.04756
 378	1	3	0.154929	-19.7315	-20.5582	8.73458
 379	1	3	0.041555	-21.952	-18.8952	8.17532
 380	1	3	-0.223109	-22.1162	-20.1177	8.85105
 381	1	3	-0.080449	-21.0271	-20.9545	9.13557
 382	1	7	-0.108008	-23.1896	-18.0351	7.95266
 383	1	7	-0.182228	-21.3028	-22.3019	9.79338
 384	1	7	-0.345523	-18.1615	-18.8845	7.54573
 385	1	6	0.155183	-21.1417	-13.0337	-0.199431
 386	1	6	0.172904	-23.1803	-13.3966	3.63148
 387	1	6	0.158028	-25.3627	-13.5497	2.41098
 388	1	6	0.153129	-20.048	-13.1088	7.45115
 389	1	6	0.142914	-20.2742	-11.8417	5.3248
 390	1	6	0.135531	-21.079	-15.5854	3.23016
 391	1	6	0.17765	-23.1161	-20.4323	9.12497
 392	1	10	0.046541	-23.0089	-16.9946	8.24162
 393	1	10	0.045238	-24.0395	-18.3894	8.56088
 394	1	10	0.051941	-23.5042	-18.0461	6.90197
 395	1	10	0.087961	-21.5245	-23.063	9.03953
 396	1	10	0.066782	-22.1789	-22.2317	10.4528
 397	1	10	0.075908	-20.4593	-22.6549	10.4109
 398	1	10	0.105172	-17.3368	-19.4205	8.02948
 399	1	10	0.115625	-17.9909	-17.8189	7.73254
 400	1	10	0.140296	-18.0761	-19.0601	6.46515
 401	1	3	-0.004194	-32.8591	-7.57643	-8.04637
 402	1	3	-0.097141	-33.1855	-7.14066	-6.73601
 403	1	3	-0.172015	-34.5007	-7.40734	-6.24119
 404	1	5	-0.377994	-32.8777	-8.5948	-10.9832
 405	1	3	0.033493	-33.8178	-8.29491	-8.78601
 406	1	3	-0.063739	-35.4397	-8.14037	-7.00534
 407	1	5	-0.398381	-37.0033	-9.70811	-9.112
 408	1	3	0.032144	-35.0652	-8.57472	-8.27791
 409	1	2	0.032313	-33.7594	-8.84938	-10.1708
 410	1	1	0.461698	-34.979	-9.52366	-10.3785
 411	1	2	0.091945	-35.8317	-9.37509	-9.26423
 412	1	3	-0.10563	-28.3472	-7.53359	-6.47984
 413	1	7	-0.099376	-32.0879	-6.41844	-5.92504
 414	1	3	-0.043296	-30.7876	-7.29187	-6.05344
 415	1	3	-0.073043	-29.5479	-6.79644	-6.55365
 416	1	3	-0.117827	-28.3809	-8.77883	-5.83431
 417	1	3	-0.037562	-30.7703	-8.58674	-5.45783
 418	1	3	-0.083705	-29.5466	-9.25072	-5.25681
 419	1	7	0.396	-31.9879	-4.94607	-6.53195
 420	1	7	0.310495	-32.3921	-6.30945	-4.37633
 421	1	8	-0.130298	-31.2578	-4.11964	-5.74332
 422	1	8	-0.128745	-33.2115	-4.35915	-6.6819
 423	1	8	-0.120019	-31.3806	-4.92926	-7.74958
 424	1	8	-0.104287	-32.9835	-7.40977	-3.84006
 425	1	8	-0.095507	-33.1131	-5.19109	-4.08041
 426	1	8	-0.104872	-31.2471	-6.15727	-3.68675
 427	1	2	0.456145	-29.2436	-10.5279	-4.55627
 428	1	2	0.550902	-27.2968	-9.76547	-5.59311
 429	1	1	0.015704	-27.8798	-10.7589	-4.81238
 430	1	5	-0.456801	-30.0606	-11.2716	-4.02619
 431	1	5	-0.487703	-26.126	-9.66607	-5.92746
 432	1	3	-0.116566	-27.1386	-11.9191	-4.41928
 433	1	3	-0.050109	-26.2018	-11.8948	-3.35319
 434	1	3	0.154929	-25.5881	-13.1082	-2.99589
 435	1	3	0.041555	-27.2667	-13.0782	-5.21574
 436	1	3	-0.223109	-26.523	-14.2383	-4.92165
 437	1	3	-0.080449	-25.6979	-14.265	-3.79459
 438	1	7	-0.108008	-28.1611	-13.0779	-6.45951
 439	1	7	-0.182228	-24.9406	-15.5401	-3.42989
 440	1	7	-0.345523	-25.9681	-10.6492	-2.48047
 441	1	6	0.155183	-31.8785	-7.39672	-8.48365
 442	1	6	0.172904	-34.8154	-7.05796	-5.2585
 443	1	6	0.158028	-36.439	-8.36959	-6.62767
 444	1	6	0.153129	-27.4134	-7.13852	-6.86999
 445	1	6	0.142914	-29.4508	-5.79968	-6.95977
 446	1	6	0.135531	-31.6739	-9.04405	-5.06039
 447	1	6	0.17765	-26.6144	-15.125	-5.54707
 448	1	10	0.046541	-27.8029	-12.3426	-7.20257
 449	1	10	0.045238	-29.1996	-12.8279	-6.20916
 450	1	10	0.051941	-28.1841	-14.0528	-6.95544
 451	1	10	0.087961	-25.2437	-16.4072	-4.04323
 452	1	10	0.066782	-25.1038	-15.818	-2.37335
 453	1	10	0.075908	-23.8568	-15.3971	-3.58836
 454	1	10	0.105172	-24.906	-10.358	-2.48729
 455	1	10	0.115625	-26.2626	-10.8139	-1.43586
 456	1	10	0.140296	-26.537	-9.77925	-2.81274
 457	1	1	0.48116	-26.6661	-22.5188	-5.17883
 458	1	2	0.034009	-28.021	-22.545	-4.89727
 459	1	3	0.028921	-28.323	-21.2106	-4.35877
 460	1	2	0.071556	-26.1103	-21.2575	-4.95754
 461	1	3	0.025276	-27.1995	-20.426	-4.42999
 462	1	5	-0.381907	-28.7965	-23.4747	-4.99993
 463	1	5	-0.393799	-24.9525	-20.9212	-5.07204
 464	1	3	-0.008998	-29.5096	-20.777	-3.78031
 465	1	3	-0.064503	-27.2342	-19.11	-4.00668
 466	1	3	-0.16756	-28.3988	-18.6625	-3.35742
 467	1	3	-0.085161	-29.5499	-19.494	-3.17952
 468	1	6	0.158939	-30.3189	-21.4963	-3.75485
 469	1	6	0.163781	-26.3715	-18.4719	-4.13871
 470	1	6	0.161401	-28.4108	-17.6432	-2.98694
 471	1	7	-0.078003	-30.7549	-19.0201	-2.2662
 472	1	7	0.303704	-31.9032	-20.1198	-2.22601
 473	1	8	-0.1084	-32.9955	-19.6797	-1.56547
 474	1	8	-0.101508	-31.5511	-21.2466	-1.55514
 475	1	8	-0.111714	-32.3597	-20.5056	-3.44911
 476	1	7	0.380371	-30.1287	-18.8101	-0.817327
 477	1	8	-0.124028	-31.0609	-18.7456	0.158005
 478	1	8	-0.119704	-29.3413	-17.7028	-0.713292
 479	1	8	-0.115877	-29.3319	-19.838	-0.479464
 480	1	3	-0.024709	-31.4076	-17.6819	-2.77401
 481	1	3	-0.076489	-31.263	-17.3469	-4.14422
 482	1	3	-0.052344	-31.9712	-16.2634	-4.67826
 483	1	3	-0.054202	-32.2313	-16.8219	-1.96646
 484	1	3	-0.149083	-32.8355	-15.6429	-2.48081
 485	1	3	-0.063027	-32.7416	-15.4233	-3.8777
 486	1	2	0.499526	-33.275	-14.3276	-4.75063
 487	1	1	-0.036881	-32.762	-14.5878	-6.02317
 488	1	2	0.443545	-31.9591	-15.735	-6.07502
 489	1	3	0.038197	-33.0568	-13.8092	-7.17618
 490	1	3	-0.408621	-34.3926	-13.4967	-7.48871
 491	1	3	0.252781	-34.7132	-12.8767	-8.70578
 492	1	3	-0.169778	-32.0315	-13.5286	-8.10489
 493	1	3	-0.113042	-32.3567	-12.9713	-9.34997
 494	1	3	0.016958	-33.6846	-12.6331	-9.63867
 495	1	6	0.167832	-33.3984	-14.976	-1.82165
 496	1	6	0.134138	-32.39	-17.0601	-0.91961
 497	1	6	0.145229	-30.6357	-17.9329	-4.81328
 498	1	5	-0.462312	-31.3064	-16.1541	-7.03113
 499	1	5	-0.483102	-34.0773	-13.4563	-4.41979
 500	1	6	0.144532	-31.5828	-12.8068	-10.0968
 501	1	6	0.226042	-35.1869	-13.7207	-6.77152
 502	1	3	0.12103	-35.1703	-11.647	-11.2695
 503	1	3	-0.09864	-36.2819	-12.5086	-11.3344
 504	1	3	-0.194398	-37.5053	-12.0485	-11.8398
 505	1	3	-0.091961	-37.5919	-10.7257	-12.2893
 506	1	3	-0.197799	-36.4799	-9.86983	-12.199
 507	1	3	-0.102777	-35.2825	-10.279	-11.5752
 508	1	6	0.132074	-38.5145	-10.3552	-12.706
 509	1	6	0.154044	-36.5778	-8.85275	-12.5846
 510	1	6	0.145155	-36.1614	-13.541	-11.0688
 511	1	6	0.14558	-34.4193	-9.96342	-12.1562
 512	1	9	-0.24014	-33.9295	-12.1093	-10.885
 513	1	6	0.152938	-30.9974	-13.7869	-7.88012
 514	1	6	0.151751	-38.347	-12.7367	-11.9474
 515	1	1	0.48116	-34.981	-13.8602	-17.0622
 516	1	2	0.034009	-33.5962	-14.0165	-17.2079
 517	1	3	0.028921	-33.0885	-14.215	-15.8216
 518	1	2	0.071556	-35.4008	-13.9125	-15.7224
 519	1	3	0.025276	-34.1404	-14.1026	-14.947
 520	1	5	-0.381907	-32.9421	-13.9263	-18.2324
 521	1	5	-0.393799	-36.5256	-13.8045	-15.2417
 522	1	3	-0.008998	-31.7725	-14.431	-15.4087
 523	1	3	-0.064503	-33.9083	-14.1425	-13.5699
 524	1	3	-0.16756	-32.5834	-14.3	-13.1024
 525	1	3	-0.085161	-31.4882	-14.4327	-14.0192
 526	1	6	0.158939	-30.9884	-14.4436	-16.1601
 527	1	6	0.163781	-34.7502	-14.0772	-12.8974
 528	1	6	0.161401	-32.4281	-14.3063	-12.0261
 529	1	7	-0.078003	-29.9945	-14.3883	-13.5575
 530	1	7	0.303704	-29.4305	-12.912	-13.8282
 531	1	8	-0.1084	-29.519	-12.5032	-15.1339
 532	1	8	-0.101508	-28.1141	-12.7731	-13.5295
 533	1	8	-0.111714	-30.0843	-11.9824	-13.0859
 534	1	7	0.380371	-29.062	-15.4053	-14.343
 535	1	8	-0.124028	-28.6792	-15.0417	-15.5961
 536	1	8	-0.119704	-29.7043	-16.5583	-14.5318
 537	1	8	-0.115877	-27.9143	-15.7106	-13.6669
 538	1	3	-0.024709	-29.9043	-14.8449	-12.0586
 539	1	3	-0.076489	-30.3948	-16.1446	-11.7259
 540	1	3	-0.052344	-29.9486	-16.7985	-10.5559
 541	1	3	-0.054202	-29.0497	-14.202	-11.1167
 542	1	3	-0.149083	-28.6937	-14.8451	-9.90674
 543	1	3	-0.063027	-29.1387	-16.153	-9.64768
 544	1	2	0.499526	-28.6892	-17.1455	-8.61311
 545	1	1	-0.036881	-29.1068	-18.3939	-9.07504
 546	1	2	0.443545	-29.908	-18.2637	-10.2253
 547	1	3	0.038197	-28.508	-19.6376	-8.64323
 548	1	3	-0.408621	-29.2292	-20.8487	-8.66144
 549	1	3	0.252781	-28.6172	-22.0757	-8.35477
 550	1	3	-0.169778	-27.1287	-19.7026	-8.31707
 551	1	3	-0.113042	-26.4819	-20.9515	-8.11986
 552	1	3	0.016958	-27.2333	-22.1468	-8.1305
 553	1	6	0.167832	-27.9512	-14.3929	-9.2471
 554	1	6	0.134138	-28.5919	-13.228	-11.3221
 555	1	6	0.145229	-30.9669	-16.7116	-12.4589
 556	1	5	-0.462312	-30.4096	-19.1386	-10.9148
 557	1	5	-0.483102	-27.9897	-16.9141	-7.63866
 558	1	6	0.144532	-25.4078	-20.9878	-7.95807
 559	1	6	0.226042	-30.2792	-20.8372	-8.92301
 560	1	3	0.12103	-25.6329	-23.6134	-6.94932
 561	1	3	-0.09864	-24.35	-23.9399	-7.40951
 562	1	3	-0.194398	-23.2929	-24.1754	-6.50327
 563	1	3	-0.091961	-23.5367	-24.1358	-5.12477
 564	1	3	-0.197799	-24.8453	-23.927	-4.67693
 565	1	3	-0.102777	-25.9086	-23.647	-5.5652
 566	1	6	0.132074	-22.738	-24.3255	-4.42107
 567	1	6	0.154044	-25.0163	-23.8775	-3.60695
 568	1	6	0.145155	-24.1956	-23.9928	-8.4842
 569	1	6	0.14558	-26.6808	-24.382	-5.38825
 570	1	9	-0.24014	-26.6488	-23.3911	-7.87686
 571	1	6	0.152938	-26.5241	-18.7993	-8.28821
 572	1	6	0.151751	-22.2997	-24.4199	-6.87775
 573	1	3	-0.004194	-34.8313	-5.16376	-17.6696
 574	1	3	-0.097141	-34.648	-4.17765	-18.6752
 575	1	3	-0.172015	-33.6247	-3.20345	-18.4592
 576	1	5	-0.377994	-34.5588	-7.16738	-15.2732
 577	1	3	0.033493	-33.9264	-5.24642	-16.6056
 578	1	3	-0.063739	-32.7242	-3.29406	-17.3798
 579	1	5	-0.398381	-31.4518	-3.8087	-14.6953
 580	1	3	0.032144	-32.9065	-4.34299	-16.4846
 581	1	2	0.032313	-33.8545	-6.19312	-15.4493
 582	1	1	0.461698	-32.8084	-5.71833	-14.6527
 583	1	2	0.091945	-32.2542	-4.5709	-15.1914
 584	1	3	-0.10563	-38.4185	-6.96369	-19.8735
 585	1	7	-0.099376	-35.5869	-4.14325	-19.9268
 586	1	3	-0.043296	-36.3676	-5.53999	-20.0204
 587	1	3	-0.073043	-37.7858	-5.70005	-19.8972
 588	1	3	-0.117827	-37.6348	-8.11733	-20.0174
 589	1	3	-0.037562	-35.6168	-6.74629	-20.1384
 590	1	3	-0.083705	-36.2718	-7.99353	-20.1513
 591	1	7	0.396	-36.5814	-2.91718	-19.7586
 592	1	7	0.310495	-34.7295	-3.93598	-21.2449
 593	1	8	-0.130298	-37.2979	-3.0023	-18.6073
 594	1	8	-0.128745	-37.4351	-2.84873	-20.8116
 595	1	8	-0.120019	-35.9697	-1.70407	-19.7219
 596	1	8	-0.104287	-33.7134	-4.82147	-21.3562
 597	1	8	-0.095507	-34.117	-2.7309	-21.3984
 598	1	8	-0.104872	-35.5067	-4.10451	-22.3307
 599	1	2	0.456145	-35.7171	-9.39074	-20.1318
 600	1	2	0.550902	-37.9874	-9.5835	-19.8894
 601	1	1	0.015704	-36.774	-10.2693	-19.9286
 602	1	5	-0.456801	-34.5415	-9.6866	-20.1265
 603	1	5	-0.487703	-39.1186	-10.0468	-19.8211
 604	1	3	-0.116566	-36.6202	-11.6788	-19.6418
 605	1	3	-0.050109	-35.9327	-12.0856	-18.4817
 606	1	3	0.154929	-35.8056	-13.4676	-18.1611
 607	1	3	0.041555	-37.1745	-12.6568	-20.5056
 608	1	3	-0.223109	-37.073	-14.0299	-20.1811
 609	1	3	-0.080449	-36.3871	-14.4352	-19.0195
 610	1	7	-0.108008	-37.7517	-12.2703	-21.8493
 611	1	7	-0.182228	-36.1753	-15.9335	-18.7807
 612	1	7	-0.345523	-35.3022	-11.0206	-17.5646
 613	1	6	0.155183	-35.6491	-5.87871	-17.6737
 614	1	6	0.172904	-33.4935	-2.36519	-19.1328
 615	1	6	0.158028	-31.9384	-2.55018	-17.2273
 616	1	6	0.153129	-39.4966	-7.03891	-19.7536
 617	1	6	0.142914	-38.4359	-4.83474	-19.7711
 618	1	6	0.135531	-34.5315	-6.74987	-20.1468
 619	1	6	0.17765	-37.488	-14.7748	-20.8616
 620	1	10	0.046541	-38.0804	-13.1378	-22.4277
 621	1	10	0.045238	-36.9634	-11.7737	-22.4462
 622	1	10	0.051941	-38.6	-11.5906	-21.7633
 623	1	10	0.087961	-36.9248	-16.3229	-18.0682
 624	1	10	0.066782	-35.1742	-16.166	-18.3838
 625	1	10	0.075908	-36.265	-16.4844	-19.7197
 626	1	10	0.105172	-35.1946	-11.3603	-16.5287
 627	1	10	0.115625	-35.9153	-10.1215	-17.4815
 628	1	10	0.140296	-34.314	-10.7348	-17.9328
 629	1	1	0.48116	-19.1126	-7.99968	-3.16382
 630	1	2	0.034009	-18.859	-9.24957	-3.76671
 631	1	3	0.028921	-20.1591	-9.67607	-4.37072
 632	1	2	0.071556	-20.4588	-7.61638	-3.29096