pySIMM System Object

2844 atoms
3115 bonds
5439 angles
8250 dihedrals
888 impropers

10 atom types
12 bond types
21 angle types
8 dihedral types
4 improper types

-184.856292 184.856292 xlo xhi
-184.856292 184.856292 ylo yhi
-184.856292 184.856292 zlo zhi

Masses

   1	14.01	# n
   2	12.01	# c
   3	12.01	# ca
   4	1.008	# hn
   5	16.0	# o
   6	1.008	# ha
   7	12.01	# c3
   8	19.0	# f
   9	16.0	# os
  10	1.008	# hc

Pair Coeffs

   1	0.17	3.249998523775958	# n
   2	0.086	3.3996695084235347	# c
   3	0.086	3.3996695084235347	# ca
   4	0.0157	1.069078461768407	# hn
   5	0.21	2.959921901149463	# o
   6	0.015	2.59964245953351	# ha
   7	0.1094	3.3996695084235347	# c3
   8	0.061	3.1181455134911875	# f
   9	0.17	3.0000123434657784	# os
  10	0.0157	2.649532787749369	# hc

Bond Coeffs

   1	345.8	1.086	# ca,ha
   2	427.6	1.3789	# c,n
   3	637.7	1.2183	# c,o
   4	321.0	1.5156	# c3,ca
   5	300.9	1.5375	# c3,c3
   6	384.2	1.4121	# ca,n
   7	376.6	1.3696	# ca,os
   8	403.2	1.0129	# hn,n
   9	356.9	1.3497	# c3,f
  10	461.1	1.3984	# ca,ca
  11	345.9	1.4906	# c,ca
  12	330.6	1.0969	# c3,hc

Angle Coeffs

   1	48.33	117.55	# c,n,hn
   2	74.22	123.05	# n,c,o
   3	64.28	120.33	# c,ca,ca
   4	66.11	109.24	# c3,c3,f
   5	63.48	119.89	# ca,os,ca
   6	63.53	120.77	# c3,ca,ca
   7	66.62	120.02	# ca,ca,ca
   8	63.15	112.07	# c3,c3,ca
   9	63.82	123.71	# c,n,ca
  10	62.86	111.51	# c3,c3,c3
  11	70.89	107.36	# f,c3,f
  12	67.87	120.19	# ca,ca,n
  13	63.74	127.08	# c,n,c
  14	48.18	119.88	# ca,ca,ha
  15	68.72	122.6	# ca,c,o
  16	63.56	112.24	# ca,c3,ca
  17	69.58	119.2	# ca,ca,os
  18	67.68	115.25	# ca,c,n
  19	39.4	107.58	# hc,c3,hc
  20	46.8	110.47	# ca,c3,hc
  21	49.75	116.02	# ha,ca,n

Dihedral Coeffs

   1	2	2.5	2	180	2.0	1	0	# hn,n,c,o
   2	1	3.625	2	180	# X,ca,ca,X
   3	1	1.0	2	180	# X,c,ca,X
   4	1	0.15555555555555556	3	0	# X,c3,c3,X
   5	1	0.0	2	0	# X,c3,ca,X
   6	1	0.9	2	180	# X,ca,os,X
   7	1	2.5	2	180	# X,c,n,X
   8	1	0.45	2	180	# X,ca,n,X

Improper Coeffs

   1	10.5	-1	2	# c,X,X,o
   2	1.1	-1	2	# ca,X,X,ha
   3	1.1	-1	2	# ca,ca,ca,c3
   4	1.1	-1	2	# n,X,X,hn

Atoms

   1	1	1	0.48116	3.16599	23.8362	-47.8074
   2	1	2	0.034009	2.68093	22.5292	-47.8062
   3	1	3	0.028921	1.49218	22.561	-46.9189
   4	1	2	0.071556	2.44363	24.6833	-46.9685
   5	1	3	0.025276	1.35695	23.8375	-46.4137
   6	1	5	-0.381907	3.06523	21.5773	-48.4652
   7	1	5	-0.393799	2.58242	25.8835	-46.8013
   8	1	3	-0.008998	0.54916	21.5613	-46.6617
   9	1	3	-0.064503	0.282697	24.1794	-45.5901
  10	1	3	-0.16756	-0.681214	23.1868	-45.319
  11	1	3	-0.085161	-0.5885	21.8768	-45.8704
  12	1	6	0.158939	0.70527	20.5885	-47.1151
  13	1	6	0.163781	0.184577	25.1913	-45.2022
  14	1	6	0.161401	-1.53545	23.4551	-44.7006
  15	1	7	-0.078003	-1.74843	20.8674	-45.609
  16	1	7	0.303704	-1.60509	20.4	-44.1093
  17	1	8	-0.1084	-1.94677	21.3803	-43.2431
  18	1	8	-0.101508	-2.36202	19.323	-43.8016
  19	1	8	-0.111714	-0.32801	20.0609	-43.8199
  20	1	7	0.380371	-1.71482	19.607	-46.5553
  21	1	8	-0.124028	-2.84051	18.8649	-46.4482
  22	1	8	-0.119704	-1.63249	19.9651	-47.8574
  23	1	8	-0.115877	-0.678473	18.7781	-46.2956
  24	1	3	-0.024709	-3.09572	21.5886	-45.9102
  25	1	3	-0.076489	-4.2824	21.3276	-45.1743
  26	1	3	-0.052344	-5.4641	21.9889	-45.536
  27	1	3	-0.054202	-3.17252	22.4895	-47.0116
  28	1	3	-0.149083	-4.36707	23.1551	-47.3488
  29	1	3	-0.063027	-5.50409	22.8844	-46.5833
  30	1	2	0.499526	-6.89939	23.3763	-46.7274
  31	1	1	-0.036881	-7.63344	22.7122	-45.752
  32	1	2	0.443545	-6.83957	21.8674	-44.9829
  33	1	3	0.038197	-9.04467	22.8306	-45.6106
  34	1	3	-0.408621	-9.66046	24.0951	-45.5719
  35	1	3	0.252781	-11.0591	24.2019	-45.4935
  36	1	3	-0.169778	-9.84917	21.6771	-45.5579
  37	1	3	-0.113042	-11.2481	21.7798	-45.4784
  38	1	3	0.016958	-11.8601	23.0483	-45.4439
  39	1	6	0.167832	-4.4164	23.8411	-48.1924
  40	1	6	0.134138	-2.29545	22.6756	-47.6259
  41	1	6	0.145229	-4.31631	20.6171	-44.3548
  42	1	5	-0.462312	-7.18108	21.1345	-44.0706
  43	1	5	-0.483102	-7.29202	24.1757	-47.5606
  44	1	6	0.144532	-11.8469	20.8737	-45.4585
  45	1	6	0.226042	-9.06722	25.0021	-45.6413
  46	1	3	0.12103	-14.1149	22.1529	-45.2859
  47	1	3	-0.09864	-14.2316	21.4628	-44.0678
  48	1	3	-0.194398	-15.121	20.3791	-43.9581
  49	1	3	-0.091961	-15.8947	19.991	-45.0658
  50	1	3	-0.197799	-15.7824	20.6877	-46.2815
  51	1	3	-0.102777	-14.8931	21.7715	-46.3899
  52	1	6	0.132074	-16.5816	19.152	-44.9818
  53	1	6	0.154044	-16.3813	20.3879	-47.1377
  54	1	6	0.145155	-13.6269	21.7677	-43.2185
  55	1	6	0.14558	-14.7955	22.3128	-47.3265
  56	1	9	-0.24014	-13.232	23.1987	-45.4091
  57	1	6	0.152938	-9.39031	20.6919	-45.5913
  58	1	6	0.151751	-15.2096	19.8411	-43.0177
  59	1	3	-0.004194	14.8466	29.8842	-47.6885
  60	1	3	-0.097141	13.8587	29.0337	-47.1175
  61	1	3	-0.172015	14.3045	27.8775	-46.414
  62	1	5	-0.377994	17.4225	31.3175	-48.6583
  63	1	3	0.033493	16.1955	29.5373	-47.5743
  64	1	3	-0.063739	15.6708	27.5344	-46.3281
  65	1	5	-0.398381	18.7814	27.4079	-46.5695
  66	1	3	0.032144	16.5991	28.3876	-46.9295
  67	1	2	0.032313	17.4016	30.2626	-48.0468
  68	1	1	0.461698	18.4775	29.4803	-47.6358
  69	1	2	0.091945	18.0815	28.3139	-46.9865
  70	1	3	-0.10563	11.3762	25.9318	-48.7989
  71	1	7	-0.099376	12.3286	29.3576	-47.1693
  72	1	3	-0.043296	11.5141	28.0903	-47.5834
  73	1	3	-0.073043	12.1112	27.0518	-48.3564
  74	1	3	-0.117827	10.0098	25.8845	-48.5066
  75	1	3	-0.037562	10.1208	27.9984	-47.3186
  76	1	3	-0.083705	9.39989	26.9025	-47.8064
  77	1	7	0.396	11.9754	30.473	-48.2292
  78	1	7	0.310495	11.9441	29.8635	-45.7244
  79	1	8	-0.130298	12.4508	31.6932	-47.8915
  80	1	8	-0.128745	10.644	30.6317	-48.4021
  81	1	8	-0.120019	12.471	30.1566	-49.4475
  82	1	8	-0.104287	11.8895	28.8405	-44.8422
  83	1	8	-0.095507	12.8572	30.7402	-45.2463
  84	1	8	-0.104872	10.7518	30.4963	-45.6614
  85	1	2	0.456145	7.93148	26.6738	-47.8387
  86	1	2	0.550902	8.95424	24.9456	-48.9765
  87	1	1	0.015704	7.74672	25.5223	-48.5955
  88	1	5	-0.456801	7.08176	27.4291	-47.3997
  89	1	5	-0.487703	9.13586	23.9487	-49.6547
  90	1	3	-0.116566	6.46704	25.1041	-49.0758
  91	1	3	-0.050109	5.49046	24.5819	-48.1907
  92	1	3	0.154929	4.19125	24.2908	-48.6813
  93	1	3	0.041555	6.15193	25.3022	-50.4413
  94	1	3	-0.223109	4.87258	24.9796	-50.9134
  95	1	3	-0.080449	3.88461	24.4921	-50.0479
  96	1	7	-0.108008	7.15257	25.8907	-51.4324
  97	1	7	-0.182228	2.4947	24.2159	-50.6176
  98	1	7	-0.345523	5.82488	24.3791	-46.7077
  99	1	6	0.155183	14.6125	30.8062	-48.2074
 100	1	6	0.172904	13.5789	27.2248	-45.9326
 101	1	6	0.158028	16.0023	26.6432	-45.7992
 102	1	6	0.153129	11.8404	25.1558	-49.4047
 103	1	6	0.142914	13.1541	27.1161	-48.652
 104	1	6	0.135531	9.57456	28.7883	-46.8139
 105	1	6	0.17765	4.63826	25.1351	-51.9631
 106	1	10	0.046541	6.66175	26.2139	-52.3585
 107	1	10	0.045238	7.91119	25.1492	-51.7112
 108	1	10	0.051941	7.66427	26.7689	-51.0202
 109	1	10	0.087961	2.28346	23.1389	-50.6413
 110	1	10	0.066782	2.398	24.586	-51.6461
 111	1	10	0.075908	1.71132	24.7083	-50.0276
 112	1	10	0.105172	6.88411	24.1458	-46.5483
 113	1	10	0.115625	5.26887	23.5479	-46.2575
 114	1	10	0.140296	5.59317	25.2887	-46.1344
 115	1	3	-0.004194	23.9186	32.4818	-39.923
 116	1	3	-0.097141	25.2746	32.5107	-40.3482
 117	1	3	-0.172015	26.1445	31.4878	-39.8688
 118	1	5	-0.377994	21.1963	31.9946	-38.4923
 119	1	3	0.033493	23.5029	31.4964	-39.0201
 120	1	3	-0.063739	25.6952	30.4865	-38.9818
 121	1	5	-0.398381	24.1233	28.7633	-36.9183
 122	1	3	0.032144	24.3682	30.53	-38.5546
 123	1	2	0.032313	22.1933	31.3105	-38.3453
 124	1	1	0.461698	22.3741	30.2332	-37.4805
 125	1	2	0.091945	23.6565	29.6944	-37.5534
 126	1	3	-0.10563	23.3736	34.7847	-44.1789
 127	1	7	-0.099376	25.7526	33.6827	-41.2626
 128	1	3	-0.043296	24.85	33.6744	-42.5304
 129	1	3	-0.073043	24.2061	34.8386	-43.0415
 130	1	3	-0.117827	23.2118	33.553	-44.8204
 131	1	3	-0.037562	24.6754	32.4516	-43.2294
 132	1	3	-0.083705	23.8613	32.4238	-44.3684
 133	1	7	0.396	27.2445	33.5464	-41.768
 134	1	7	0.310495	25.649	35.0097	-40.4024
 135	1	8	-0.130298	27.542	34.481	-42.6993
 136	1	8	-0.128745	28.153	33.6836	-40.7762
 137	1	8	-0.120019	27.488	32.3581	-42.3658
 138	1	8	-0.104287	24.3733	35.3546	-40.1184
 139	1	8	-0.095507	26.2667	34.8788	-39.2074
 140	1	8	-0.104872	26.2061	36.0846	-41.0044
 141	1	2	0.456145	23.4768	31.2871	-45.2461
 142	1	2	0.550902	22.3725	33.1724	-45.99
 143	1	1	0.015704	22.5641	31.8057	-46.1546
 144	1	5	-0.456801	23.868	30.1371	-45.1471
 145	1	5	-0.487703	21.6309	33.9106	-46.6151
 146	1	3	-0.116566	21.8631	31.0117	-47.1105
 147	1	3	-0.050109	20.5268	30.6142	-46.8603
 148	1	3	0.154929	19.8353	29.8489	-47.8357
 149	1	3	0.041555	22.5098	30.6287	-48.3045
 150	1	3	-0.223109	21.8191	29.8539	-49.2481
 151	1	3	-0.080449	20.4886	29.4647	-49.0287
 152	1	7	-0.108008	23.9476	31.0423	-48.5968
 153	1	7	-0.182228	19.7765	28.6425	-50.0983
 154	1	7	-0.345523	19.8578	31.0311	-45.5418
 155	1	6	0.155183	23.1999	33.2295	-40.249
 156	1	6	0.172904	27.1979	31.4696	-40.127
 157	1	6	0.158028	26.3675	29.724	-38.5962
 158	1	6	0.153129	22.8631	35.6734	-44.5463
 159	1	6	0.142914	24.3277	35.805	-42.5647
 160	1	6	0.135531	25.1497	31.5342	-42.8893
 161	1	6	0.17765	22.3204	29.5623	-50.167
 162	1	10	0.046541	24.0725	32.1292	-48.5143
 163	1	10	0.045238	24.2547	30.7561	-49.6102
 164	1	10	0.051941	24.6436	30.5637	-47.8967
 165	1	10	0.087961	18.9587	29.2148	-50.5559
 166	1	10	0.066782	19.3574	27.7183	-49.6799
 167	1	10	0.075908	20.4587	28.3482	-50.9057
 168	1	10	0.105172	18.9044	30.5294	-45.3459
 169	1	10	0.115625	19.6598	32.1117	-45.5289
 170	1	10	0.140296	20.4979	30.7939	-44.6828
 171	1	3	-0.004194	21.8298	34.3146	-27.2329
 172	1	3	-0.097141	20.5857	33.8825	-27.7673
 173	1	3	-0.172015	20.0265	32.6743	-27.2689
 174	1	5	-0.377994	24.4688	34.7282	-25.6587
 175	1	3	0.033493	22.4421	33.547	-26.2389
 176	1	3	-0.063739	20.6558	31.9202	-26.2576
 177	1	5	-0.398381	22.467	30.9094	-23.9424
 178	1	3	0.032144	21.8658	32.3928	-25.7512
 179	1	2	0.032313	23.7027	33.7935	-25.4986
 180	1	1	0.461698	23.7823	32.7588	-24.5714
 181	1	2	0.091945	22.7145	31.8676	-24.6552
 182	1	3	-0.10563	17.6522	33.4682	-31.8042
 183	1	7	-0.099376	19.761	34.7301	-28.7827
 184	1	3	-0.043296	19.22	33.8183	-29.9242
 185	1	3	-0.073043	18.0424	34.1639	-30.6461
 186	1	3	-0.117827	18.4397	32.3979	-32.2272
 187	1	3	-0.037562	19.9813	32.7089	-30.3803
 188	1	3	-0.083705	19.5604	32.0145	-31.5229
 189	1	7	0.396	20.615	35.8536	-29.4895
 190	1	7	0.310495	18.6051	35.4014	-27.941
 191	1	8	-0.130298	20.9675	36.853	-28.6495
 192	1	8	-0.128745	19.9514	36.4399	-30.5121
 193	1	8	-0.120019	21.7525	35.3528	-30.0208
 194	1	8	-0.104287	18.0037	36.4396	-28.5642
 195	1	8	-0.095507	19.0645	35.8918	-26.7666
 196	1	8	-0.104872	17.6346	34.5108	-27.6318
 197	1	2	0.456145	20.248	30.9536	-32.3072
 198	1	2	0.550902	18.3886	31.6175	-33.4895
 199	1	1	0.015704	19.5263	30.8267	-33.4873
 200	1	5	-0.456801	21.2722	30.3752	-32.0022
 201	1	5	-0.487703	17.5287	31.699	-34.3485
 202	1	3	-0.116566	19.9526	30.0504	-34.6079
 203	1	3	-0.050109	20.9677	30.5374	-35.4715
 204	1	3	0.154929	21.3638	29.7615	-36.5932
 205	1	3	0.041555	19.3341	28.8093	-34.8674
 206	1	3	-0.223109	19.7294	28.0597	-35.9852
 207	1	3	-0.080449	20.7352	28.5206	-36.8485
 208	1	7	-0.108008	18.233	28.2652	-33.9639
 209	1	7	-0.182228	21.1201	27.6527	-38.042
 210	1	7	-0.345523	21.5922	31.9175	-35.2148
 211	1	6	0.155183	22.3219	35.231	-27.5377
 212	1	6	0.172904	19.0754	32.3214	-27.6581
 213	1	6	0.158028	20.2107	31.0094	-25.863
 214	1	6	0.153129	16.8119	33.8043	-32.4002
 215	1	6	0.142914	17.4531	35.0298	-30.3708
 216	1	6	0.135531	20.9252	32.4345	-29.9171
 217	1	6	0.17765	19.2473	27.1057	-36.1836
 218	1	10	0.046541	17.9814	27.2271	-34.2133
 219	1	10	0.045238	17.315	28.8575	-34.064
 220	1	10	0.051941	18.5391	28.2793	-32.9104
 221	1	10	0.087961	21.2437	28.2454	-38.9551
 222	1	10	0.066782	20.3566	26.8937	-38.2546
 223	1	10	0.075908	22.063	27.1232	-37.8512
 224	1	10	0.105172	20.9605	32.7119	-35.6346
 225	1	10	0.115625	22.5914	32.0323	-35.6486
 226	1	10	0.140296	21.7229	32.1269	-34.1495
 227	1	3	-0.004194	19.5374	32.3955	-15.7369
 228	1	3	-0.097141	20.3327	33.5744	-15.7533
 229	1	3	-0.172015	20.0289	34.571	-16.7257
 230	1	5	-0.377994	17.6139	30.0555	-16.3345
 231	1	3	0.033493	18.5071	32.2626	-16.6769
 232	1	3	-0.063739	18.9751	34.4233	-17.6479
 233	1	5	-0.398381	16.6749	33.3942	-19.4383
 234	1	3	0.032144	18.2309	33.2454	-17.6022
 235	1	2	0.032313	17.6146	31.1096	-16.9471
 236	1	1	0.461698	16.8341	31.4827	-18.0489
 237	1	2	0.091945	17.1458	32.7735	-18.4968
 238	1	3	-0.10563	24.7007	35.2015	-16.7946
 239	1	7	-0.099376	21.5994	33.7746	-14.8626
 240	1	3	-0.043296	22.7719	33.965	-15.8641
 241	1	3	-0.073043	23.7291	35.0165	-15.7849
 242	1	3	-0.117827	24.7184	34.302	-17.8686
 243	1	3	-0.037562	22.8588	33.0571	-16.9498
 244	1	3	-0.083705	23.8375	33.2443	-17.9222
 245	1	7	0.396	21.3286	35.0107	-13.9127
 246	1	7	0.310495	21.9697	32.5298	-13.9657
 247	1	8	-0.130298	21.2303	36.1797	-14.5837
 248	1	8	-0.128745	22.2907	35.1989	-12.982
 249	1	8	-0.120019	20.1629	34.8651	-13.2428
 250	1	8	-0.104287	23.1408	32.7078	-13.3132
 251	1	8	-0.095507	22.1441	31.4076	-14.6925
 252	1	8	-0.104872	21.0311	32.2581	-13.0305
 253	1	2	0.456145	24.0559	32.5001	-19.1842
 254	1	2	0.550902	25.5161	34.291	-19.1263
 255	1	1	0.015704	25.0384	33.2099	-19.8605
 256	1	5	-0.456801	23.4111	31.5431	-19.5806
 257	1	5	-0.487703	26.332	35.1302	-19.4667
 258	1	3	-0.116566	25.4009	32.9189	-21.208
 259	1	3	-0.050109	24.45	33.0987	-22.2423
 260	1	3	0.154929	24.7722	32.6874	-23.5576
 261	1	3	0.041555	26.6782	32.3914	-21.4993
 262	1	3	-0.223109	27.0006	32.0495	-22.8221
 263	1	3	-0.080449	26.0578	32.1824	-23.8534
 264	1	7	-0.108008	27.7226	32.176	-20.4094
 265	1	7	-0.182228	26.4538	31.7833	-25.2711
 266	1	7	-0.345523	23.0706	33.7106	-21.9416
 267	1	6	0.155183	19.7296	31.5607	-15.0714
 268	1	6	0.172904	20.649	35.4593	-16.8082
 269	1	6	0.158028	18.7687	35.1779	-18.4033
 270	1	6	0.153129	25.3998	36.0348	-16.7582
 271	1	6	0.142914	23.7137	35.7237	-14.9625
 272	1	6	0.135531	22.1524	32.2394	-17.069
 273	1	6	0.17765	27.9897	31.6583	-23.0458
 274	1	10	0.046541	28.1427	33.1334	-20.0769
 275	1	10	0.045238	28.5566	31.5584	-20.7643
 276	1	10	0.051941	27.2944	31.6689	-19.5361
 277	1	10	0.087961	26.4702	32.657	-25.9358
 278	1	10	0.066782	25.758	31.0477	-25.6908
 279	1	10	0.075908	27.4547	31.3347	-25.3042
 280	1	10	0.105172	22.6812	34.3037	-22.7777
 281	1	10	0.115625	23.0919	34.4005	-21.0903
 282	1	10	0.140296	22.3366	32.9236	-21.7162
 283	1	1	0.48116	15.2904	32.433	-36.8824
 284	1	2	0.034009	14.8065	31.2047	-36.4306
 285	1	3	0.028921	14.4548	31.4256	-35.0091
 286	1	2	0.071556	15.2362	33.4281	-35.9047
 287	1	3	0.025276	14.6895	32.7491	-34.7017
 288	1	5	-0.381907	14.6729	30.1627	-37.0517
 289	1	5	-0.393799	15.5638	34.6015	-35.9862
 290	1	3	-0.008998	13.998	30.5123	-34.0551
 291	1	3	-0.064503	14.457	33.2414	-33.4173
 292	1	3	-0.16756	14.0312	32.3313	-32.4284
 293	1	3	-0.085161	13.7987	30.9576	-32.7213
 294	1	6	0.158939	13.8321	29.4883	-34.371
 295	1	6	0.163781	14.6298	34.2909	-33.1923
 296	1	6	0.161401	13.8778	32.7034	-31.4182
 297	1	7	-0.078003	13.3162	30.02	-31.5775
 298	1	7	0.303704	11.8185	30.4169	-31.269
 299	1	8	-0.1084	11.0726	30.446	-32.3966
 300	1	8	-0.101508	11.2019	29.5628	-30.4212
 301	1	8	-0.111714	11.7128	31.6499	-30.7239
 302	1	7	0.380371	13.3628	28.4824	-31.9409
 303	1	8	-0.124028	12.4486	28.1275	-32.8714
 304	1	8	-0.119704	13.1363	27.707	-30.856
 305	1	8	-0.115877	14.5713	28.1024	-32.4152
 306	1	3	-0.024709	14.2853	30.212	-30.3755
 307	1	3	-0.076489	13.8309	30.4005	-29.0434
 308	1	3	-0.052344	14.7733	30.4878	-28.0123
 309	1	3	-0.054202	15.6895	30.1337	-30.6049
 310	1	3	-0.149083	16.6212	30.1911	-29.5484
 311	1	3	-0.063027	16.1244	30.3614	-28.2522
 312	1	2	0.499526	16.828	30.3998	-26.9446
 313	1	1	-0.036881	15.8432	30.5992	-25.9859
 314	1	2	0.443545	14.5732	30.6539	-26.548
 315	1	3	0.038197	16.1171	30.6482	-24.59
 316	1	3	-0.408621	17.1923	31.4148	-24.0998
 317	1	3	0.252781	17.5746	31.3182	-22.7514
 318	1	3	-0.169778	15.3808	29.851	-23.6938
 319	1	3	-0.113042	15.748	29.7685	-22.3401
 320	1	3	0.016958	16.8721	30.4777	-21.8717
 321	1	6	0.167832	17.6913	30.0839	-29.7249
 322	1	6	0.134138	16.0654	29.9918	-31.6151
 323	1	6	0.145229	12.7794	30.4572	-28.7827
 324	1	5	-0.462312	13.5006	30.7822	-25.9834
 325	1	5	-0.483102	18.0206	30.2191	-26.7711
 326	1	6	0.144532	15.1843	29.1168	-21.6787
 327	1	6	0.226042	17.7852	32.03	-24.7687
 328	1	3	0.12103	16.6159	29.7546	-19.5736
 329	1	3	-0.09864	16.6039	28.3573	-19.4359
 330	1	3	-0.194398	15.8055	27.7613	-18.4496
 331	1	3	-0.091961	14.9982	28.5683	-17.6362
 332	1	3	-0.197799	15.0271	29.9647	-17.7838
 333	1	3	-0.102777	15.908	30.595	-18.6935
 334	1	6	0.132074	14.3504	28.1133	-16.8898
 335	1	6	0.154044	14.3861	30.5698	-17.1499
 336	1	6	0.145155	17.1948	27.7437	-20.1093
 337	1	6	0.14558	15.3825	31.367	-19.2443
 338	1	9	-0.24014	17.3455	30.3295	-20.5847
 339	1	6	0.152938	14.5441	29.2573	-24.0539
 340	1	6	0.151751	15.7873	26.6802	-18.3341
 341	1	3	-0.004194	24.4338	27.1632	-41.8732
 342	1	3	-0.097141	23.5912	27.0479	-43.0137
 343	1	3	-0.172015	24.2136	26.8424	-44.2808
 344	1	5	-0.377994	26.7314	27.0158	-39.7853
 345	1	3	0.033493	25.815	26.9763	-42.0197
 346	1	3	-0.063739	25.6045	26.6675	-44.4071
 347	1	5	-0.398381	28.5708	25.9902	-43.9367
 348	1	3	0.032144	26.3778	26.7072	-43.2484
 349	1	2	0.032313	26.8737	26.8386	-40.9849
 350	1	1	0.461698	28.0136	26.4062	-41.6748
 351	1	2	0.091945	27.8033	26.3505	-43.0576
 352	1	3	-0.10563	21.7429	30.8053	-41.9629
 353	1	7	-0.099376	22.0371	27.0212	-42.8222
 354	1	3	-0.043296	21.5436	28.3468	-42.1764
 355	1	3	-0.073043	22.2756	29.5555	-42.3446
 356	1	3	-0.117827	20.4646	30.8325	-41.4012
 357	1	3	-0.037562	20.2647	28.4206	-41.5675
 358	1	3	-0.083705	19.7595	29.6686	-41.1955
 359	1	7	0.396	21.721	25.751	-41.9306
 360	1	7	0.310495	21.2417	26.895	-44.181
 361	1	8	-0.130298	20.4287	25.3571	-41.9448
 362	1	8	-0.128745	22.0268	25.9634	-40.6323
 363	1	8	-0.120019	22.4402	24.6763	-42.3285
 364	1	8	-0.104287	21.5239	27.9204	-45.0172
 365	1	8	-0.095507	19.9031	26.9385	-44.0003
 366	1	8	-0.104872	21.4958	25.736	-44.8312
 367	1	2	0.456145	18.4317	30.0203	-40.6404
 368	1	2	0.550902	19.6074	31.978	-40.9831
 369	1	1	0.015704	18.4185	31.4061	-40.5383
 370	1	5	-0.456801	17.54	29.2322	-40.3791
 371	1	5	-0.487703	19.8882	33.1589	-41.1088
 372	1	3	-0.116566	17.2904	32.1272	-40.0436
 373	1	3	-0.050109	16.9411	32.0501	-38.6716
 374	1	3	0.154929	15.7306	32.6386	-38.2224
 375	1	3	0.041555	16.4608	32.8285	-40.9467
 376	1	3	-0.223109	15.2978	33.4563	-40.4756
 377	1	3	-0.080449	14.9141	33.3553	-39.1292
 378	1	7	-0.108008	16.7718	32.8921	-42.4387
 379	1	7	-0.182228	13.6034	34.0065	-38.6956
 380	1	7	-0.345523	17.8461	31.3212	-37.6686
 381	1	6	0.155183	24.0297	27.317	-40.8771
 382	1	6	0.172904	23.6373	26.7638	-45.1955
 383	1	6	0.158028	26.0619	26.4443	-45.3685
 384	1	6	0.153129	22.2837	31.731	-42.1321
 385	1	6	0.142914	23.2473	29.5401	-42.826
 386	1	6	0.135531	19.6287	27.5502	-41.4444
 387	1	6	0.17765	14.6662	33.9972	-41.175
 388	1	10	0.046541	17.6689	33.4933	-42.63
 389	1	10	0.045238	15.9494	33.3462	-43.0052
 390	1	10	0.051941	16.9345	31.8899	-42.854
 391	1	10	0.087961	13.789	34.8642	-38.0357
 392	1	10	0.066782	12.9576	33.2974	-38.1627
 393	1	10	0.075908	13.0312	34.3792	-39.5543
 394	1	10	0.105172	17.3866	30.3886	-37.3153
 395	1	10	0.115625	18.0499	31.9541	-36.7981
 396	1	10	0.140296	18.8288	31.0558	-38.0656
 397	1	1	0.48116	24.6572	32.2479	-31.6753
 398	1	2	0.034009	25.9816	32.6567	-31.8303
 399	1	3	0.028921	25.8985	34.0516	-32.3358
 400	1	2	0.071556	23.7437	33.2478	-32.0067
 401	1	3	0.025276	24.569	34.4	-32.4341
 402	1	5	-0.381907	27.001	32.0159	-31.6356
 403	1	5	-0.393799	22.5258	33.2082	-31.9919
 404	1	3	-0.008998	26.9129	34.927	-32.7358
 405	1	3	-0.064503	24.1772	35.6498	-32.9139
 406	1	3	-0.16756	25.1832	36.5465	-33.327
 407	1	3	-0.085161	26.5648	36.1981	-33.2708
 408	1	6	0.158939	27.9465	34.5959	-32.6758
 409	1	6	0.163781	23.1218	35.9056	-32.9838
 410	1	6	0.161401	24.8548	37.5069	-33.7095
 411	1	7	-0.078003	27.7025	37.1261	-33.8057
 412	1	7	0.303704	28.4968	37.6329	-32.5394
 413	1	8	-0.1084	29.324	38.672	-32.7906
 414	1	8	-0.101508	29.2574	36.6538	-31.9998
 415	1	8	-0.111714	27.6545	38.0462	-31.5655
 416	1	7	0.380371	27.182	38.3648	-34.6285
 417	1	8	-0.124028	26.508	39.2562	-33.8667
 418	1	8	-0.119704	26.3651	37.9832	-35.6369
 419	1	8	-0.115877	28.1922	39.0449	-35.217
 420	1	3	-0.024709	28.5795	36.2951	-34.7868
 421	1	3	-0.076489	27.9721	35.2804	-35.5709
 422	1	3	-0.052344	28.7714	34.4879	-36.3971
 423	1	3	-0.054202	29.9753	36.5269	-34.9538
 424	1	3	-0.149083	30.7575	35.7384	-35.8248
 425	1	3	-0.063027	30.1247	34.7055	-36.5251
 426	1	2	0.499526	30.6743	33.6621	-37.4332
 427	1	1	-0.036881	29.5967	32.8481	-37.7654
 428	1	2	0.443545	28.4102	33.2911	-37.1937
 429	1	3	0.038197	29.7045	31.6594	-38.5394
 430	1	3	-0.408621	29.1104	30.4672	-38.0859
 431	1	3	0.252781	29.2088	29.2908	-38.8425
 432	1	3	-0.169778	30.4048	31.6549	-39.761
 433	1	3	-0.113042	30.5064	30.4772	-40.5218
 434	1	3	0.016958	29.9156	29.2921	-40.0587
 435	1	6	0.167832	31.8276	35.9065	-35.9325
 436	1	6	0.134138	30.4762	37.3168	-34.4054
 437	1	6	0.145229	26.9058	35.0745	-35.5212
 438	1	5	-0.462312	27.3084	32.7701	-37.2324
 439	1	5	-0.483102	31.8421	33.5381	-37.7602
 440	1	6	0.144532	31.0538	30.4761	-41.4611
 441	1	6	0.226042	28.5633	30.4417	-37.1469
 442	1	3	0.12103	29.9162	26.8806	-40.292
 443	1	3	-0.09864	30.6369	26.5333	-39.1335
 444	1	3	-0.194398	30.535	25.2401	-38.6016
 445	1	3	-0.091961	29.7044	24.3023	-39.2278
 446	1	3	-0.197799	29.0176	24.6504	-40.4019
 447	1	3	-0.102777	29.1884	25.9153	-41.0151
 448	1	6	0.132074	29.5839	23.31	-38.798
 449	1	6	0.154044	28.3604	23.9121	-40.859
 450	1	6	0.145155	31.265	27.2716	-38.6427
 451	1	6	0.14558	29.789	25.7373	-41.8996
 452	1	9	-0.24014	30.0308	28.1489	-40.8163
 453	1	6	0.152938	30.8809	32.5648	-40.1203
 454	1	6	0.151751	31.0743	24.9746	-37.6953
 455	1	3	-0.004194	19.9521	26.7313	-20.7579
 456	1	3	-0.097141	20.1206	27.5131	-21.9315
 457	1	3	-0.172015	20.4325	28.8939	-21.7731
 458	1	5	-0.377994	19.814	25.5466	-17.9235
 459	1	3	0.033493	20.125	27.3314	-19.507
 460	1	3	-0.063739	20.61	29.4777	-20.4984
 461	1	5	-0.398381	20.8837	30.0549	-17.4405
 462	1	3	0.032144	20.4455	28.6647	-19.3727
 463	1	2	0.032313	20.0648	26.7187	-18.1591
 464	1	1	0.461698	20.3925	27.7487	-17.2663
 465	1	2	0.091945	20.6032	28.968	-17.9238
 466	1	3	-0.10563	23.3702	28.0146	-24.7691
 467	1	7	-0.099376	19.9226	26.9189	-23.3617
 468	1	3	-0.043296	20.9815	27.5325	-24.3296
 469	1	3	-0.073043	22.3413	27.5736	-23.9136
 470	1	3	-0.117827	23.0186	28.4258	-26.0583
 471	1	3	-0.037562	20.6693	27.9745	-25.6462
 472	1	3	-0.083705	21.7046	28.4213	-26.4779
 473	1	7	0.396	18.4416	27.2477	-23.7763
 474	1	7	0.310495	20.1371	25.3562	-23.4233
 475	1	8	-0.130298	18.0363	26.5963	-24.8902
 476	1	8	-0.128745	18.2944	28.565	-24.008
 477	1	8	-0.120019	17.5592	26.929	-22.8012
 478	1	8	-0.104287	20.2461	24.9178	-24.6989
 479	1	8	-0.095507	19.1271	24.65	-22.8664
 480	1	8	-0.104872	21.2762	24.9809	-22.7984
 481	1	2	0.456145	21.669	28.8773	-27.8953
 482	1	2	0.550902	23.8693	28.8643	-27.1949
 483	1	1	0.015704	22.9971	29.086	-28.2531
 484	1	5	-0.456801	20.6727	29.0134	-28.586
 485	1	5	-0.487703	25.0834	28.9758	-27.1837
 486	1	3	-0.116566	23.4314	29.3864	-29.58
 487	1	3	-0.050109	23.8445	30.6924	-29.9463
 488	1	3	0.154929	24.2739	30.9387	-31.2757
 489	1	3	0.041555	23.4648	28.3419	-30.5322
 490	1	3	-0.223109	23.9025	28.6019	-31.839
 491	1	3	-0.080449	24.3009	29.8901	-32.2237
 492	1	7	-0.108008	23.0317	26.9225	-30.1795
 493	1	7	-0.182228	24.7214	30.1211	-33.6721
 494	1	7	-0.345523	23.8453	31.8364	-28.9262
 495	1	6	0.155183	19.7012	25.6775	-20.784
 496	1	6	0.172904	20.5563	29.5268	-22.6498
 497	1	6	0.158028	20.8833	30.5247	-20.3857
 498	1	6	0.153129	24.4074	28.026	-24.4417
 499	1	6	0.142914	22.6098	27.2419	-22.914
 500	1	6	0.135531	19.6622	27.9555	-26.0495
 501	1	6	0.17765	23.9081	27.7977	-32.5694
 502	1	10	0.046541	23.2547	26.2173	-30.9896
 503	1	10	0.045238	21.951	26.8762	-29.9966
 504	1	10	0.051941	23.5481	26.5585	-29.283
 505	1	10	0.087961	24.4864	29.2537	-34.3018
 506	1	10	0.066782	25.8018	30.2971	-33.7484
 507	1	10	0.075908	24.2023	30.9806	-34.1108
 508	1	10	0.105172	23.3144	32.7183	-29.3046
 509	1	10	0.115625	24.8721	32.1369	-28.6783
 510	1	10	0.140296	23.3553	31.5707	-27.9881
 511	1	1	0.48116	28.0036	27.7632	-2.68374
 512	1	2	0.034009	29.1332	27.0643	-3.12504
 513	1	3	0.028921	28.9062	26.8275	-4.57008
 514	1	2	0.071556	27.1322	28.0825	-3.73346
 515	1	3	0.025276	27.7145	27.4229	-4.92602
 516	1	5	-0.381907	30.0755	26.6433	-2.47311
 517	1	5	-0.393799	26.0784	28.7006	-3.69623
 518	1	3	-0.008998	29.6464	26.0538	-5.47082
 519	1	3	-0.064503	27.1764	27.2539	-6.20008
 520	1	3	-0.16756	27.896	26.4665	-7.11885
 521	1	3	-0.085161	29.1502	25.8762	-6.78848
 522	1	6	0.158939	30.5582	25.5822	-5.12025
 523	1	6	0.163781	26.2032	27.6711	-6.44881
 524	1	6	0.161401	27.4451	26.2921	-8.09324
 525	1	7	-0.078003	29.8749	24.9886	-7.84283
 526	1	7	0.303704	31.4298	24.8696	-7.61398
 527	1	8	-0.1084	31.9953	26.0741	-7.37503
 528	1	8	-0.101508	32.0496	24.3646	-8.70493
 529	1	8	-0.111714	31.7649	24.0679	-6.57844
 530	1	7	0.380371	29.215	23.5603	-7.72971
 531	1	8	-0.124028	29.2281	23.0986	-6.45815
 532	1	8	-0.119704	27.9128	23.5758	-8.09621
 533	1	8	-0.115877	29.8392	22.6299	-8.48701
 534	1	3	-0.024709	29.6789	25.6645	-9.23224
 535	1	3	-0.076489	29.1625	24.973	-10.3593
 536	1	3	-0.052344	28.8048	25.707	-11.4952
 537	1	3	-0.054202	29.9185	27.0633	-9.35123
 538	1	3	-0.149083	29.554	27.7827	-10.5058
 539	1	3	-0.063027	28.9657	27.0735	-11.5568
 540	1	2	0.499526	28.2374	27.5742	-12.7503
 541	1	1	-0.036881	27.6161	26.4576	-13.3057
 542	1	2	0.443545	27.9932	25.2808	-12.6622
 543	1	3	0.038197	26.5133	26.5544	-14.2074
 544	1	3	-0.408621	26.5064	27.4991	-15.2537
 545	1	3	0.252781	25.3289	27.7542	-15.9778
 546	1	3	-0.169778	25.3417	25.8102	-13.9576
 547	1	3	-0.113042	24.1724	26.0427	-14.6949
 548	1	3	0.016958	24.1545	27.0447	-15.6763
 549	1	6	0.167832	29.6447	28.8666	-10.5476
 550	1	6	0.134138	30.3059	27.6199	-8.50164
 551	1	6	0.145229	28.9394	23.9115	-10.3477
 552	1	5	-0.462312	27.6073	24.1437	-12.8735
 553	1	5	-0.483102	28.0666	28.7509	-13.0225
 554	1	6	0.144532	23.2623	25.498	-14.4595
 555	1	6	0.226042	27.3814	28.1114	-15.4517
 556	1	3	0.12103	21.895	27.8421	-15.4182
 557	1	3	-0.09864	22.1365	28.4449	-14.1667
 558	1	3	-0.194398	21.0668	28.849	-13.3569
 559	1	3	-0.091961	19.7565	28.6682	-13.8115
 560	1	3	-0.197799	19.5217	28.0475	-15.0485
 561	1	3	-0.102777	20.5812	27.5709	-15.8541
 562	1	6	0.132074	18.9237	29.021	-13.2123
 563	1	6	0.154044	18.4929	27.9119	-15.3818
 564	1	6	0.145155	23.1544	28.6244	-13.8319
 565	1	6	0.14558	20.4958	26.4917	-15.8512
 566	1	9	-0.24014	22.9519	27.4383	-16.2137
 567	1	6	0.152938	25.3091	25.0816	-13.1514
 568	1	6	0.151751	21.2564	29.3276	-12.3992
 569	1	1	0.48116	15.6728	28.424	-12.5997
 570	1	2	0.034009	16.3796	27.281	-12.9874
 571	1	3	0.028921	17.3829	27.0524	-11.9098
 572	1	2	0.071556	16.1195	28.9345	-11.38
 573	1	3	0.025276	17.2467	28.0598	-10.9786
 574	1	5	-0.381907	16.2496	26.6196	-14.0042
 575	1	5	-0.393799	15.6977	29.8924	-10.7529
 576	1	3	-0.008998	18.3709	26.0657	-11.7797
 577	1	3	-0.064503	18.1324	28.1845	-9.9082
 578	1	3	-0.16756	19.1543	27.2234	-9.77872
 579	1	3	-0.085161	19.2652	26.1191	-10.6724
 580	1	6	0.158939	18.44	25.3	-12.5457
 581	1	6	0.163781	18.0412	29.0173	-9.21409
 582	1	6	0.161401	19.8638	27.351	-8.96506
 583	1	7	-0.078003	20.3954	25.0592	-10.4743
 584	1	7	0.303704	19.9163	23.6001	-10.8461
 585	1	8	-0.1084	20.7586	22.6629	-10.3541
 586	1	8	-0.101508	19.8316	23.369	-12.1747
 587	1	8	-0.111714	18.6942	23.3295	-10.335
 588	1	7	0.380371	21.5767	25.4801	-11.4299
 589	1	8	-0.124028	21.1722	25.6393	-12.71
 590	1	8	-0.119704	22.5766	24.5701	-11.4614
 591	1	8	-0.115877	22.1101	26.667	-11.0599
 592	1	3	-0.024709	20.8101	25.0071	-8.96387
 593	1	3	-0.076489	22.1565	25.1213	-8.51532
 594	1	3	-0.052344	22.4281	25.0792	-7.13982
 595	1	3	-0.054202	19.7979	24.8252	-7.97668
 596	1	3	-0.149083	20.0923	24.7841	-6.59783
 597	1	3	-0.063027	21.428	24.9193	-6.20726
 598	1	2	0.499526	22.0445	24.9405	-4.85244
 599	1	1	-0.036881	23.4095	25.1251	-5.05547
 600	1	2	0.443545	23.72	25.2072	-6.41105
 601	1	3	0.038197	24.3637	25.236	-3.99681
 602	1	3	-0.408621	25.5943	24.5525	-4.05851
 603	1	3	0.252781	26.5275	24.6634	-3.01326
 604	1	3	-0.169778	24.0844	26.0232	-2.86063
 605	1	3	-0.113042	25.0164	26.1402	-1.8147
 606	1	3	0.016958	26.2502	25.4763	-1.89984
 607	1	6	0.167832	19.3076	24.6571	-5.85335
 608	1	6	0.134138	18.7581	24.737	-8.2808
 609	1	6	0.145229	22.9944	25.2485	-9.19163
 610	1	5	-0.462312	24.8081	25.3867	-6.93163
 611	1	5	-0.483102	21.4427	24.8366	-3.79751
 612	1	6	0.144532	24.788	26.7535	-0.947408
 613	1	6	0.226042	25.8457	23.942	-4.92134
 614	1	3	0.12103	27.7404	26.8457	-0.490936
 615	1	3	-0.09864	28.3323	26.8555	0.782253
 616	1	3	-0.194398	28.9357	28.0194	1.27998
 617	1	3	-0.091961	28.9712	29.1721	0.486063
 618	1	3	-0.197799	28.3985	29.1567	-0.795122
 619	1	3	-0.102777	27.7346	28.013	-1.29848
 620	1	6	0.132074	29.4604	30.0713	0.854333
 621	1	6	0.154044	28.4593	30.0568	-1.40525
 622	1	6	0.145155	28.3313	25.9462	1.37651
 623	1	6	0.14558	26.6964	28.2914	-1.42264
 624	1	9	-0.24014	27.2055	25.6393	-0.917614
 625	1	6	0.152938	23.1394	26.5555	-2.78388
 626	1	6	0.151751	29.3956	28.0193	2.26524
 627	1	3	-0.004194	4.4935	23.4911	-16.0354
 628	1	3	-0.097141	5.01045	24.7917	-15.7828
 629	1	3	-0.172015	4.59865	25.8495	-16.643
 630	1	5	-0.377994	3.10369	20.9512	-17.0808
 631	1	3	0.033493	3.60962	23.3032	-17.1013
 632	1	3	-0.063739	3.69466	25.6377	-17.7075
 633	1	5	-0.398381	1.69671	24.4753	-19.7817
 634	1	3	0.032144	3.20804	24.343	-17.9084
 635	1	2	0.032313	2.93883	22.0631	-17.5572
 636	1	1	0.461698	2.12689	22.4473	-18.6335
 637	1	2	0.091945	2.2425	23.8176	-18.9093
 638	1	3	-0.10563	8.9935	26.1728	-16.7214
 639	1	7	-0.099376	5.93476	25.1132	-14.5638
 640	1	3	-0.043296	7.19531	25.8943	-15.0407
 641	1	3	-0.073043	7.76748	25.6078	-16.3126
 642	1	3	-0.117827	9.65519	27.0223	-15.8288
 643	1	3	-0.037562	7.89168	26.784	-14.1778
 644	1	3	-0.083705	9.1122	27.3271	-14.5983
 645	1	7	0.396	6.4863	23.8218	-13.8426