

################################################################################
##################################    Init    ##################################
################################################################################
units           real
atom_style      full
pair_style      lj/cut/coul/long 12.0  12.0
kspace_style    pppm 1e-4
bond_style      harmonic
angle_style     harmonic
dihedral_style  fourier
improper_style  cvff
special_bonds   amber
pair_modify     mix arithmetic
read_data       temp.lmps
  orthogonal box = (-108.105 -108.105 -108.105) to (108.105 108.105 108.105)
  2 by 2 by 4 MPI processor grid
  reading atoms ...
  574 atoms
  reading velocities ...
  574 velocities
  scanning bonds ...
  3 = max bonds/atom
  scanning angles ...
  6 = max angles/atom
  scanning dihedrals ...
  24 = max dihedrals/atom
  scanning impropers ...
  2 = max impropers/atom
  reading bonds ...
  630 bonds
  reading angles ...
  1089 angles
  reading dihedrals ...
  1670 dihedrals
  reading impropers ...
  188 impropers
  4 = max # of 1-2 neighbors
  10 = max # of 1-3 neighbors
  20 = max # of 1-4 neighbors
  22 = max # of special neighbors
  special bonds CPU = 0.000897169 secs
  read_data CPU = 0.0187809 secs
################################################################################

min_style cg
minimize 1e-05 1e-05 10000 100000
WARNING: Using 'neigh_modify every 1 delay 0 check yes' setting during minimization (../min.cpp:190)
PPPM initialization ...
WARNING: System is not charge neutral, net charge = 1.8e-05 (../kspace.cpp:313)
  using 12-bit tables for long-range coulomb (../kspace.cpp:332)
  G vector (1/distance) = 0.0813258
  grid = 15 15 15
  stencil order = 5
  estimated absolute RMS force accuracy = 0.0352645
  estimated relative force accuracy = 0.000106198
  using double precision KISS FFT
  3d grid and FFT values/proc = 1521 256
Neighbor list info ...
  update every 1 steps, delay 0 steps, check yes
  max neighbors/atom: 2000, page size: 100000
  master list distance cutoff = 14
  ghost atom cutoff = 14
  binsize = 7, bins = 31 31 31
  1 neighbor lists, perpetual/occasional/extra = 1 0 0
  (1) pair lj/cut/coul/long, perpetual
      attributes: half, newton on
      pair build: half/bin/newton
      stencil: half/bin/3d/newton
      bin: standard
Per MPI rank memory allocation (min/avg/max) = 18.8 | 19.04 | 19.61 Mbytes
Step Temp E_pair E_mol TotEng Press 
       0    2156.8387    195.12654    1148.1789     5027.195    16.534264 
      53    2156.8387    173.88244    1052.3586    4910.1305    14.875176 
Loop time of 0.312482 on 16 procs for 53 steps with 574 atoms

94.5% CPU use with 16 MPI tasks x no OpenMP threads

Minimization stats:
  Stopping criterion = linesearch alpha is zero
  Energy initial, next-to-last, final = 
         1343.30548842       1226.2410244       1226.2410244
  Force two-norm initial, final = 81.2954 62.8834
  Force max component initial, final = 10.0804 8.30957
  Final line search alpha, max atom move = 2.21207e-12 1.83814e-11
  Iterations, force evaluations = 53 165

MPI task timing breakdown:
Section |  min time  |  avg time  |  max time  |%varavg| %total
---------------------------------------------------------------
Pair    | 2.5749e-05 | 0.031527   | 0.18649    |  31.6 | 10.09
Bond    | 4.3869e-05 | 0.0061024  | 0.031329   |  12.4 |  1.95
Kspace  | 0.085685   | 0.26693    | 0.30563    |  12.8 | 85.42
Neigh   | 0.001087   | 0.0011275  | 0.001163   |   0.1 |  0.36
Comm    | 0.00014377 | 0.0023659  | 0.0051596  |   4.5 |  0.76
Output  | 0          | 0          | 0          |   0.0 |  0.00
Modify  | 0          | 0          | 0          |   0.0 |  0.00
Other   |            | 0.004433   |            |       |  1.42

Nlocal:    35.875 ave 186 max 0 min
Histogram: 11 0 1 0 2 0 0 0 1 1
Nghost:    160.75 ave 415 max 0 min
Histogram: 8 0 0 0 0 1 2 2 1 2
Neighs:    2434.69 ave 15338 max 0 min
Histogram: 11 2 0 1 0 0 0 1 0 1

Total # of neighbors = 38955
Ave neighs/atom = 67.8659
Ave special neighs/atom = 11.0732
Neighbor list builds = 1
Dangerous builds = 0
timestep        1
fix             pysimm_md all nvt temp 300 300 100
run             5000
PPPM initialization ...
  using 12-bit tables for long-range coulomb (../kspace.cpp:332)
  G vector (1/distance) = 0.0813258
  grid = 15 15 15
  stencil order = 5
  estimated absolute RMS force accuracy = 0.0352645
  estimated relative force accuracy = 0.000106198
  using double precision KISS FFT
  3d grid and FFT values/proc = 1521 256
Per MPI rank memory allocation (min/avg/max) = 17.68 | 17.91 | 18.48 Mbytes
Step Temp E_pair E_mol TotEng Press 
      53    2156.8387    173.88244    1052.3586    4910.1305    14.875176 
    5053     304.7727    197.23171    1298.1957    2015.9805    1.8135957 
Loop time of 3.55234 on 16 procs for 5000 steps with 574 atoms

Performance: 121.610 ns/day, 0.197 hours/ns, 1407.524 timesteps/s
94.9% CPU use with 16 MPI tasks x no OpenMP threads

MPI task timing breakdown:
Section |  min time  |  avg time  |  max time  |%varavg| %total
---------------------------------------------------------------
Pair    | 0.00042963 | 0.29287    | 1.652      |  85.7 |  8.24
Bond    | 0.00087333 | 0.086946   | 0.35918    |  40.9 |  2.45
Kspace  | 1.3205     | 2.7391     | 3.0727     |  29.8 | 77.11
Neigh   | 0.066766   | 0.068497   | 0.070667   |   0.5 |  1.93
Comm    | 0.0077367  | 0.13379    | 0.38772    |  39.0 |  3.77
Output  | 2.1935e-05 | 2.2724e-05 | 2.6941e-05 |   0.0 |  0.00
Modify  | 0.026831   | 0.21542    | 0.39714    |  38.0 |  6.06
Other   |            | 0.01574    |            |       |  0.44

Nlocal:    35.875 ave 189 max 0 min
Histogram: 10 1 1 0 1 2 0 0 0 1
Nghost:    174 ave 490 max 0 min
Histogram: 8 0 0 0 0 2 2 2 1 1
Neighs:    2725.69 ave 21110 max 0 min
Histogram: 11 1 2 1 0 0 0 0 0 1

Total # of neighbors = 43611
Ave neighs/atom = 75.9774
Ave special neighs/atom = 11.0732
Neighbor list builds = 137
Dangerous builds = 0
unfix pysimm_md
write_dump all custom pysimm.dump.tmp id q x y z vx vy vz
quit


################################################################################
##################################    Init    ##################################
################################################################################
units           real
atom_style      full
pair_style      lj/cut/coul/long 12.0  12.0
kspace_style    pppm 1e-4
bond_style      harmonic
angle_style     harmonic
dihedral_style  fourier
improper_style  cvff
special_bonds   amber
pair_modify     mix arithmetic
read_data       temp.lmps
  orthogonal box = (-108.449 -108.449 -108.449) to (108.449 108.449 108.449)
  2 by 2 by 4 MPI processor grid
  reading atoms ...
  624 atoms
  reading velocities ...
  624 velocities
  scanning bonds ...
  3 = max bonds/atom
  scanning angles ...
  6 = max angles/atom
  scanning dihedrals ...
  24 = max dihedrals/atom
  scanning impropers ...
  2 = max impropers/atom
  reading bonds ...
  682 bonds
  reading angles ...
  1192 angles
  reading dihedrals ...
  1796 dihedrals
  reading impropers ...
  192 impropers
  4 = max # of 1-2 neighbors
  10 = max # of 1-3 neighbors
  20 = max # of 1-4 neighbors
  22 = max # of special neighbors
  special bonds CPU = 0.000861883 secs
  read_data CPU = 0.0194669 secs
################################################################################

min_style cg
minimize 1e-05 1e-05 10000 100000
WARNING: Using 'neigh_modify every 1 delay 0 check yes' setting during minimization (../min.cpp:190)
PPPM initialization ...
  using 12-bit tables for long-range coulomb (../kspace.cpp:332)
  G vector (1/distance) = 0.0811231
  grid = 15 15 15
  stencil order = 5
  estimated absolute RMS force accuracy = 0.0361364
  estimated relative force accuracy = 0.000108824
  using double precision KISS FFT
  3d grid and FFT values/proc = 1521 256
Neighbor list info ...
  update every 1 steps, delay 0 steps, check yes
  max neighbors/atom: 2000, page size: 100000
  master list distance cutoff = 14
  ghost atom cutoff = 14
  binsize = 7, bins = 31 31 31
  1 neighbor lists, perpetual/occasional/extra = 1 0 0
  (1) pair lj/cut/coul/long, perpetual
      attributes: half, newton on
      pair build: half/bin/newton
      stencil: half/bin/3d/newton
      bin: standard
Per MPI rank memory allocation (min/avg/max) = 18.8 | 19.09 | 19.62 Mbytes
Step Temp E_pair E_mol TotEng Press 
       0    1986.0798    225.97192    1084.7188    4998.9297    17.379371 
      44    1986.0798    205.64127    999.56468    4893.4449    16.027921 
Loop time of 0.278205 on 16 procs for 44 steps with 624 atoms

94.9% CPU use with 16 MPI tasks x no OpenMP threads

Minimization stats:
  Stopping criterion = linesearch alpha is zero
  Energy initial, next-to-last, final = 
          1310.6907416      1205.20595268      1205.20595268
  Force two-norm initial, final = 75.8994 47.2659
  Force max component initial, final = 10.5561 4.92321
  Final line search alpha, max atom move = 3.39389e-12 1.67088e-11
  Iterations, force evaluations = 44 201

MPI task timing breakdown:
Section |  min time  |  avg time  |  max time  |%varavg| %total
---------------------------------------------------------------
Pair    | 2.4796e-05 | 0.039122   | 0.14834    |  24.9 | 14.06
Bond    | 7.5102e-05 | 0.0080884  | 0.027851   |  11.0 |  2.91
Kspace  | 0.090607   | 0.22097    | 0.2697     |  12.8 | 79.43
Neigh   | 0.001519   | 0.0015968  | 0.0016718  |   0.1 |  0.57
Comm    | 0.00020623 | 0.0034257  | 0.0073261  |   5.4 |  1.23
Output  | 0          | 0          | 0          |   0.0 |  0.00
Modify  | 0          | 0          | 0          |   0.0 |  0.00
Other   |            | 0.004998   |            |       |  1.80

Nlocal:    39 ave 143 max 0 min
Histogram: 8 0 3 0 1 0 1 1 1 1
Nghost:    194.125 ave 431 max 0 min
Histogram: 8 0 0 0 0 0 0 1 2 5
Neighs:    2518.5 ave 10021 max 0 min
Histogram: 8 2 1 0 1 1 1 1 0 1

Total # of neighbors = 40296
Ave neighs/atom = 64.5769
Ave special neighs/atom = 11.0545
Neighbor list builds = 2
Dangerous builds = 0
timestep        1
fix             pysimm_md all nvt temp 300 300 100
run             5000
PPPM initialization ...
  using 12-bit tables for long-range coulomb (../kspace.cpp:332)
  G vector (1/distance) = 0.0811231
  grid = 15 15 15
  stencil order = 5
  estimated absolute RMS force accuracy = 0.0361364
  estimated relative force accuracy = 0.000108824
  using double precision KISS FFT
  3d grid and FFT values/proc = 1521 256
Per MPI rank memory allocation (min/avg/max) = 17.68 | 17.96 | 18.5 Mbytes
Step Temp E_pair E_mol TotEng Press 
      44    1986.0798    205.64127    999.56468    4893.4449    16.027921 
    5044    287.20691    228.50581    1313.2375    2075.0994   -1.3509306 
Loop time of 3.3562 on 16 procs for 5000 steps with 624 atoms

Performance: 128.717 ns/day, 0.186 hours/ns, 1489.781 timesteps/s
95.1% CPU use with 16 MPI tasks x no OpenMP threads

MPI task timing breakdown:
Section |  min time  |  avg time  |  max time  |%varavg| %total
---------------------------------------------------------------
Pair    | 0.00048876 | 0.38118    | 1.5847     |  90.0 | 11.36
Bond    | 0.00082254 | 0.09179    | 0.34858    |  43.0 |  2.73
Kspace  | 1.1901     | 2.4513     | 2.8703     |  37.6 | 73.04
Neigh   | 0.075548   | 0.078471   | 0.08159    |   0.7 |  2.34
Comm    | 0.0065041  | 0.1274     | 0.39504    |  40.1 |  3.80
Output  | 2.2888e-05 | 2.3738e-05 | 2.8849e-05 |   0.0 |  0.00
Modify  | 0.028827   | 0.20981    | 0.38613    |  37.9 |  6.25
Other   |            | 0.01621    |            |       |  0.48

Nlocal:    39 ave 204 max 0 min
Histogram: 10 1 0 2 1 0 1 0 0 1
Nghost:    176.875 ave 421 max 0 min
Histogram: 8 0 0 0 0 0 1 2 3 2
Neighs:    2949.06 ave 12650 max 0 min
Histogram: 10 1 0 0 1 0 2 0 1 1

Total # of neighbors = 47185
Ave neighs/atom = 75.617
Ave special neighs/atom = 11.0545
Neighbor list builds = 160
Dangerous builds = 0
unfix pysimm_md
write_dump all custom pysimm.dump.tmp id q x y z vx vy vz
quit


################################################################################
##################################    Init    ##################################
################################################################################
units           real
atom_style      full
pair_style      lj/cut/coul/long 12.0  12.0
kspace_style    pppm 1e-4
bond_style      harmonic
angle_style     harmonic
dihedral_style  fourier
improper_style  cvff
special_bonds   amber
pair_modify     mix arithmetic
read_data       temp.lmps
  orthogonal box = (-111.64 -111.64 -111.64) to (111.64 111.64 111.64)
  2 by 2 by 4 MPI processor grid
  reading atoms ...
  684 atoms
  reading velocities ...
  684 velocities
  scanning bonds ...
  3 = max bonds/atom
  scanning angles ...
  6 = max angles/atom
  scanning dihedrals ...
  24 = max dihedrals/atom
  scanning impropers ...
  2 = max impropers/atom
  reading bonds ...
  749 bonds
  reading angles ...
  1304 angles
  reading dihedrals ...
  1980 dihedrals
  reading impropers ...
  216 impropers
  4 = max # of 1-2 neighbors
  10 = max # of 1-3 neighbors
  20 = max # of 1-4 neighbors
  22 = max # of special neighbors
  special bonds CPU = 0.000845909 secs
  read_data CPU = 0.023952 secs
################################################################################

min_style cg
minimize 1e-05 1e-05 10000 100000
WARNING: Using 'neigh_modify every 1 delay 0 check yes' setting during minimization (../min.cpp:190)
PPPM initialization ...
WARNING: System is not charge neutral, net charge = 1.2e-05 (../kspace.cpp:313)
  using 12-bit tables for long-range coulomb (../kspace.cpp:332)
  G vector (1/distance) = 0.0833955
  grid = 16 16 16
  stencil order = 5
  estimated absolute RMS force accuracy = 0.0345706
  estimated relative force accuracy = 0.000104108
  using double precision KISS FFT
  3d grid and FFT values/proc = 1521 256
Neighbor list info ...
  update every 1 steps, delay 0 steps, check yes
  max neighbors/atom: 2000, page size: 100000
  master list distance cutoff = 14
  ghost atom cutoff = 14
  binsize = 7, bins = 32 32 32
  1 neighbor lists, perpetual/occasional/extra = 1 0 0
  (1) pair lj/cut/coul/long, perpetual
      attributes: half, newton on
      pair build: half/bin/newton
      stencil: half/bin/3d/newton
      bin: standard
Per MPI rank memory allocation (min/avg/max) = 18.81 | 19.09 | 19.62 Mbytes
Step Temp E_pair E_mol TotEng Press 
       0    2023.0634    218.57082    1300.6296    5637.9415    17.389404 
       5    2023.0634    215.81737    1296.3928    5630.9512    17.617652 
Loop time of 0.114618 on 16 procs for 5 steps with 684 atoms

92.0% CPU use with 16 MPI tasks x no OpenMP threads

Minimization stats:
  Stopping criterion = linesearch alpha is zero
  Energy initial, next-to-last, final = 
         1519.20041438      1512.21013415      1512.21013415
  Force two-norm initial, final = 77.428 57.7933
  Force max component initial, final = 7.99369 5.96284
  Final line search alpha, max atom move = 3.19537e-12 1.90535e-11
  Iterations, force evaluations = 5 71

MPI task timing breakdown:
Section |  min time  |  avg time  |  max time  |%varavg| %total
---------------------------------------------------------------
Pair    | 8.3447e-06 | 0.019133   | 0.066059   |  17.2 | 16.69
Bond    | 2.6226e-05 | 0.0028533  | 0.010595   |   6.4 |  2.49
Kspace  | 0.03416    | 0.08954    | 0.11215    |   9.3 | 78.12
Neigh   | 0          | 0          | 0          |   0.0 |  0.00
Comm    | 3.0994e-05 | 0.0012372  | 0.0029409  |   3.4 |  1.08
Output  | 0          | 0          | 0          |   0.0 |  0.00
Modify  | 0          | 0          | 0          |   0.0 |  0.00
Other   |            | 0.001854   |            |       |  1.62

Nlocal:    42.75 ave 143 max 0 min
Histogram: 9 0 0 1 1 1 1 0 2 1
Nghost:    207.875 ave 520 max 0 min
Histogram: 8 0 0 0 0 0 2 3 1 2
Neighs:    3673.69 ave 11780 max 0 min
Histogram: 9 0 0 0 1 1 3 0 0 2

Total # of neighbors = 58779
Ave neighs/atom = 85.9342
Ave special neighs/atom = 11.0731
Neighbor list builds = 0
Dangerous builds = 0
timestep        1
fix             pysimm_md all nvt temp 300 300 100
run             5000
PPPM initialization ...
  using 12-bit tables for long-range coulomb (../kspace.cpp:332)
  G vector (1/distance) = 0.0833955
  grid = 16 16 16
  stencil order = 5
  estimated absolute RMS force accuracy = 0.0345706
  estimated relative force accuracy = 0.000104108
  using double precision KISS FFT
  3d grid and FFT values/proc = 1521 256
Per MPI rank memory allocation (min/avg/max) = 17.68 | 17.96 | 18.49 Mbytes
Step Temp E_pair E_mol TotEng Press 
       5    2023.0634    215.81737    1296.3928    5630.9512    17.617652 
    5005    301.44693    196.71418     1518.011     2328.439  -0.73387759 
Loop time of 3.69228 on 16 procs for 5000 steps with 684 atoms

Performance: 117.001 ns/day, 0.205 hours/ns, 1354.177 timesteps/s
93.4% CPU use with 16 MPI tasks x no OpenMP threads

MPI task timing breakdown:
Section |  min time  |  avg time  |  max time  |%varavg| %total
---------------------------------------------------------------
Pair    | 0.00050402 | 0.47372    | 1.6918     |  79.4 | 12.83
Bond    | 0.00090384 | 0.10525    | 0.35957    |  35.4 |  2.85
Kspace  | 1.3884     | 2.6745     | 3.1923     |  35.9 | 72.43
Neigh   | 0.078921   | 0.08241    | 0.08565    |   0.7 |  2.23
Comm    | 0.0076437  | 0.1243     | 0.31609    |  34.7 |  3.37
Output  | 2.3127e-05 | 2.4155e-05 | 2.9087e-05 |   0.0 |  0.00
Modify  | 0.029978   | 0.21512    | 0.39193    |  37.5 |  5.83
Other   |            | 0.01696    |            |       |  0.46

Nlocal:    42.75 ave 144 max 0 min
Histogram: 9 1 1 0 0 0 1 1 0 3
Nghost:    232 ave 585 max 0 min
Histogram: 8 0 0 0 0 0 3 1 3 1
Neighs:    3992.06 ave 17407 max 0 min
Histogram: 9 1 2 0 1 0 1 1 0 1

Total # of neighbors = 63873
Ave neighs/atom = 93.3816
Ave special neighs/atom = 11.0731
Neighbor list builds = 146
Dangerous builds = 0
unfix pysimm_md
write_dump all custom pysimm.dump.tmp id q x y z vx vy vz
quit


################################################################################
##################################    Init    ##################################
################################################################################
units           real
atom_style      full
pair_style      lj/cut/coul/long 12.0  12.0
kspace_style    pppm 1e-4
bond_style      harmonic
angle_style     harmonic
dihedral_style  fourier
improper_style  cvff
special_bonds   amber
pair_modify     mix arithmetic
read_data       temp.lmps
  orthogonal box = (-117.985 -117.985 -117.985) to (117.985 117.985 117.985)
  2 by 2 by 4 MPI processor grid
  reading atoms ...
  738 atoms
  reading velocities ...
  738 velocities
  scanning bonds ...
  3 = max bonds/atom
  scanning angles ...
  6 = max angles/atom
  scanning dihedrals ...
  24 = max dihedrals/atom
  scanning impropers ...
  2 = max impropers/atom
  reading bonds ...
  807 bonds
  reading angles ...
  1409 angles
  reading dihedrals ...
  2126 dihedrals
  reading impropers ...
  228 impropers
  4 = max # of 1-2 neighbors
  10 = max # of 1-3 neighbors
  20 = max # of 1-4 neighbors
  22 = max # of special neighbors
  special bonds CPU = 0.000947237 secs
  read_data CPU = 0.0220981 secs
################################################################################

min_style cg
minimize 1e-05 1e-05 10000 100000
WARNING: Using 'neigh_modify every 1 delay 0 check yes' setting during minimization (../min.cpp:190)
PPPM initialization ...
  using 12-bit tables for long-range coulomb (../kspace.cpp:332)
  G vector (1/distance) = 0.0798803
  grid = 16 16 16
  stencil order = 5
  estimated absolute RMS force accuracy = 0.0356871
  estimated relative force accuracy = 0.000107471
  using double precision KISS FFT
  3d grid and FFT values/proc = 1521 256
Neighbor list info ...
  update every 1 steps, delay 0 steps, check yes
  max neighbors/atom: 2000, page size: 100000
  master list distance cutoff = 14
  ghost atom cutoff = 14
  binsize = 7, bins = 34 34 34
  1 neighbor lists, perpetual/occasional/extra = 1 0 0
  (1) pair lj/cut/coul/long, perpetual
      attributes: half, newton on
      pair build: half/bin/newton
      stencil: half/bin/3d/newton
      bin: standard
Per MPI rank memory allocation (min/avg/max) = 18.81 | 19.05 | 19.63 Mbytes
Step Temp E_pair E_mol TotEng Press 
       0    849.96743    220.43701    1064.3608    3152.0547    6.8136567 
       5    849.96743    220.25946     1061.513    3149.0293     6.813496 
Loop time of 0.163432 on 16 procs for 5 steps with 738 atoms

89.4% CPU use with 16 MPI tasks x no OpenMP threads

Minimization stats:
  Stopping criterion = linesearch alpha is zero
  Energy initial, next-to-last, final = 
         1284.79782257      1281.77244452      1281.77244452
  Force two-norm initial, final = 47.4186 36.4044
  Force max component initial, final = 8.825 6.39236
  Final line search alpha, max atom move = 8.84018e-12 5.65096e-11
  Iterations, force evaluations = 5 69

MPI task timing breakdown:
Section |  min time  |  avg time  |  max time  |%varavg| %total
---------------------------------------------------------------
Pair    | 9.7752e-06 | 0.019143   | 0.10133    |  20.9 | 11.71
Bond    | 1.6212e-05 | 0.0033377  | 0.01667    |   8.6 |  2.04
Kspace  | 0.041959   | 0.13788    | 0.16093    |   9.3 | 84.37
Neigh   | 0          | 0          | 0          |   0.0 |  0.00
Comm    | 2.2411e-05 | 0.0011809  | 0.0029514  |   3.4 |  0.72
Output  | 0          | 0          | 0          |   0.0 |  0.00
Modify  | 0          | 0          | 0          |   0.0 |  0.00
Other   |            | 0.001887   |            |       |  1.15

Nlocal:    46.125 ave 233 max 0 min
Histogram: 10 0 2 1 1 0 0 0 1 1
Nghost:    190.875 ave 458 max 0 min
Histogram: 8 0 0 0 0 1 0 3 1 3
Neighs:    3535.94 ave 18645 max 0 min
Histogram: 9 1 2 1 1 0 1 0 0 1

Total # of neighbors = 56575
Ave neighs/atom = 76.6599
Ave special neighs/atom = 11.0569
Neighbor list builds = 0
Dangerous builds = 0
timestep        1
fix             pysimm_md all nvt temp 300 300 100
run             5000
PPPM initialization ...
  using 12-bit tables for long-range coulomb (../kspace.cpp:332)
  G vector (1/distance) = 0.0798803
  grid = 16 16 16
  stencil order = 5
  estimated absolute RMS force accuracy = 0.0356871
  estimated relative force accuracy = 0.000107471
  using double precision KISS FFT
  3d grid and FFT values/proc = 1521 256
Per MPI rank memory allocation (min/avg/max) = 17.69 | 17.93 | 18.5 Mbytes
Step Temp E_pair E_mol TotEng Press 
       5    849.96743    220.25946     1061.513    3149.0293     6.813496 
    5005    292.01701    259.39079    1513.4501    2414.3605   -2.0331849 
Loop time of 5.20873 on 16 procs for 5000 steps with 738 atoms

Performance: 82.938 ns/day, 0.289 hours/ns, 959.926 timesteps/s
91.6% CPU use with 16 MPI tasks x no OpenMP threads

MPI task timing breakdown:
Section |  min time  |  avg time  |  max time  |%varavg| %total
---------------------------------------------------------------
Pair    | 0.000453   | 0.43752    | 2.7063     | 107.5 |  8.40
Bond    | 0.0009284  | 0.1116     | 0.59094    |  49.6 |  2.14
Kspace  | 1.6398     | 4.0042     | 4.4882     |  37.6 | 76.87
Neigh   | 0.11768    | 0.12155    | 0.12586    |   0.8 |  2.33
Comm    | 0.0070546  | 0.20882    | 0.57421    |  49.5 |  4.01
Output  | 2.1935e-05 | 2.3127e-05 | 3.2187e-05 |   0.0 |  0.00
Modify  | 0.03643    | 0.30792    | 0.57796    |  47.7 |  5.91
Other   |            | 0.0171     |            |       |  0.33

Nlocal:    46.125 ave 255 max 0 min
Histogram: 8 3 1 2 1 0 0 0 0 1
Nghost:    206.188 ave 500 max 0 min
Histogram: 8 0 0 0 0 1 0 2 1 4
Neighs:    3100.44 ave 22562 max 0 min
Histogram: 10 2 3 0 0 0 0 0 0 1

Total # of neighbors = 49607
Ave neighs/atom = 67.2182
Ave special neighs/atom = 11.0569
Neighbor list builds = 162
Dangerous builds = 0
unfix pysimm_md
write_dump all custom pysimm.dump.tmp id q x y z vx vy vz
quit


################################################################################
##################################    Init    ##################################
################################################################################
units           real
atom_style      full
pair_style      lj/cut/coul/long 12.0  12.0
kspace_style    pppm 1e-4
bond_style      harmonic
angle_style     harmonic
dihedral_style  fourier
improper_style  cvff
special_bonds   amber
pair_modify     mix arithmetic
read_data       temp.lmps
  orthogonal box = (-120.935 -120.935 -120.935) to (120.935 120.935 120.935)
  2 by 2 by 4 MPI processor grid
  reading atoms ...
  800 atoms
  reading velocities ...
  800 velocities
  scanning bonds ...
  3 = max bonds/atom
  scanning angles ...
  6 = max angles/atom
  scanning dihedrals ...
  24 = max dihedrals/atom
  scanning impropers ...
  2 = max impropers/atom
  reading bonds ...
  877 bonds
  reading angles ...
  1523 angles
  reading dihedrals ...
  2322 dihedrals
  reading impropers ...
  256 impropers
  4 = max # of 1-2 neighbors
  10 = max # of 1-3 neighbors
  20 = max # of 1-4 neighbors
  22 = max # of special neighbors
  special bonds CPU = 0.00089097 secs
  read_data CPU = 0.0231979 secs
################################################################################

min_style cg
minimize 1e-05 1e-05 10000 100000
WARNING: Using 'neigh_modify every 1 delay 0 check yes' setting during minimization (../min.cpp:190)
PPPM initialization ...
WARNING: System is not charge neutral, net charge = 1.8e-05 (../kspace.cpp:313)
  using 12-bit tables for long-range coulomb (../kspace.cpp:332)
  G vector (1/distance) = 0.085854
  grid = 18 18 18
  stencil order = 5
  estimated absolute RMS force accuracy = 0.0313434
  estimated relative force accuracy = 9.43898e-05
  using double precision KISS FFT
  3d grid and FFT values/proc = 1960 648
Neighbor list info ...
  update every 1 steps, delay 0 steps, check yes
  max neighbors/atom: 2000, page size: 100000
  master list distance cutoff = 14
  ghost atom cutoff = 14
  binsize = 7, bins = 35 35 35
  1 neighbor lists, perpetual/occasional/extra = 1 0 0
  (1) pair lj/cut/coul/long, perpetual
      attributes: half, newton on
      pair build: half/bin/newton
      stencil: half/bin/3d/newton
      bin: standard
Per MPI rank memory allocation (min/avg/max) = 18.85 | 19.17 | 19.67 Mbytes
Step Temp E_pair E_mol TotEng Press 
       0     1519.391    252.66663    1373.3209    5244.6712      11.4115 
       9     1519.391    246.65606    1365.1919    5230.5316    11.287111 
Loop time of 0.173365 on 16 procs for 9 steps with 800 atoms

95.0% CPU use with 16 MPI tasks x no OpenMP threads

Minimization stats:
  Stopping criterion = linesearch alpha is zero
  Energy initial, next-to-last, final = 
         1625.98754348      1611.84791196      1611.84791196
  Force two-norm initial, final = 73.6654 56.3331
  Force max component initial, final = 9.37999 7.62609
  Final line search alpha, max atom move = 2.16289e-12 1.64944e-11
  Iterations, force evaluations = 9 79

MPI task timing breakdown:
Section |  min time  |  avg time  |  max time  |%varavg| %total
---------------------------------------------------------------
Pair    | 1.4067e-05 | 0.025335   | 0.10226    |  20.5 | 14.61
Bond    | 4.3392e-05 | 0.004108   | 0.013828   |   7.7 |  2.37
Kspace  | 0.052768   | 0.14015    | 0.17036    |  10.2 | 80.84
Neigh   | 0          | 0          | 0          |   0.0 |  0.00
Comm    | 3.9577e-05 | 0.0015978  | 0.0036757  |   3.9 |  0.92
Output  | 0          | 0          | 0          |   0.0 |  0.00
Modify  | 0          | 0          | 0          |   0.0 |  0.00
Other   |            | 0.002173   |            |       |  1.25

Nlocal:    50 ave 168 max 0 min
Histogram: 8 2 0 0 1 0 2 0 2 1
Nghost:    255.75 ave 594 max 0 min
Histogram: 8 0 0 0 0 0 0 3 3 2
Neighs:    4266.31 ave 17889 max 0 min
Histogram: 9 1 1 0 2 0 1 1 0 1

Total # of neighbors = 68261
Ave neighs/atom = 85.3263
Ave special neighs/atom = 11.08
Neighbor list builds = 0
Dangerous builds = 0
timestep        1
fix             pysimm_md all nvt temp 300 300 100
run             5000
PPPM initialization ...
  using 12-bit tables for long-range coulomb (../kspace.cpp:332)
  G vector (1/distance) = 0.085854
  grid = 18 18 18
  stencil order = 5
  estimated absolute RMS force accuracy = 0.0313434
  estimated relative force accuracy = 9.43898e-05
  using double precision KISS FFT
  3d grid and FFT values/proc = 1960 648
Per MPI rank memory allocation (min/avg/max) = 17.72 | 18.04 | 18.55 Mbytes
Step Temp E_pair E_mol TotEng Press 
       9     1519.391    246.65606    1365.1919    5230.5316    11.287111 
    5009    307.59439    261.15953     1697.281     2691.028   0.74704248 
Loop time of 4.17023 on 16 procs for 5000 steps with 800 atoms

Performance: 103.591 ns/day, 0.232 hours/ns, 1198.974 timesteps/s
95.9% CPU use with 16 MPI tasks x no OpenMP threads

MPI task timing breakdown:
Section |  min time  |  avg time  |  max time  |%varavg| %total
---------------------------------------------------------------
Pair    | 0.00048113 | 0.53588    | 1.9035     |  88.3 | 12.85
Bond    | 0.0010734  | 0.11841    | 0.31836    |  38.3 |  2.84
Kspace  | 1.6141     | 3.0733     | 3.6727     |  39.8 | 73.70
Neigh   | 0.088637   | 0.092147   | 0.096993   |   1.0 |  2.21
Comm    | 0.0068443  | 0.11982    | 0.39443    |  35.4 |  2.87
Output  | 2.2888e-05 | 2.4498e-05 | 3.1948e-05 |   0.0 |  0.00
Modify  | 0.034063   | 0.2148     | 0.39295    |  36.7 |  5.15
Other   |            | 0.01588    |            |       |  0.38

Nlocal:    50 ave 184 max 0 min
Histogram: 9 0 1 0 1 1 2 1 0 1
Nghost:    233.812 ave 547 max 0 min
Histogram: 8 0 0 0 0 0 0 1 4 3
Neighs:    4643 ave 14381 max 0 min
Histogram: 9 0 0 1 1 0 1 0 2 2

Total # of neighbors = 74288
Ave neighs/atom = 92.86
Ave special neighs/atom = 11.08
Neighbor list builds = 155
Dangerous builds = 0
unfix pysimm_md
write_dump all custom pysimm.dump.tmp id q x y z vx vy vz
quit


################################################################################
##################################    Init    ##################################
################################################################################
units           real
atom_style      full
pair_style      lj/cut/coul/long 12.0  12.0
kspace_style    pppm 1e-4
bond_style      harmonic
angle_style     harmonic
dihedral_style  fourier
improper_style  cvff
special_bonds   amber
pair_modify     mix arithmetic
read_data       temp.lmps
  orthogonal box = (-123.749 -123.749 -123.749) to (123.749 123.749 123.749)
  2 by 2 by 4 MPI processor grid
  reading atoms ...
  850 atoms
  reading velocities ...
  850 velocities
  scanning bonds ...
  3 = max bonds/atom
  scanning angles ...
  6 = max angles/atom
  scanning dihedrals ...
  24 = max dihedrals/atom
  scanning impropers ...
  2 = max impropers/atom
  reading bonds ...
  929 bonds
  reading angles ...
  1625 angles
  reading dihedrals ...
  2446 dihedrals
  reading impropers ...
  260 impropers
  4 = max # of 1-2 neighbors
  10 = max # of 1-3 neighbors
  20 = max # of 1-4 neighbors
  22 = max # of special neighbors
  special bonds CPU = 0.000893116 secs
  read_data CPU = 0.0235519 secs
################################################################################

min_style cg
minimize 1e-05 1e-05 10000 100000
WARNING: Using 'neigh_modify every 1 delay 0 check yes' setting during minimization (../min.cpp:190)
PPPM initialization ...
  using 12-bit tables for long-range coulomb (../kspace.cpp:332)
  G vector (1/distance) = 0.0843524
  grid = 18 18 18
  stencil order = 5
  estimated absolute RMS force accuracy = 0.0319865
  estimated relative force accuracy = 9.63263e-05
  using double precision KISS FFT
  3d grid and FFT values/proc = 1960 648
Neighbor list info ...
  update every 1 steps, delay 0 steps, check yes
  max neighbors/atom: 2000, page size: 100000
  master list distance cutoff = 14
  ghost atom cutoff = 14
  binsize = 7, bins = 36 36 36
  1 neighbor lists, perpetual/occasional/extra = 1 0 0
  (1) pair lj/cut/coul/long, perpetual
      attributes: half, newton on
      pair build: half/bin/newton
      stencil: half/bin/3d/newton
      bin: standard
Per MPI rank memory allocation (min/avg/max) = 18.85 | 19.09 | 19.65 Mbytes
Step Temp E_pair E_mol TotEng Press 
       0    1741.9152    312.71176    1285.7448    6006.7348    12.709595 
      13    1741.9152    312.91816    1266.6164    5987.8127    13.104619 
Loop time of 0.151856 on 16 procs for 13 steps with 850 atoms

93.1% CPU use with 16 MPI tasks x no OpenMP threads

Minimization stats:
  Stopping criterion = linesearch alpha is zero
  Energy initial, next-to-last, final = 
         1598.45654651      1579.53451957      1579.53451957
  Force two-norm initial, final = 81.1657 48.1971
  Force max component initial, final = 8.83622 5.28191
  Final line search alpha, max atom move = 3.00231e-12 1.58579e-11
  Iterations, force evaluations = 13 87

MPI task timing breakdown:
Section |  min time  |  avg time  |  max time  |%varavg| %total
---------------------------------------------------------------
Pair    | 1.2636e-05 | 0.018371   | 0.066998   |  19.2 | 12.10
Bond    | 2.8372e-05 | 0.0046565  | 0.017493   |   9.5 |  3.07
Kspace  | 0.063828   | 0.12589    | 0.14938    |   9.3 | 82.90
Neigh   | 0          | 0          | 0          |   0.0 |  0.00
Comm    | 4.0531e-05 | 0.00096907 | 0.0022066  |   0.0 |  0.64
Output  | 0          | 0          | 0          |   0.0 |  0.00
Modify  | 0          | 0          | 0          |   0.0 |  0.00
Other   |            | 0.001968   |            |       |  1.30

Nlocal:    53.125 ave 203 max 0 min
Histogram: 10 0 1 1 0 0 0 1 2 1
Nghost:    96.5 ave 262 max 0 min
Histogram: 8 0 0 0 1 2 1 1 1 2
Neighs:    2525.06 ave 8577 max 0 min
Histogram: 10 0 1 0 0 1 0 0 0 4

Total # of neighbors = 40401
Ave neighs/atom = 47.5306
Ave special neighs/atom = 11.0588
Neighbor list builds = 0
Dangerous builds = 0
timestep        1
fix             pysimm_md all nvt temp 300 300 100
run             5000
PPPM initialization ...
  using 12-bit tables for long-range coulomb (../kspace.cpp:332)
  G vector (1/distance) = 0.0843524
  grid = 18 18 18
  stencil order = 5
  estimated absolute RMS force accuracy = 0.0319865
  estimated relative force accuracy = 9.63263e-05
  using double precision KISS FFT
  3d grid and FFT values/proc = 1960 648
Per MPI rank memory allocation (min/avg/max) = 17.73 | 17.96 | 18.52 Mbytes
Step Temp E_pair E_mol TotEng Press 
      13    1741.9152    312.91816    1266.6164    5987.8127    13.104619 
    5013    303.22297    299.18605    1508.0823    2574.6371   -1.7018445 
Loop time of 3.89396 on 16 procs for 5000 steps with 850 atoms

Performance: 110.941 ns/day, 0.216 hours/ns, 1284.040 timesteps/s
94.0% CPU use with 16 MPI tasks x no OpenMP threads

MPI task timing breakdown:
Section |  min time  |  avg time  |  max time  |%varavg| %total
---------------------------------------------------------------
Pair    | 0.00042725 | 0.35325    | 1.2802     |  75.2 |  9.07
Bond    | 0.0010436  | 0.12682    | 0.45488    |  43.6 |  3.26
Kspace  | 1.954      | 2.9329     | 3.3421     |  28.7 | 75.32
Neigh   | 0.0601     | 0.061729   | 0.063134   |   0.4 |  1.59
Comm    | 0.0067647  | 0.14186    | 0.41903    |  41.0 |  3.64
Output  | 2.2888e-05 | 2.3931e-05 | 3.1948e-05 |   0.0 |  0.00
Modify  | 0.034572   | 0.26081    | 0.48211    |  41.7 |  6.70
Other   |            | 0.0166     |            |       |  0.43

Nlocal:    53.125 ave 252 max 0 min
Histogram: 8 2 1 2 1 0 1 0 0 1
Nghost:    173.625 ave 430 max 0 min
Histogram: 8 0 0 0 0 0 1 2 3 2
Neighs:    2767.12 ave 13583 max 0 min
Histogram: 9 1 2 2 0 0 0 1 0 1

Total # of neighbors = 44274
Ave neighs/atom = 52.0871
Ave special neighs/atom = 11.0588
Neighbor list builds = 142
Dangerous builds = 0
unfix pysimm_md
write_dump all custom pysimm.dump.tmp id q x y z vx vy vz
quit


################################################################################
##################################    Init    ##################################
################################################################################
units           real
atom_style      full
pair_style      lj/cut/coul/long 12.0  12.0
kspace_style    pppm 1e-4
bond_style      harmonic
angle_style     harmonic
dihedral_style  fourier
improper_style  cvff
special_bonds   amber
pair_modify     mix arithmetic
read_data       temp.lmps
  orthogonal box = (-126.44 -126.44 -126.44) to (126.44 126.44 126.44)
  2 by 2 by 4 MPI processor grid
  reading atoms ...
  916 atoms
  reading velocities ...
  916 velocities
  scanning bonds ...
  3 = max bonds/atom
  scanning angles ...
  6 = max angles/atom
  scanning dihedrals ...
  24 = max dihedrals/atom
  scanning impropers ...
  2 = max impropers/atom
  reading bonds ...
  1005 bonds
  reading angles ...
  1743 angles
  reading dihedrals ...
  2666 dihedrals
  reading impropers ...
  296 impropers
  4 = max # of 1-2 neighbors
  10 = max # of 1-3 neighbors
  20 = max # of 1-4 neighbors
  22 = max # of special neighbors
  special bonds CPU = 0.00104308 secs
  read_data CPU = 0.0261102 secs
################################################################################

min_style cg
minimize 1e-05 1e-05 10000 100000
WARNING: Using 'neigh_modify every 1 delay 0 check yes' setting during minimization (../min.cpp:190)
PPPM initialization ...
WARNING: System is not charge neutral, net charge = 2.4e-05 (../kspace.cpp:313)
  using 12-bit tables for long-range coulomb (../kspace.cpp:332)
  G vector (1/distance) = 0.0829625
  grid = 18 18 18
  stencil order = 5
  estimated absolute RMS force accuracy = 0.0337491
  estimated relative force accuracy = 0.000101635
  using double precision KISS FFT
  3d grid and FFT values/proc = 1960 648
Neighbor list info ...
  update every 1 steps, delay 0 steps, check yes
  max neighbors/atom: 2000, page size: 100000
  master list distance cutoff = 14
  ghost atom cutoff = 14
  binsize = 7, bins = 37 37 37
  1 neighbor lists, perpetual/occasional/extra = 1 0 0
  (1) pair lj/cut/coul/long, perpetual
      attributes: half, newton on
      pair build: half/bin/newton
      stencil: half/bin/3d/newton
      bin: standard
Per MPI rank memory allocation (min/avg/max) = 18.85 | 19.11 | 19.67 Mbytes
Step Temp E_pair E_mol TotEng Press 
       0    1546.0122    297.60675    1715.6647    6229.9289    11.531338 
      51    1546.0122     276.0228    1594.8426    6087.5228    11.705478 
Loop time of 0.628987 on 16 procs for 51 steps with 916 atoms

93.9% CPU use with 16 MPI tasks x no OpenMP threads

Minimization stats:
  Stopping criterion = linesearch alpha is zero
  Energy initial, next-to-last, final = 
         2013.27142679       1870.8653709       1870.8653709
  Force two-norm initial, final = 94.8623 53.1654
  Force max component initial, final = 11.47 6.04455
  Final line search alpha, max atom move = 3.03382e-12 1.83381e-11
  Iterations, force evaluations = 51 161

MPI task timing breakdown:
Section |  min time  |  avg time  |  max time  |%varavg| %total
---------------------------------------------------------------
Pair    | 2.6703e-05 | 0.047147   | 0.42597    |  48.3 |  7.50
Bond    | 6.5327e-05 | 0.0080863  | 0.05109    |  15.7 |  1.29
Kspace  | 0.13783    | 0.56102    | 0.61729    |  15.9 | 89.19
Neigh   | 0.0048373  | 0.0049269  | 0.0049891  |   0.1 |  0.78
Comm    | 0.00022888 | 0.0024942  | 0.0055988  |   4.5 |  0.40
Output  | 0          | 0          | 0          |   0.0 |  0.00
Modify  | 0          | 0          | 0          |   0.0 |  0.00
Other   |            | 0.00531    |            |       |  0.84

Nlocal:    57.25 ave 347 max 0 min
Histogram: 11 0 2 1 0 0 1 0 0 1
Nghost:    168.75 ave 451 max 0 min
Histogram: 8 0 0 0 0 2 1 1 3 1
Neighs:    4263.31 ave 37631 max 0 min
Histogram: 12 1 2 0 0 0 0 0 0 1

Total # of neighbors = 68213
Ave neighs/atom = 74.4683
Ave special neighs/atom = 11.0917
Neighbor list builds = 2
Dangerous builds = 0
timestep        1
fix             pysimm_md all nvt temp 300 300 100
run             5000
PPPM initialization ...
  using 12-bit tables for long-range coulomb (../kspace.cpp:332)
  G vector (1/distance) = 0.0829625
  grid = 18 18 18
  stencil order = 5
  estimated absolute RMS force accuracy = 0.0337491
  estimated relative force accuracy = 0.000101635
  using double precision KISS FFT
  3d grid and FFT values/proc = 1960 648
Per MPI rank memory allocation (min/avg/max) = 17.73 | 17.99 | 18.54 Mbytes
Step Temp E_pair E_mol TotEng Press 
      51    1546.0122     276.0228    1594.8426    6087.5228    11.705478 
    5051    301.62905    300.33229    2046.3729    3169.3807     1.073228 
Loop time of 7.09891 on 16 procs for 5000 steps with 916 atoms

Performance: 60.854 ns/day, 0.394 hours/ns, 704.333 timesteps/s
92.8% CPU use with 16 MPI tasks x no OpenMP threads

MPI task timing breakdown:
Section |  min time  |  avg time  |  max time  |%varavg| %total
---------------------------------------------------------------
Pair    | 0.00045156 | 0.51286    | 3.922      | 139.6 |  7.22
Bond    | 0.00085521 | 0.12309    | 0.69622    |  57.2 |  1.73
Kspace  | 2.1583     | 5.6905     | 6.2605     |  43.8 | 80.16
Neigh   | 0.16505    | 0.16814    | 0.17034    |   0.4 |  2.37
Comm    | 0.0077045  | 0.2393     | 0.65665    |  54.7 |  3.37
Output  | 2.3127e-05 | 2.4751e-05 | 3.0994e-05 |   0.0 |  0.00
Modify  | 0.029659   | 0.34423    | 0.65525    |  51.7 |  4.85
Other   |            | 0.0208     |            |       |  0.29

Nlocal:    57.25 ave 330 max 0 min
Histogram: 12 0 2 0 0 0 0 0 0 2
Nghost:    201.125 ave 577 max 0 min
Histogram: 8 0 0 0 2 2 0 1 1 2
Neighs:    4456.12 ave 30225 max 0 min
Histogram: 11 2 1 0 0 0 0 1 0 1

Total # of neighbors = 71298
Ave neighs/atom = 77.8362
Ave special neighs/atom = 11.0917
Neighbor list builds = 169
Dangerous builds = 0
unfix pysimm_md
write_dump all custom pysimm.dump.tmp id q x y z vx vy vz
quit


################################################################################
##################################    Init    ##################################
################################################################################
units           real
atom_style      full
pair_style      lj/cut/coul/long 12.0  12.0
kspace_style    pppm 1e-4
bond_style      harmonic
angle_style     harmonic
dihedral_style  fourier
improper_style  cvff
special_bonds   amber
pair_modify     mix arithmetic
read_data       temp.lmps
  orthogonal box = (-125.384 -125.384 -125.384) to (125.384 125.384 125.384)
  2 by 2 by 4 MPI processor grid
  reading atoms ...
  966 atoms
  reading velocities ...
  966 velocities
  scanning bonds ...
  3 = max bonds/atom
  scanning angles ...
  6 = max angles/atom
  scanning dihedrals ...
  24 = max dihedrals/atom
  scanning impropers ...
  2 = max impropers/atom
  reading bonds ...
  1057 bonds
  reading angles ...
  1846 angles
  reading dihedrals ...
  2792 dihedrals
  reading impropers ...
  300 impropers
  4 = max # of 1-2 neighbors
  10 = max # of 1-3 neighbors
  20 = max # of 1-4 neighbors
  22 = max # of special neighbors
  special bonds CPU = 0.00109792 secs
  read_data CPU = 0.026823 secs
################################################################################

min_style cg
minimize 1e-05 1e-05 10000 100000
WARNING: Using 'neigh_modify every 1 delay 0 check yes' setting during minimization (../min.cpp:190)
PPPM initialization ...
WARNING: System is not charge neutral, net charge = 1.1e-05 (../kspace.cpp:313)
  using 12-bit tables for long-range coulomb (../kspace.cpp:332)
  G vector (1/distance) = 0.0835046
  grid = 18 18 18
  stencil order = 5
  estimated absolute RMS force accuracy = 0.0342715
  estimated relative force accuracy = 0.000103208
  using double precision KISS FFT
  3d grid and FFT values/proc = 1960 648
Neighbor list info ...
  update every 1 steps, delay 0 steps, check yes
  max neighbors/atom: 2000, page size: 100000
  master list distance cutoff = 14
  ghost atom cutoff = 14
  binsize = 7, bins = 36 36 36
  1 neighbor lists, perpetual/occasional/extra = 1 0 0
  (1) pair lj/cut/coul/long, perpetual
      attributes: half, newton on
      pair build: half/bin/newton
      stencil: half/bin/3d/newton
      bin: standard
Per MPI rank memory allocation (min/avg/max) = 18.85 | 19.04 | 19.66 Mbytes
Step Temp E_pair E_mol TotEng Press 
       0    1312.7713    320.23697    1556.9325    5653.3321    10.654203 
       6    1312.7713    317.41083     1547.846    5641.4195    10.761863 
Loop time of 0.326285 on 16 procs for 6 steps with 966 atoms

93.0% CPU use with 16 MPI tasks x no OpenMP threads

Minimization stats:
  Stopping criterion = linesearch alpha is zero
  Energy initial, next-to-last, final = 
         1877.16948704      1865.25680959      1865.25680959
  Force two-norm initial, final = 76.8856 62.9462
  Force max component initial, final = 12.3076 8.33949
  Final line search alpha, max atom move = 2.05887e-12 1.71699e-11
  Iterations, force evaluations = 6 73

MPI task timing breakdown:
Section |  min time  |  avg time  |  max time  |%varavg| %total
---------------------------------------------------------------
Pair    | 1.2636e-05 | 0.024947   | 0.22069    |  37.6 |  7.65
Bond    | 2.5749e-05 | 0.0043284  | 0.02903    |  13.8 |  1.33
Kspace  | 0.073209   | 0.29413    | 0.32383    |  12.6 | 90.14
Neigh   | 0          | 0          | 0          |   0.0 |  0.00
Comm    | 4.4823e-05 | 0.00087962 | 0.0021355  |   0.0 |  0.27
Output  | 0          | 0          | 0          |   0.0 |  0.00
Modify  | 0          | 0          | 0          |   0.0 |  0.00
Other   |            | 0.002002   |            |       |  0.61

Nlocal:    60.375 ave 411 max 0 min
Histogram: 13 0 1 0 0 0 0 0 0 2
Nghost:    127.875 ave 377 max 0 min
Histogram: 8 0 1 0 1 1 0 2 1 2
Neighs:    4466.62 ave 41264 max 0 min
Histogram: 13 1 0 0 0 1 0 0 0 1

Total # of neighbors = 71466
Ave neighs/atom = 73.9814
Ave special neighs/atom = 11.0787
Neighbor list builds = 0
Dangerous builds = 0
timestep        1
fix             pysimm_md all nvt temp 300 300 100
run             5000
PPPM initialization ...
  using 12-bit tables for long-range coulomb (../kspace.cpp:332)
  G vector (1/distance) = 0.0835046
  grid = 18 18 18
  stencil order = 5
  estimated absolute RMS force accuracy = 0.0342715
  estimated relative force accuracy = 0.000103208
  using double precision KISS FFT
  3d grid and FFT values/proc = 1960 648
Per MPI rank memory allocation (min/avg/max) = 17.73 | 17.91 | 18.53 Mbytes
Step Temp E_pair E_mol TotEng Press 
       6    1312.7713    317.41083     1547.846    5641.4195    10.761863 
    5006    311.89599    328.09965    2013.1237    3238.3864  0.079523549 
Loop time of 8.25928 on 16 procs for 5000 steps with 966 atoms

Performance: 52.305 ns/day, 0.459 hours/ns, 605.380 timesteps/s
94.1% CPU use with 16 MPI tasks x no OpenMP threads

MPI task timing breakdown:
Section |  min time  |  avg time  |  max time  |%varavg| %total
---------------------------------------------------------------
Pair    | 0.00048423 | 0.5035     | 4.5029     | 157.1 |  6.10
Bond    | 0.00089359 | 0.13194    | 0.89024    |  66.8 |  1.60
Kspace  | 2.5151     | 6.6271     | 7.1848     |  44.9 | 80.24
Neigh   | 0.20119    | 0.20344    | 0.20603    |   0.3 |  2.46
Comm    | 0.007072   | 0.31889    | 0.86624    |  63.4 |  3.86
Output  | 2.1935e-05 | 2.3618e-05 | 3.1233e-05 |   0.0 |  0.00
Modify  | 0.029843   | 0.45034    | 0.8525     |  58.8 |  5.45
Other   |            | 0.02409    |            |       |  0.29

Nlocal:    60.375 ave 352 max 0 min
Histogram: 9 1 3 1 1 0 0 0 0 1
Nghost:    174.875 ave 417 max 0 min
Histogram: 8 0 0 0 0 1 1 1 1 4
Neighs:    3846.19 ave 29731 max 0 min
Histogram: 10 2 3 0 0 0 0 0 0 1

Total # of neighbors = 61539
Ave neighs/atom = 63.705
Ave special neighs/atom = 11.0787
Neighbor list builds = 161
Dangerous builds = 0
unfix pysimm_md
write_dump all custom pysimm.dump.tmp id q x y z vx vy vz
quit


################################################################################
##################################    Init    ##################################
################################################################################
units           real
atom_style      full
pair_style      lj/cut/coul/long 12.0  12.0
kspace_style    pppm 1e-4
bond_style      harmonic
angle_style     harmonic
dihedral_style  fourier
improper_style  cvff
special_bonds   amber
pair_modify     mix arithmetic
read_data       temp.lmps
  orthogonal box = (-131.503 -131.503 -131.503) to (131.503 131.503 131.503)
  2 by 2 by 4 MPI processor grid
  reading atoms ...
  1024 atoms
  reading velocities ...
  1024 velocities
  scanning bonds ...
  3 = max bonds/atom
  scanning angles ...
  6 = max angles/atom
  scanning dihedrals ...
  24 = max dihedrals/atom
  scanning impropers ...
  2 = max impropers/atom
  reading bonds ...
  1121 bonds
  reading angles ...
  1955 angles
  reading dihedrals ...
  2962 dihedrals
  reading impropers ...
  320 impropers
  4 = max # of 1-2 neighbors
  10 = max # of 1-3 neighbors
  20 = max # of 1-4 neighbors
  22 = max # of special neighbors
  special bonds CPU = 0.000963926 secs
  read_data CPU = 0.0271559 secs
################################################################################

min_style cg
minimize 1e-05 1e-05 10000 100000
WARNING: Using 'neigh_modify every 1 delay 0 check yes' setting during minimization (../min.cpp:190)
PPPM initialization ...
WARNING: System is not charge neutral, net charge = 1.4e-05 (../kspace.cpp:313)
  using 12-bit tables for long-range coulomb (../kspace.cpp:332)
  G vector (1/distance) = 0.080466
  grid = 18 18 18
  stencil order = 5
  estimated absolute RMS force accuracy = 0.0353555
  estimated relative force accuracy = 0.000106472
  using double precision KISS FFT
  3d grid and FFT values/proc = 1960 648
Neighbor list info ...
  update every 1 steps, delay 0 steps, check yes
  max neighbors/atom: 2000, page size: 100000
  master list distance cutoff = 14
  ghost atom cutoff = 14
  binsize = 7, bins = 38 38 38
  1 neighbor lists, perpetual/occasional/extra = 1 0 0
  (1) pair lj/cut/coul/long, perpetual
      attributes: half, newton on
      pair build: half/bin/newton
      stencil: half/bin/3d/newton
      bin: standard
Per MPI rank memory allocation (min/avg/max) = 18.86 | 19.09 | 19.67 Mbytes
Step Temp E_pair E_mol TotEng Press 
       0    1397.5799    350.58105    1638.5559    6250.8733    9.3076769 
       8    1397.5799     349.6236    1624.3276    6235.6875     9.561263 
Loop time of 0.180919 on 16 procs for 8 steps with 1024 atoms

94.5% CPU use with 16 MPI tasks x no OpenMP threads

Minimization stats:
  Stopping criterion = linesearch alpha is zero
  Energy initial, next-to-last, final = 
          1989.1369884       1973.9512062       1973.9512062
  Force two-norm initial, final = 78.2782 59.2292
  Force max component initial, final = 9.17783 6.61699
  Final line search alpha, max atom move = 1.97346e-12 1.30583e-11
  Iterations, force evaluations = 8 77

MPI task timing breakdown:
Section |  min time  |  avg time  |  max time  |%varavg| %total
---------------------------------------------------------------
Pair    | 1.3828e-05 | 0.020309   | 0.1075     |  23.7 | 11.23
Bond    | 3.6478e-05 | 0.0042218  | 0.019535   |  10.1 |  2.33
Kspace  | 0.057478   | 0.15365    | 0.17862    |  10.3 | 84.93
Neigh   | 0          | 0          | 0          |   0.0 |  0.00
Comm    | 5.2452e-05 | 0.00097995 | 0.0021603  |   0.0 |  0.54
Output  | 0          | 0          | 0          |   0.0 |  0.00
Modify  | 0          | 0          | 0          |   0.0 |  0.00
Other   |            | 0.001756   |            |       |  0.97

Nlocal:    64 ave 329 max 0 min
Histogram: 11 0 1 0 1 0 1 1 0 1
Nghost:    145.312 ave 407 max 0 min
Histogram: 8 0 0 1 1 1 0 2 0 3
Neighs:    4260.12 ave 34794 max 0 min
Histogram: 12 0 2 1 0 0 0 0 0 1

Total # of neighbors = 68162
Ave neighs/atom = 66.5645
Ave special neighs/atom = 11.0781
Neighbor list builds = 0
Dangerous builds = 0
timestep        1
fix             pysimm_md all nvt temp 300 300 100
run             5000
PPPM initialization ...
  using 12-bit tables for long-range coulomb (../kspace.cpp:332)
  G vector (1/distance) = 0.080466
  grid = 18 18 18
  stencil order = 5
  estimated absolute RMS force accuracy = 0.0353555
  estimated relative force accuracy = 0.000106472
  using double precision KISS FFT
  3d grid and FFT values/proc = 1960 648
Per MPI rank memory allocation (min/avg/max) = 17.73 | 17.97 | 18.54 Mbytes
Step Temp E_pair E_mol TotEng Press 
       8    1397.5799     349.6236    1624.3276    6235.6875     9.561263 
    5008    280.17911    386.69946    2083.2118    3324.2806    2.4121666 
Loop time of 6.94246 on 16 procs for 5000 steps with 1024 atoms

Performance: 62.226 ns/day, 0.386 hours/ns, 720.206 timesteps/s
94.2% CPU use with 16 MPI tasks x no OpenMP threads

MPI task timing breakdown:
Section |  min time  |  avg time  |  max time  |%varavg| %total
---------------------------------------------------------------
Pair    | 0.00046182 | 0.49995    | 3.7767     | 139.0 |  7.20
Bond    | 0.00092077 | 0.13983    | 0.66844    |  60.3 |  2.01
Kspace  | 2.1518     | 5.5227     | 6.08       |  43.6 | 79.55
Neigh   | 0.18059    | 0.18297    | 0.186      |   0.4 |  2.64
Comm    | 0.0062268  | 0.22276    | 0.66712    |  56.0 |  3.21
Output  | 2.3127e-05 | 2.4632e-05 | 3.2902e-05 |   0.0 |  0.00
Modify  | 0.032456   | 0.35478    | 0.66849    |  51.3 |  5.11
Other   |            | 0.01949    |            |       |  0.28

Nlocal:    64 ave 295 max 0 min
Histogram: 10 1 0 1 1 0 1 0 1 1
Nghost:    136.312 ave 435 max 0 min
Histogram: 8 1 1 0 0 2 1 0 1 2
Neighs:    4089.38 ave 28716 max 0 min
Histogram: 11 2 0 0 2 0 0 0 0 1

Total # of neighbors = 65430
Ave neighs/atom = 63.8965
Ave special neighs/atom = 11.0781
Neighbor list builds = 172
Dangerous builds = 0
unfix pysimm_md
write_dump all custom pysimm.dump.tmp id q x y z vx vy vz
quit


################################################################################
##################################    Init    ##################################
################################################################################
units           real
atom_style      full
pair_style      lj/cut/coul/long 12.0  12.0
kspace_style    pppm 1e-4
bond_style      harmonic
angle_style     harmonic
dihedral_style  fourier
improper_style  cvff
special_bonds   amber
pair_modify     mix arithmetic
read_data       temp.lmps
  orthogonal box = (-133.894 -133.894 -133.894) to (133.894 133.894 133.894)
  2 by 2 by 4 MPI processor grid
  reading atoms ...
  1092 atoms
  reading velocities ...
  1092 velocities
  scanning bonds ...
  3 = max bonds/atom
  scanning angles ...
  6 = max angles/atom
  scanning dihedrals ...
  24 = max dihedrals/atom
  scanning impropers ...
  2 = max impropers/atom
  reading bonds ...
  1200 bonds
  reading angles ...
  2075 angles
  reading dihedrals ...
  3194 dihedrals
  reading impropers ...
  360 impropers
  4 = max # of 1-2 neighbors
  10 = max # of 1-3 neighbors
  20 = max # of 1-4 neighbors
  22 = max # of special neighbors
  special bonds CPU = 0.00101399 secs
  read_data CPU = 0.0296209 secs
################################################################################

min_style cg
minimize 1e-05 1e-05 10000 100000
WARNING: Using 'neigh_modify every 1 delay 0 check yes' setting during minimization (../min.cpp:190)
PPPM initialization ...
WARNING: System is not charge neutral, net charge = 3.7e-05 (../kspace.cpp:313)
  using 12-bit tables for long-range coulomb (../kspace.cpp:332)
  G vector (1/distance) = 0.0860884
  grid = 20 20 20
  stencil order = 5
  estimated absolute RMS force accuracy = 0.0315142
  estimated relative force accuracy = 9.49039e-05
  using double precision KISS FFT
  3d grid and FFT values/proc = 2250 800
Neighbor list info ...
  update every 1 steps, delay 0 steps, check yes
  max neighbors/atom: 2000, page size: 100000
  master list distance cutoff = 14
  ghost atom cutoff = 14
  binsize = 7, bins = 39 39 39
  1 neighbor lists, perpetual/occasional/extra = 1 0 0
  (1) pair lj/cut/coul/long, perpetual
      attributes: half, newton on
      pair build: half/bin/newton
      stencil: half/bin/3d/newton
      bin: standard
Per MPI rank memory allocation (min/avg/max) = 18.88 | 19.11 | 19.7 Mbytes
Step Temp E_pair E_mol TotEng Press 
       0     1104.467      364.868    2020.1121    5976.7772      7.31159 
      49     1104.467    345.05687    1920.8963    5857.7502    7.1904337 
Loop time of 0.348185 on 16 procs for 49 steps with 1092 atoms

94.8% CPU use with 16 MPI tasks x no OpenMP threads

Minimization stats:
  Stopping criterion = linesearch alpha is zero
  Energy initial, next-to-last, final = 
         2384.98014102      2265.95317374      2265.95317374
  Force two-norm initial, final = 91.7548 68.8671
  Force max component initial, final = 12.0715 8.20765
  Final line search alpha, max atom move = 1.5968e-12 1.31059e-11
  Iterations, force evaluations = 49 157

MPI task timing breakdown:
Section |  min time  |  avg time  |  max time  |%varavg| %total
---------------------------------------------------------------
Pair    | 2.3842e-05 | 0.040722   | 0.17555    |  31.1 | 11.70
Bond    | 7.6532e-05 | 0.0089702  | 0.042275   |  14.1 |  2.58
Kspace  | 0.13336    | 0.289      | 0.33972    |  14.2 | 83.00
Neigh   | 0.0023279  | 0.0023815  | 0.0024467  |   0.1 |  0.68
Comm    | 0.000278   | 0.0023649  | 0.0055041  |   4.3 |  0.68
Output  | 0          | 0          | 0          |   0.0 |  0.00
Modify  | 0          | 0          | 0          |   0.0 |  0.00
Other   |            | 0.004748   |            |       |  1.36

Nlocal:    68.25 ave 365 max 0 min
Histogram: 10 1 1 0 2 0 0 1 0 1
Nghost:    156.5 ave 423 max 0 min
Histogram: 8 0 0 0 1 1 1 2 1 2
Neighs:    4135.31 ave 29994 max 0 min
Histogram: 11 1 1 1 1 0 0 0 0 1

Total # of neighbors = 66165
Ave neighs/atom = 60.5907
Ave special neighs/atom = 11.1099
Neighbor list builds = 2
Dangerous builds = 0
timestep        1
fix             pysimm_md all nvt temp 300 300 100
run             5000
PPPM initialization ...
  using 12-bit tables for long-range coulomb (../kspace.cpp:332)
  G vector (1/distance) = 0.0860884
  grid = 20 20 20
  stencil order = 5
  estimated absolute RMS force accuracy = 0.0315142
  estimated relative force accuracy = 9.49039e-05
  using double precision KISS FFT
  3d grid and FFT values/proc = 2250 800
Per MPI rank memory allocation (min/avg/max) = 17.75 | 18.01 | 18.57 Mbytes
Step Temp E_pair E_mol TotEng Press 
      49     1104.467    345.05687    1920.8963    5857.7502    7.1904337 
    5049    300.71789    367.42969    2512.6207    3858.0041    1.1333932 
Loop time of 5.52463 on 16 procs for 5000 steps with 1092 atoms

Performance: 78.195 ns/day, 0.307 hours/ns, 905.039 timesteps/s
95.3% CPU use with 16 MPI tasks x no OpenMP threads

MPI task timing breakdown:
Section |  min time  |  avg time  |  max time  |%varavg| %total
---------------------------------------------------------------
Pair    | 0.00045824 | 0.5239     | 2.3135     | 113.9 |  9.48
Bond    | 0.0010436  | 0.15265    | 0.62738    |  57.9 |  2.76
Kspace  | 2.3063     | 4.1827     | 4.7532     |  42.6 | 75.71
Neigh   | 0.10699    | 0.10867    | 0.11105    |   0.4 |  1.97
Comm    | 0.0065913  | 0.1823     | 0.63911    |  50.7 |  3.30
Output  | 2.2888e-05 | 2.3514e-05 | 3.1948e-05 |   0.0 |  0.00
Modify  | 0.031975   | 0.35409    | 0.63437    |  47.7 |  6.41
Other   |            | 0.02032    |            |       |  0.37

Nlocal:    68.25 ave 305 max 0 min
Histogram: 10 1 1 0 0 0 1 2 0 1
Nghost:    152.688 ave 385 max 0 min
Histogram: 8 0 0 0 0 1 2 1 1 3
Neighs:    4121.5 ave 20556 max 0 min
Histogram: 11 1 0 0 0 1 1 1 0 1

Total # of neighbors = 65944
Ave neighs/atom = 60.3883
Ave special neighs/atom = 11.1099
Neighbor list builds = 145
Dangerous builds = 0
unfix pysimm_md
write_dump all custom pysimm.dump.tmp id q x y z vx vy vz
quit


################################################################################
##################################    Init    ##################################
################################################################################
units           real
atom_style      full
pair_style      lj/cut/coul/long 12.0  12.0
kspace_style    pppm 1e-4
bond_style      harmonic
angle_style     harmonic
dihedral_style  fourier
improper_style  cvff
special_bonds   amber
pair_modify     mix arithmetic
read_data       temp.lmps
  orthogonal box = (-136.203 -136.203 -136.203) to (136.203 136.203 136.203)
  2 by 2 by 4 MPI processor grid
  reading atoms ...
  1142 atoms
  reading velocities ...
  1142 velocities
  scanning bonds ...
  3 = max bonds/atom
  scanning angles ...
  6 = max angles/atom
  scanning dihedrals ...
  24 = max dihedrals/atom
  scanning impropers ...
  2 = max impropers/atom
  reading bonds ...
  1252 bonds
  reading angles ...
  2177 angles
  reading dihedrals ...
  3318 dihedrals
  reading impropers ...
  364 impropers
  4 = max # of 1-2 neighbors
  10 = max # of 1-3 neighbors
  20 = max # of 1-4 neighbors
  22 = max # of special neighbors
  special bonds CPU = 0.001544 secs
  read_data CPU = 0.029907 secs
################################################################################

min_style cg
minimize 1e-05 1e-05 10000 100000
WARNING: Using 'neigh_modify every 1 delay 0 check yes' setting during minimization (../min.cpp:190)
PPPM initialization ...
WARNING: System is not charge neutral, net charge = 2.4e-05 (../kspace.cpp:313)
  using 12-bit tables for long-range coulomb (../kspace.cpp:332)
  G vector (1/distance) = 0.0849685
  grid = 20 20 20
  stencil order = 5
  estimated absolute RMS force accuracy = 0.0319866
  estimated relative force accuracy = 9.63268e-05
  using double precision KISS FFT
  3d grid and FFT values/proc = 2250 800
Neighbor list info ...
  update every 1 steps, delay 0 steps, check yes
  max neighbors/atom: 2000, page size: 100000
  master list distance cutoff = 14
  ghost atom cutoff = 14
  binsize = 7, bins = 39 39 39
  1 neighbor lists, perpetual/occasional/extra = 1 0 0
  (1) pair lj/cut/coul/long, perpetual
      attributes: half, newton on
      pair build: half/bin/newton
      stencil: half/bin/3d/newton
      bin: standard
Per MPI rank memory allocation (min/avg/max) = 18.88 | 19.2 | 19.69 Mbytes
Step Temp E_pair E_mol TotEng Press 
       0    1409.2448    372.99006    1988.8946     7154.873    11.014194 
      55    1409.2448    342.92588    1878.8283    7014.7426    10.227458 
Loop time of 0.511239 on 16 procs for 55 steps with 1142 atoms

94.1% CPU use with 16 MPI tasks x no OpenMP threads

Minimization stats:
  Stopping criterion = linesearch alpha is zero
  Energy initial, next-to-last, final = 
         2361.88465496      2221.75421528      2221.75421528
  Force two-norm initial, final = 94.0831 65.3656
  Force max component initial, final = 11.3185 11.8379
  Final line search alpha, max atom move = 2.53899e-12 3.00562e-11
  Iterations, force evaluations = 55 169

MPI task timing breakdown:
Section |  min time  |  avg time  |  max time  |%varavg| %total
---------------------------------------------------------------
Pair    | 2.1458e-05 | 0.056322   | 0.32086    |  34.5 | 11.02
Bond    | 7.1287e-05 | 0.011331   | 0.043853   |  12.9 |  2.22
Kspace  | 0.13373    | 0.43182    | 0.50083    |  14.6 | 84.47
Neigh   | 0.0033588  | 0.0034135  | 0.0034781  |   0.1 |  0.67
Comm    | 0.00023985 | 0.0031475  | 0.0070534  |   5.1 |  0.62
Output  | 0          | 0          | 0          |   0.0 |  0.00
Modify  | 0          | 0          | 0          |   0.0 |  0.00
Other   |            | 0.005202   |            |       |  1.02

Nlocal:    71.375 ave 287 max 0 min
Histogram: 9 0 0 2 1 2 1 0 0 1
Nghost:    235.25 ave 606 max 0 min
Histogram: 8 0 0 0 0 1 1 3 1 2
Neighs:    4539.75 ave 26764 max 0 min
Histogram: 9 1 3 2 0 0 0 0 0 1

Total # of neighbors = 72636
Ave neighs/atom = 63.6042
Ave special neighs/atom = 11.0928
Neighbor list builds = 2
Dangerous builds = 0
timestep        1
fix             pysimm_md all nvt temp 300 300 100
run             5000
PPPM initialization ...
  using 12-bit tables for long-range coulomb (../kspace.cpp:332)
  G vector (1/distance) = 0.0849685
  grid = 20 20 20
  stencil order = 5
  estimated absolute RMS force accuracy = 0.0319866
  estimated relative force accuracy = 9.63268e-05
  using double precision KISS FFT
  3d grid and FFT values/proc = 2250 800
Per MPI rank memory allocation (min/avg/max) = 17.76 | 18.07 | 18.57 Mbytes
Step Temp E_pair E_mol TotEng Press 
      55    1409.2448    342.92588    1878.8283    7014.7426    10.227458 
    5055    291.97723    365.17096    2546.6572    3904.8732   -1.2766955 
Loop time of 6.63755 on 16 procs for 5000 steps with 1142 atoms

Performance: 65.084 ns/day, 0.369 hours/ns, 753.290 timesteps/s
94.5% CPU use with 16 MPI tasks x no OpenMP threads

MPI task timing breakdown:
Section |  min time  |  avg time  |  max time  |%varavg| %total
---------------------------------------------------------------
Pair    | 0.00042272 | 0.60646    | 3.4593     | 117.9 |  9.14
Bond    | 0.00084066 | 0.15834    | 0.66928    |  51.2 |  2.39
Kspace  | 2.194      | 5.132      | 5.7966     |  42.4 | 77.32
Neigh   | 0.1597     | 0.1624     | 0.16592    |   0.5 |  2.45
Comm    | 0.0090525  | 0.21685    | 0.66434    |  48.6 |  3.27
Output  | 2.5034e-05 | 2.5779e-05 | 3.5048e-05 |   0.0 |  0.00
Modify  | 0.034596   | 0.34412    | 0.64904    |  51.6 |  5.18
Other   |            | 0.01735    |            |       |  0.26

Nlocal:    71.375 ave 321 max 0 min
Histogram: 10 0 2 0 1 0 1 0 1 1
Nghost:    255.75 ave 679 max 0 min
Histogram: 8 0 0 0 0 2 2 1 2 1
Neighs:    5390.38 ave 28443 max 0 min
Histogram: 10 0 3 0 0 1 0 1 0 1

Total # of neighbors = 86246
Ave neighs/atom = 75.5219
Ave special neighs/atom = 11.0928
Neighbor list builds = 168
Dangerous builds = 0
unfix pysimm_md
write_dump all custom pysimm.dump.tmp id q x y z vx vy vz
quit


################################################################################
##################################    Init    ##################################
################################################################################
units           real
atom_style      full
pair_style      lj/cut/coul/long 12.0  12.0
kspace_style    pppm 1e-4
bond_style      harmonic
angle_style     harmonic
dihedral_style  fourier
improper_style  cvff
special_bonds   amber
pair_modify     mix arithmetic
read_data       temp.lmps
  orthogonal box = (-134.534 -134.534 -134.534) to (134.534 134.534 134.534)
  2 by 2 by 4 MPI processor grid
  reading atoms ...
  1196 atoms
  reading velocities ...
  1196 velocities
  scanning bonds ...
  3 = max bonds/atom
  scanning angles ...
  6 = max angles/atom
  scanning dihedrals ...
  24 = max dihedrals/atom
  scanning impropers ...
  2 = max impropers/atom
  reading bonds ...
  1310 bonds
  reading angles ...
  2284 angles
  reading dihedrals ...
  3468 dihedrals
  reading impropers ...
  376 impropers
  4 = max # of 1-2 neighbors
  10 = max # of 1-3 neighbors
  20 = max # of 1-4 neighbors
  22 = max # of special neighbors
  special bonds CPU = 0.00114298 secs
  read_data CPU = 0.0309529 secs
################################################################################

min_style cg
minimize 1e-05 1e-05 10000 100000
WARNING: Using 'neigh_modify every 1 delay 0 check yes' setting during minimization (../min.cpp:190)
PPPM initialization ...
WARNING: System is not charge neutral, net charge = 1.9e-05 (../kspace.cpp:313)
  using 12-bit tables for long-range coulomb (../kspace.cpp:332)
  G vector (1/distance) = 0.0857751
  grid = 20 20 20
  stencil order = 5
  estimated absolute RMS force accuracy = 0.0325667
  estimated relative force accuracy = 9.80737e-05
  using double precision KISS FFT
  3d grid and FFT values/proc = 2250 800
Neighbor list info ...
  update every 1 steps, delay 0 steps, check yes
  max neighbors/atom: 2000, page size: 100000
  master list distance cutoff = 14
  ghost atom cutoff = 14
  binsize = 7, bins = 39 39 39
  1 neighbor lists, perpetual/occasional/extra = 1 0 0
  (1) pair lj/cut/coul/long, perpetual
      attributes: half, newton on
      pair build: half/bin/newton
      stencil: half/bin/3d/newton
      bin: standard
Per MPI rank memory allocation (min/avg/max) = 18.88 | 19.05 | 19.7 Mbytes
Step Temp E_pair E_mol TotEng Press 
       0    840.75478    396.58723    2035.2253    5426.6382    5.3049341 
      10    840.75478    402.60078    2005.5617    5402.9882    6.0467887 
Loop time of 0.385525 on 16 procs for 10 steps with 1196 atoms

94.5% CPU use with 16 MPI tasks x no OpenMP threads

Minimization stats:
  Stopping criterion = linesearch alpha is zero
  Energy initial, next-to-last, final = 
         2431.81248334      2408.16244684      2408.16244684
  Force two-norm initial, final = 88.7121 68.819
  Force max component initial, final = 11.9206 7.76444
  Final line search alpha, max atom move = 1.99867e-12 1.55186e-11
  Iterations, force evaluations = 10 81

MPI task timing breakdown:
Section |  min time  |  avg time  |  max time  |%varavg| %total
---------------------------------------------------------------
Pair    | 1.955e-05  | 0.036164   | 0.26141    |  37.6 |  9.38
Bond    | 3.5286e-05 | 0.0058633  | 0.034846   |  13.3 |  1.52
Kspace  | 0.084374   | 0.33936    | 0.3821     |  14.1 | 88.03
Neigh   | 0          | 0          | 0          |   0.0 |  0.00
Comm    | 4.673e-05  | 0.0015063  | 0.0032897  |   3.8 |  0.39
Output  | 0          | 0          | 0          |   0.0 |  0.00
Modify  | 0          | 0          | 0          |   0.0 |  0.00
Other   |            | 0.002629   |            |       |  0.68

Nlocal:    74.75 ave 423 max 0 min
Histogram: 9 4 1 0 0 0 0 0 1 1
Nghost:    249.625 ave 630 max 0 min
Histogram: 8 0 0 0 1 0 0 3 2 2
Neighs:    6220.44 ave 43733 max 0 min
Histogram: 12 1 1 0 0 0 1 0 0 1

Total # of neighbors = 99527
Ave neighs/atom = 83.2166
Ave special neighs/atom = 11.092
Neighbor list builds = 0
Dangerous builds = 0
timestep        1
fix             pysimm_md all nvt temp 300 300 100
run             5000
PPPM initialization ...
  using 12-bit tables for long-range coulomb (../kspace.cpp:332)
  G vector (1/distance) = 0.0857751
  grid = 20 20 20
  stencil order = 5
  estimated absolute RMS force accuracy = 0.0325667
  estimated relative force accuracy = 9.80737e-05
  using double precision KISS FFT
  3d grid and FFT values/proc = 2250 800
Per MPI rank memory allocation (min/avg/max) = 17.76 | 17.93 | 18.57 Mbytes
Step Temp E_pair E_mol TotEng Press 
      10    840.75478    402.60078    2005.5617    5402.9882    6.0467887 
    5010    302.86986    410.40803    2541.2613    4030.5124    1.3031576 
Loop time of 7.96028 on 16 procs for 5000 steps with 1196 atoms

Performance: 54.269 ns/day, 0.442 hours/ns, 628.119 timesteps/s
94.5% CPU use with 16 MPI tasks x no OpenMP threads

MPI task timing breakdown:
Section |  min time  |  avg time  |  max time  |%varavg| %total
---------------------------------------------------------------
Pair    | 0.000489   | 0.69757    | 4.287      | 133.1 |  8.76
Bond    | 0.00096464 | 0.16286    | 0.83464    |  57.7 |  2.05
Kspace  | 2.4253     | 6.1326     | 6.8835     |  46.9 | 77.04
Neigh   | 0.22832    | 0.23137    | 0.23418    |   0.5 |  2.91
Comm    | 0.010906   | 0.28563    | 0.74655    |  58.1 |  3.59
Output  | 2.408e-05  | 2.5406e-05 | 3.3855e-05 |   0.0 |  0.00
Modify  | 0.03643    | 0.42636    | 0.80941    |  58.2 |  5.36
Other   |            | 0.02391    |            |       |  0.30

Nlocal:    74.75 ave 358 max 0 min
Histogram: 10 0 1 2 1 0 0 1 0 1
Nghost:    219.562 ave 584 max 0 min
Histogram: 8 0 0 0 1 1 0 3 2 1
Neighs:    5488.75 ave 32280 max 0 min
Histogram: 10 1 2 1 0 1 0 0 0 1

Total # of neighbors = 87820
Ave neighs/atom = 73.4281
Ave special neighs/atom = 11.092
Neighbor list builds = 189
Dangerous builds = 1
unfix pysimm_md
write_dump all custom pysimm.dump.tmp id q x y z vx vy vz
quit


################################################################################
##################################    Init    ##################################
################################################################################
units           real
atom_style      full
pair_style      lj/cut/coul/long 12.0  12.0
kspace_style    pppm 1e-4
bond_style      harmonic
angle_style     harmonic
dihedral_style  fourier
improper_style  cvff
special_bonds   amber
pair_modify     mix arithmetic
read_data       temp.lmps
  orthogonal box = (-136.637 -136.637 -136.637) to (136.637 136.637 136.637)
  2 by 2 by 4 MPI processor grid
  reading atoms ...
  1252 atoms
  reading velocities ...
  1252 velocities
  scanning bonds ...
  3 = max bonds/atom
  scanning angles ...
  6 = max angles/atom
  scanning dihedrals ...
  24 = max dihedrals/atom
  scanning impropers ...
  2 = max impropers/atom
  reading bonds ...
  1371 bonds
  reading angles ...
  2392 angles
  reading dihedrals ...
  3628 dihedrals
  reading impropers ...
  392 impropers
  4 = max # of 1-2 neighbors
  10 = max # of 1-3 neighbors
  20 = max # of 1-4 neighbors
  22 = max # of special neighbors
  special bonds CPU = 0.000994205 secs
  read_data CPU = 0.028676 secs
################################################################################

min_style cg
minimize 1e-05 1e-05 10000 100000
WARNING: Using 'neigh_modify every 1 delay 0 check yes' setting during minimization (../min.cpp:190)
PPPM initialization ...
WARNING: System is not charge neutral, net charge = 1.8e-05 (../kspace.cpp:313)
  using 12-bit tables for long-range coulomb (../kspace.cpp:332)
  G vector (1/distance) = 0.0847613
  grid = 20 20 20
  stencil order = 5
  estimated absolute RMS force accuracy = 0.0333377
  estimated relative force accuracy = 0.000100395
  using double precision KISS FFT
  3d grid and FFT values/proc = 2250 800
Neighbor list info ...
  update every 1 steps, delay 0 steps, check yes
  max neighbors/atom: 2000, page size: 100000
  master list distance cutoff = 14
  ghost atom cutoff = 14
  binsize = 7, bins = 40 40 40
  1 neighbor lists, perpetual/occasional/extra = 1 0 0
  (1) pair lj/cut/coul/long, perpetual
      attributes: half, newton on
      pair build: half/bin/newton
      stencil: half/bin/3d/newton
      bin: standard
Per MPI rank memory allocation (min/avg/max) = 18.88 | 19.18 | 19.72 Mbytes
Step Temp E_pair E_mol TotEng Press 
       0    1546.6765    378.80668    2083.8262    8230.1794    12.601387 
      22    1546.6765    376.92094    2039.9779    8184.4454    12.852325 
Loop time of 0.42499 on 16 procs for 22 steps with 1252 atoms

92.9% CPU use with 16 MPI tasks x no OpenMP threads

Minimization stats:
  Stopping criterion = linesearch alpha is zero
  Energy initial, next-to-last, final = 
          2462.6328298      2416.89880878      2416.89880878
  Force two-norm initial, final = 76.76 56.947
  Force max component initial, final = 10.4666 6.20973
  Final line search alpha, max atom move = 3.36704e-12 2.09084e-11
  Iterations, force evaluations = 22 103

MPI task timing breakdown:
Section |  min time  |  avg time  |  max time  |%varavg| %total
---------------------------------------------------------------
Pair    | 9.0599e-06 | 0.049234   | 0.30447    |  35.9 | 11.58
Bond    | 3.1471e-05 | 0.0073864  | 0.028632   |  11.1 |  1.74
Kspace  | 0.085197   | 0.36283    | 0.42053    |  14.8 | 85.37
Neigh   | 0          | 0          | 0          |   0.0 |  0.00
Comm    | 4.1723e-05 | 0.0021361  | 0.0050104  |   4.5 |  0.50
Output  | 0          | 0          | 0          |   0.0 |  0.00
Modify  | 0          | 0          | 0          |   0.0 |  0.00
Other   |            | 0.003403   |            |       |  0.80

Nlocal:    78.25 ave 277 max 0 min
Histogram: 9 0 2 0 0 0 2 1 1 1
Nghost:    268.062 ave 609 max 0 min
Histogram: 8 0 0 0 0 0 0 2 2 4
Neighs:    6436.56 ave 37372 max 0 min
Histogram: 9 2 1 2 1 0 0 0 0 1

Total # of neighbors = 102985
Ave neighs/atom = 82.2564
Ave special neighs/atom = 11.0911
Neighbor list builds = 0
Dangerous builds = 0
timestep        1
fix             pysimm_md all nvt temp 300 300 100
run             5000
PPPM initialization ...
  using 12-bit tables for long-range coulomb (../kspace.cpp:332)
  G vector (1/distance) = 0.0847613
  grid = 20 20 20
  stencil order = 5
  estimated absolute RMS force accuracy = 0.0333377
  estimated relative force accuracy = 0.000100395
  using double precision KISS FFT
  3d grid and FFT values/proc = 2250 800
Per MPI rank memory allocation (min/avg/max) = 17.76 | 18.06 | 18.6 Mbytes
Step Temp E_pair E_mol TotEng Press 
      22    1546.6765    376.92094    2039.9779    8184.4454    12.852325 
    5022    298.74341    366.88099    2582.2564    4063.1496   0.15574629 
Loop time of 8.77412 on 16 procs for 5000 steps with 1252 atoms

Performance: 49.236 ns/day, 0.487 hours/ns, 569.858 timesteps/s
92.0% CPU use with 16 MPI tasks x no OpenMP threads

MPI task timing breakdown:
Section |  min time  |  avg time  |  max time  |%varavg| %total
---------------------------------------------------------------
Pair    | 0.00043654 | 0.83327    | 5.4847     | 150.2 |  9.50
Bond    | 0.00081635 | 0.16955    | 0.69439    |  53.6 |  1.93
Kspace  | 2.1661     | 6.9293     | 7.8214     |  54.0 | 78.97
Neigh   | 0.246      | 0.24988    | 0.25421    |   0.6 |  2.85
Comm    | 0.0091343  | 0.21649    | 0.64964    |  51.6 |  2.47
Output  | 2.408e-05  | 2.5004e-05 | 3.314e-05  |   0.0 |  0.00
Modify  | 0.028946   | 0.35544    | 0.66967    |  52.4 |  4.05
Other   |            | 0.02012    |            |       |  0.23

Nlocal:    78.25 ave 327 max 0 min
Histogram: 9 0 1 3 0 0 1 0 1 1
Nghost:    338.25 ave 798 max 0 min
Histogram: 8 0 0 0 0 0 1 2 3 2
Neighs:    7939.94 ave 51439 max 0 min
Histogram: 9 4 0 1 1 0 0 0 0 1

Total # of neighbors = 127039
Ave neighs/atom = 101.469
Ave special neighs/atom = 11.0911
Neighbor list builds = 174
Dangerous builds = 0
unfix pysimm_md
write_dump all custom pysimm.dump.tmp id q x y z vx vy vz
quit


################################################################################
##################################    Init    ##################################
################################################################################
units           real
atom_style      full
pair_style      lj/cut/coul/long 12.0  12.0
kspace_style    pppm 1e-4
bond_style      harmonic
angle_style     harmonic
dihedral_style  fourier
improper_style  cvff
special_bonds   amber
pair_modify     mix arithmetic
read_data       temp.lmps
  orthogonal box = (-138.676 -138.676 -138.676) to (138.676 138.676 138.676)
  2 by 2 by 4 MPI processor grid
  reading atoms ...
  1308 atoms
  reading velocities ...
  1308 velocities
  scanning bonds ...
  3 = max bonds/atom
  scanning angles ...
  6 = max angles/atom
  scanning dihedrals ...
  24 = max dihedrals/atom
  scanning impropers ...
  2 = max impropers/atom
  reading bonds ...
  1432 bonds
  reading angles ...
  2500 angles
  reading dihedrals ...
  3788 dihedrals
  reading impropers ...
  408 impropers
  4 = max # of 1-2 neighbors
  10 = max # of 1-3 neighbors
  20 = max # of 1-4 neighbors
  22 = max # of special neighbors
  special bonds CPU = 0.00155497 secs
  read_data CPU = 0.033 secs
################################################################################

min_style cg
minimize 1e-05 1e-05 10000 100000
WARNING: Using 'neigh_modify every 1 delay 0 check yes' setting during minimization (../min.cpp:190)
PPPM initialization ...
WARNING: System is not charge neutral, net charge = 1.7e-05 (../kspace.cpp:313)
  using 12-bit tables for long-range coulomb (../kspace.cpp:332)
  G vector (1/distance) = 0.083802
  grid = 20 20 20
  stencil order = 5
  estimated absolute RMS force accuracy = 0.0340818
[...]
  using 12-bit tables for long-range coulomb (../kspace.cpp:332)
  G vector (1/distance) = 0.0828296
  grid = 25 25 25
  stencil order = 5
  estimated absolute RMS force accuracy = 0.0348616
  estimated relative force accuracy = 0.000104985
  using double precision KISS FFT
  3d grid and FFT values/proc = 3888 1250
Per MPI rank memory allocation (min/avg/max) = 17.89 | 18.18 | 18.81 Mbytes
Step Temp E_pair E_mol TotEng Press 
      59    755.76617    879.64575    4036.7708    10933.633    5.8339692 
    5059     290.8506    955.73602     5027.021     8298.435   0.36551905 
Loop time of 11.7834 on 16 procs for 5000 steps with 2672 atoms

Performance: 36.662 ns/day, 0.655 hours/ns, 424.324 timesteps/s
93.2% CPU use with 16 MPI tasks x no OpenMP threads

MPI task timing breakdown:
Section |  min time  |  avg time  |  max time  |%varavg| %total
---------------------------------------------------------------
Pair    | 0.00042105 | 1.2345     | 5.6428     | 148.2 | 10.48
Bond    | 0.00091124 | 0.34768    | 1.4298     |  73.9 |  2.95
Kspace  | 4.1223     | 8.6931     | 10.033     |  58.9 | 73.77
Neigh   | 0.31233    | 0.31806    | 0.32501    |   0.8 |  2.70
Comm    | 0.012302   | 0.42341    | 1.2169     |  72.0 |  3.59
Output  | 2.6226e-05 | 2.8506e-05 | 3.6001e-05 |   0.0 |  0.00
Modify  | 0.063237   | 0.73298    | 1.3952     |  76.5 |  6.22
Other   |            | 0.03363    |            |       |  0.29

Nlocal:    167 ave 649 max 0 min
Histogram: 8 0 1 2 3 0 0 1 0 1
Nghost:    358.438 ave 918 max 0 min
Histogram: 8 0 0 0 0 0 3 1 3 1
Neighs:    9781.94 ave 46332 max 0 min
Histogram: 8 1 2 3 0 0 0 1 0 1

Total # of neighbors = 156511
Ave neighs/atom = 58.5745
Ave special neighs/atom = 11.1025
Neighbor list builds = 195
Dangerous builds = 0
unfix pysimm_md
write_dump all custom pysimm.dump.tmp id q x y z vx vy vz
quit


################################################################################
##################################    Init    ##################################
################################################################################
units           real
atom_style      full
pair_style      lj/cut/coul/long 12.0  12.0
kspace_style    pppm 1e-4
bond_style      harmonic
angle_style     harmonic
dihedral_style  fourier
improper_style  cvff
special_bonds   amber
pair_modify     mix arithmetic
read_data       temp.lmps
  orthogonal box = (-182.358 -182.358 -182.358) to (182.358 182.358 182.358)
  2 by 2 by 4 MPI processor grid
  reading atoms ...
  2740 atoms
  reading velocities ...
  2740 velocities
  scanning bonds ...
  3 = max bonds/atom
  scanning angles ...
  6 = max angles/atom
  scanning dihedrals ...
  24 = max dihedrals/atom
  scanning impropers ...
  2 = max impropers/atom
  reading bonds ...
  3005 bonds
  reading angles ...
  5231 angles
  reading dihedrals ...
  7978 dihedrals
  reading impropers ...
  872 impropers
  4 = max # of 1-2 neighbors
  10 = max # of 1-3 neighbors
  20 = max # of 1-4 neighbors
  22 = max # of special neighbors
  special bonds CPU = 0.00191808 secs
  read_data CPU = 0.0551641 secs
################################################################################

min_style cg
minimize 1e-05 1e-05 10000 100000
WARNING: Using 'neigh_modify every 1 delay 0 check yes' setting during minimization (../min.cpp:190)
PPPM initialization ...
WARNING: System is not charge neutral, net charge = 5.6e-05 (../kspace.cpp:313)
  using 12-bit tables for long-range coulomb (../kspace.cpp:332)
  G vector (1/distance) = 0.0805638
  grid = 25 25 25
  stencil order = 5
  estimated absolute RMS force accuracy = 0.0355115
  estimated relative force accuracy = 0.000106942
  using double precision KISS FFT
  3d grid and FFT values/proc = 3888 1250
Neighbor list info ...
  update every 1 steps, delay 0 steps, check yes
  max neighbors/atom: 2000, page size: 100000
  master list distance cutoff = 14
  ghost atom cutoff = 14
  binsize = 7, bins = 53 53 53
  1 neighbor lists, perpetual/occasional/extra = 1 0 0
  (1) pair lj/cut/coul/long, perpetual
      attributes: half, newton on
      pair build: half/bin/newton
      stencil: half/bin/3d/newton
      bin: standard
Per MPI rank memory allocation (min/avg/max) = 19.02 | 19.29 | 20.34 Mbytes
Step Temp E_pair E_mol TotEng Press 
       0    442.50925    771.29115     4369.079    8753.2099    2.9537773 
      11    442.50925    770.82891    4339.7511    8723.4197    3.0375786 
Loop time of 0.831956 on 16 procs for 11 steps with 2740 atoms

91.6% CPU use with 16 MPI tasks x no OpenMP threads

Minimization stats:
  Stopping criterion = linesearch alpha is zero
  Energy initial, next-to-last, final = 
         5140.37018603        5110.580049        5110.580049
  Force two-norm initial, final = 101.396 76.2671
  Force max component initial, final = 12.7678 8.09398
  Final line search alpha, max atom move = 1.81172e-12 1.4664e-11
  Iterations, force evaluations = 11 83

MPI task timing breakdown:
Section |  min time  |  avg time  |  max time  |%varavg| %total
---------------------------------------------------------------
Pair    | 1.1206e-05 | 0.072935   | 0.56593    |  54.1 |  8.77
Bond    | 3.5048e-05 | 0.011991   | 0.08435    |  20.3 |  1.44
Kspace  | 0.1738     | 0.7408     | 0.82654    |  19.6 | 89.04
Neigh   | 0          | 0          | 0          |   0.0 |  0.00
Comm    | 3.0279e-05 | 0.0014171  | 0.0047503  |   4.1 |  0.17
Output  | 0          | 0          | 0          |   0.0 |  0.00
Modify  | 0          | 0          | 0          |   0.0 |  0.00
Other   |            | 0.004813   |            |       |  0.58

Nlocal:    171.25 ave 1191 max 0 min
Histogram: 10 3 1 0 0 1 0 0 0 1
Nghost:    206.938 ave 822 max 0 min
Histogram: 8 0 1 3 0 2 1 0 0 1
Neighs:    12998.1 ave 100169 max 0 min
Histogram: 11 2 1 0 1 0 0 0 0 1

Total # of neighbors = 207970
Ave neighs/atom = 75.9015
Ave special neighs/atom = 11.1124
Neighbor list builds = 0
Dangerous builds = 0
timestep        1
fix             pysimm_md all nvt temp 300 300 100
run             5000
PPPM initialization ...
  using 12-bit tables for long-range coulomb (../kspace.cpp:332)
  G vector (1/distance) = 0.0805638
  grid = 25 25 25
  stencil order = 5
  estimated absolute RMS force accuracy = 0.0355115
  estimated relative force accuracy = 0.000106942
  using double precision KISS FFT
  3d grid and FFT values/proc = 3888 1250
Per MPI rank memory allocation (min/avg/max) = 17.9 | 18.16 | 19.22 Mbytes
Step Temp E_pair E_mol TotEng Press 
      11    442.50925    770.82891    4339.7511    8723.4197    3.0375786 
    5011    308.61386     817.7523    5611.3034    8948.7147  -0.17291615 
Loop time of 21.1449 on 16 procs for 5000 steps with 2740 atoms

Performance: 20.430 ns/day, 1.175 hours/ns, 236.464 timesteps/s
93.1% CPU use with 16 MPI tasks x no OpenMP threads

MPI task timing breakdown:
Section |  min time  |  avg time  |  max time  |%varavg| %total
---------------------------------------------------------------
Pair    | 0.0004909  | 1.5073     | 11.782     | 244.8 |  7.13
Bond    | 0.00089359 | 0.35231    | 2.479      | 108.2 |  1.67
Kspace  | 5.674      | 16.301     | 17.917     |  77.2 | 77.09
Neigh   | 0.86417    | 0.87737    | 0.889      |   0.8 |  4.15
Comm    | 0.010192   | 0.55833    | 1.9685     | 100.0 |  2.64
Output  | 2.7895e-05 | 3.0592e-05 | 3.9101e-05 |   0.0 |  0.00
Modify  | 0.083736   | 1.5031     | 2.2962     |  74.3 |  7.11
Other   |            | 0.04568    |            |       |  0.22

Nlocal:    171.25 ave 1268 max 0 min
Histogram: 10 3 1 0 1 0 0 0 0 1
Nghost:    175.25 ave 799 max 0 min
Histogram: 9 0 1 2 2 1 0 0 0 1
Neighs:    13864.8 ave 116391 max 0 min
Histogram: 11 3 0 0 1 0 0 0 0 1

Total # of neighbors = 221837
Ave neighs/atom = 80.9624
Ave special neighs/atom = 11.1124
Neighbor list builds = 266
Dangerous builds = 8
unfix pysimm_md
write_dump all custom pysimm.dump.tmp id q x y z vx vy vz
quit


################################################################################
##################################    Init    ##################################
################################################################################
units           real
atom_style      full
pair_style      lj/cut/coul/long 12.0  12.0
kspace_style    pppm 1e-4
bond_style      harmonic
angle_style     harmonic
dihedral_style  fourier
improper_style  cvff
special_bonds   amber
pair_modify     mix arithmetic
read_data       temp.lmps
  orthogonal box = (-183.616 -183.616 -183.616) to (183.616 183.616 183.616)
  2 by 2 by 4 MPI processor grid
  reading atoms ...
  2780 atoms
  reading velocities ...
  2780 velocities
  scanning bonds ...
  3 = max bonds/atom
  scanning angles ...
  6 = max angles/atom
  scanning dihedrals ...
  24 = max dihedrals/atom
  scanning impropers ...
  2 = max impropers/atom
  reading bonds ...
  3042 bonds
  reading angles ...
  5323 angles
  reading dihedrals ...
  8042 dihedrals
  reading impropers ...
  856 impropers
  4 = max # of 1-2 neighbors
  10 = max # of 1-3 neighbors
  20 = max # of 1-4 neighbors
  22 = max # of special neighbors
  special bonds CPU = 0.00209904 secs
  read_data CPU = 0.0558791 secs
################################################################################

min_style cg
minimize 1e-05 1e-05 10000 100000
WARNING: Using 'neigh_modify every 1 delay 0 check yes' setting during minimization (../min.cpp:190)
PPPM initialization ...
WARNING: System is not charge neutral, net charge = 2.3e-05 (../kspace.cpp:313)
  using 12-bit tables for long-range coulomb (../kspace.cpp:332)
  G vector (1/distance) = 0.0801318
  grid = 25 25 25
  stencil order = 5
  estimated absolute RMS force accuracy = 0.0354394
  estimated relative force accuracy = 0.000106725
  using double precision KISS FFT
  3d grid and FFT values/proc = 3888 1250
Neighbor list info ...
  update every 1 steps, delay 0 steps, check yes
  max neighbors/atom: 2000, page size: 100000
  master list distance cutoff = 14
  ghost atom cutoff = 14
  binsize = 7, bins = 53 53 53
  1 neighbor lists, perpetual/occasional/extra = 1 0 0
  (1) pair lj/cut/coul/long, perpetual
      attributes: half, newton on
      pair build: half/bin/newton
      stencil: half/bin/3d/newton
      bin: standard
Per MPI rank memory allocation (min/avg/max) = 19.03 | 19.32 | 19.96 Mbytes
Step Temp E_pair E_mol TotEng Press 
       0    585.88597    799.36301    4139.9912    9792.6409    4.6339242 
      32    585.88597    777.28324    4065.8936    9696.4635    4.4105889 
Loop time of 0.711166 on 16 procs for 32 steps with 2780 atoms

92.2% CPU use with 16 MPI tasks x no OpenMP threads

Minimization stats:
  Stopping criterion = linesearch alpha is zero
  Energy initial, next-to-last, final = 
         4939.35418727      4843.17679438      4843.17679438
  Force two-norm initial, final = 100.9 73.9793
  Force max component initial, final = 11.234 7.50327
  Final line search alpha, max atom move = 1.82721e-12 1.37101e-11
  Iterations, force evaluations = 32 123

MPI task timing breakdown:
Section |  min time  |  avg time  |  max time  |%varavg| %total
---------------------------------------------------------------
Pair    | 1.7166e-05 | 0.10178    | 0.4587     |  50.6 | 14.31
Bond    | 3.8385e-05 | 0.016219   | 0.071842   |  19.6 |  2.28
Kspace  | 0.1718     | 0.58221    | 0.70139    |  24.5 | 81.87
Neigh   | 0.002744   | 0.0028322  | 0.002892   |   0.1 |  0.40
Comm    | 0.00011086 | 0.0025104  | 0.0059936  |   4.8 |  0.35
Output  | 0          | 0          | 0          |   0.0 |  0.00
Modify  | 0          | 0          | 0          |   0.0 |  0.00
Other   |            | 0.005612   |            |       |  0.79

Nlocal:    173.75 ave 759 max 0 min
Histogram: 11 0 1 0 0 0 2 0 0 2
Nghost:    302.062 ave 730 max 0 min
Histogram: 8 0 0 0 0 1 0 3 1 3
Neighs:    13636.1 ave 61210 max 0 min
Histogram: 11 1 0 0 0 0 2 0 0 2

Total # of neighbors = 218177
Ave neighs/atom = 78.4809
Ave special neighs/atom = 11.095
Neighbor list builds = 1
Dangerous builds = 0
timestep        1
fix             pysimm_md all nvt temp 300 300 100
run             5000
PPPM initialization ...
  using 12-bit tables for long-range coulomb (../kspace.cpp:332)
  G vector (1/distance) = 0.0801318
  grid = 25 25 25
  stencil order = 5
  estimated absolute RMS force accuracy = 0.0354394
  estimated relative force accuracy = 0.000106725
  using double precision KISS FFT
  3d grid and FFT values/proc = 3888 1250
Per MPI rank memory allocation (min/avg/max) = 17.9 | 18.2 | 18.83 Mbytes
Step Temp E_pair E_mol TotEng Press 
      32    585.88597    777.28324    4065.8936    9696.4635    4.4105889 
    5032    308.45249    898.09217    5663.0325    9116.2437    1.1771362 
Loop time of 18.4076 on 16 procs for 5000 steps with 2780 atoms

Performance: 23.469 ns/day, 1.023 hours/ns, 271.628 timesteps/s
92.6% CPU use with 16 MPI tasks x no OpenMP threads

MPI task timing breakdown:
Section |  min time  |  avg time  |  max time  |%varavg| %total
---------------------------------------------------------------
Pair    | 0.00044632 | 1.6056     | 9.9542     | 224.5 |  8.72
Bond    | 0.00094247 | 0.36046    | 2.1204     | 101.3 |  1.96
Kspace  | 5.1336     | 13.776     | 15.49      |  79.7 | 74.84
Neigh   | 0.90507    | 0.91928    | 0.93255    |   0.9 |  4.99
Comm    | 0.013872   | 0.55347    | 1.8952     |  92.1 |  3.01
Output  | 2.6941e-05 | 2.9579e-05 | 3.9101e-05 |   0.0 |  0.00
Modify  | 0.052968   | 1.1612     | 1.9602     |  76.5 |  6.31
Other   |            | 0.03102    |            |       |  0.17

Nlocal:    173.75 ave 1192 max 0 min
Histogram: 12 0 0 1 2 0 0 0 0 1
Nghost:    231.438 ave 699 max 0 min
Histogram: 8 0 0 1 1 1 1 3 0 1
Neighs:    13399.2 ave 104708 max 0 min
Histogram: 12 0 1 1 1 0 0 0 0 1

Total # of neighbors = 214387
Ave neighs/atom = 77.1176
Ave special neighs/atom = 11.095
Neighbor list builds = 324
Dangerous builds = 13
unfix pysimm_md
write_dump all custom pysimm.dump.tmp id q x y z vx vy vz
quit


################################################################################
##################################    Init    ##################################
################################################################################
units           real
atom_style      full
pair_style      lj/cut/coul/long 12.0  12.0
kspace_style    pppm 1e-4
bond_style      harmonic
angle_style     harmonic
dihedral_style  fourier
improper_style  cvff
special_bonds   amber
pair_modify     mix arithmetic
read_data       temp.lmps
  orthogonal box = (-184.856 -184.856 -184.856) to (184.856 184.856 184.856)
  2 by 2 by 4 MPI processor grid
  reading atoms ...
  2844 atoms
  reading velocities ...
  2844 velocities
  scanning bonds ...
  3 = max bonds/atom
  scanning angles ...
  6 = max angles/atom
  scanning dihedrals ...
  24 = max dihedrals/atom
  scanning impropers ...
  2 = max impropers/atom
  reading bonds ...
  3115 bonds
  reading angles ...
  5439 angles
  reading dihedrals ...
  8250 dihedrals
  reading impropers ...
  888 impropers
  4 = max # of 1-2 neighbors
  10 = max # of 1-3 neighbors
  20 = max # of 1-4 neighbors
  22 = max # of special neighbors
  special bonds CPU = 0.001647 secs
  read_data CPU = 0.055728 secs
################################################################################

min_style cg
minimize 1e-05 1e-05 10000 100000
WARNING: Using 'neigh_modify every 1 delay 0 check yes' setting during minimization (../min.cpp:190)
PPPM initialization ...
WARNING: System is not charge neutral, net charge = 3.8e-05 (../kspace.cpp:313)
  using 12-bit tables for long-range coulomb (../kspace.cpp:332)
  G vector (1/distance) = 0.0797082
  grid = 25 25 25
  stencil order = 5
  estimated absolute RMS force accuracy = 0.0359655
  estimated relative force accuracy = 0.000108309
  using double precision KISS FFT
  3d grid and FFT values/proc = 3888 1250
Neighbor list info ...
  update every 1 steps, delay 0 steps, check yes
  max neighbors/atom: 2000, page size: 100000
  master list distance cutoff = 14
  ghost atom cutoff = 14
  binsize = 7, bins = 53 53 53
  1 neighbor lists, perpetual/occasional/extra = 1 0 0
  (1) pair lj/cut/coul/long, perpetual
      attributes: half, newton on
      pair build: half/bin/newton
      stencil: half/bin/3d/newton
      bin: standard
Per MPI rank memory allocation (min/avg/max) = 19.03 | 19.32 | 19.94 Mbytes
Step Temp E_pair E_mol TotEng Press 
       0    480.72776    785.42231    4398.1986    9257.5209    3.1675107 
      14    480.72776    777.68243    4359.0906     9210.673    3.5239133 
Loop time of 0.738709 on 16 procs for 14 steps with 2844 atoms

92.2% CPU use with 16 MPI tasks x no OpenMP threads

Minimization stats:
  Stopping criterion = linesearch alpha is zero
  Energy initial, next-to-last, final = 
         5183.62091418      5136.77300655      5136.77300655
  Force two-norm initial, final = 103.762 74.838
  Force max component initial, final = 11.5019 8.94317
  Final line search alpha, max atom move = 1.52606e-12 1.36478e-11
  Iterations, force evaluations = 14 89

MPI task timing breakdown:
Section |  min time  |  avg time  |  max time  |%varavg| %total
---------------------------------------------------------------
Pair    | 1.0967e-05 | 0.080587   | 0.51707    |  48.3 | 10.91
Bond    | 2.861e-05  | 0.01324    | 0.063536   |  17.2 |  1.79
Kspace  | 0.15059    | 0.63851    | 0.73334    |  19.6 | 86.44
Neigh   | 0          | 0          | 0          |   0.0 |  0.00
Comm    | 4.22e-05   | 0.0021121  | 0.0048406  |   4.6 |  0.29
Output  | 0          | 0          | 0          |   0.0 |  0.00
Modify  | 0          | 0          | 0          |   0.0 |  0.00
Other   |            | 0.004258   |            |       |  0.58

Nlocal:    177.75 ave 848 max 0 min
Histogram: 9 2 1 0 2 0 0 0 1 1
Nghost:    356.125 ave 1040 max 0 min
Histogram: 8 0 0 0 0 2 3 2 0 1
Neighs:    13506.6 ave 82929 max 0 min
Histogram: 9 3 1 1 0 1 0 0 0 1

Total # of neighbors = 216106
Ave neighs/atom = 75.9866
Ave special neighs/atom = 11.1027
Neighbor list builds = 0
Dangerous builds = 0
timestep        1
fix             pysimm_md all nvt temp 300 300 100
run             5000
PPPM initialization ...
  using 12-bit tables for long-range coulomb (../kspace.cpp:332)
  G vector (1/distance) = 0.0797082
  grid = 25 25 25
  stencil order = 5
  estimated absolute RMS force accuracy = 0.0359655
  estimated relative force accuracy = 0.000108309
  using double precision KISS FFT
  3d grid and FFT values/proc = 3888 1250
Per MPI rank memory allocation (min/avg/max) = 17.9 | 18.2 | 18.81 Mbytes
Step Temp E_pair E_mol TotEng Press 
      14    480.72776    777.68243    4359.0906     9210.673    3.5239133 
    5014    296.02523    847.15003    5827.1079    9182.9068  -0.67202542 
Loop time of 16.5498 on 16 procs for 5000 steps with 2844 atoms

Performance: 26.103 ns/day, 0.919 hours/ns, 302.119 timesteps/s
93.3% CPU use with 16 MPI tasks x no OpenMP threads

MPI task timing breakdown:
Section |  min time  |  avg time  |  max time  |%varavg| %total
---------------------------------------------------------------
Pair    | 0.00045323 | 1.6114     | 9.4754     | 196.5 |  9.74
Bond    | 0.00089645 | 0.36721    | 1.637      |  83.7 |  2.22
Kspace  | 4.4543     | 12.503     | 14.224     |  73.1 | 75.55
Neigh   | 0.70358    | 0.71229    | 0.72045    |   0.7 |  4.30
Comm    | 0.018544   | 0.50315    | 1.5094     |  81.2 |  3.04
Output  | 2.5988e-05 | 2.721e-05  | 3.6001e-05 |   0.0 |  0.00
Modify  | 0.071515   | 0.82547    | 1.5719     |  81.4 |  4.99
Other   |            | 0.02746    |            |       |  0.17

Nlocal:    177.75 ave 754 max 0 min
Histogram: 9 1 1 2 0 0 0 1 1 1
Nghost:    300.875 ave 658 max 0 min
Histogram: 8 0 0 0 0 0 0 1 2 5
Neighs:    14133.8 ave 78289 max 0 min
Histogram: 9 2 1 1 1 1 0 0 0 1

Total # of neighbors = 226141
Ave neighs/atom = 79.5151
Ave special neighs/atom = 11.1027
Neighbor list builds = 307
Dangerous builds = 17
unfix pysimm_md
write_dump all custom pysimm.dump.tmp id q x y z vx vy vz
quit
