
Host: node24

Timers On : Thu Jan 19 12:26:45 2023
Timers Off: Thu Jan 19 19:17:37 2023

Wall Time:    24651.66 seconds

                                                       Time (seconds)
Module                                       User      System        Wall        Calls

--------------------------------------------------------------------------------------

**************************************************************************************
