pySIMM System Object

206 atoms
205 bonds
374 angles
484 dihedrals
17 impropers

6 atom types
7 bond types
12 angle types
10 dihedral types
1 improper types

-83.010948 83.010948 xlo xhi
-83.010948 83.010948 ylo yhi
-83.010948 83.010948 zlo zhi

Masses

   1	12.01	# c3
   2	1.008	# hc
   3	16.0	# os
   4	1.008	# h1
   5	12.01	# c
   6	16.0	# o

Pair Coeffs

   1	0.1094	3.3996695084235347	# c3
   2	0.0157	2.649532787749369	# hc
   3	0.17	3.0000123434657784	# os
   4	0.0157	2.471353044121301	# h1
   5	0.086	3.3996695084235347	# c
   6	0.21	2.959921901149463	# o

Bond Coeffs

   1	637.7	1.2183	# c,o
   2	330.6	1.0969	# c3,h1
   3	308.6	1.4316	# c3,os
   4	313.0	1.5241	# c,c3
   5	390.8	1.3584	# c,os
   6	300.9	1.5375	# c3,c3
   7	330.6	1.0969	# c3,hc

Angle Coeffs

   1	46.39	109.56	# c3,c3,h1
   2	46.93	108.77	# c,c3,hc
   3	68.0	107.97	# c3,c3,os
   4	68.89	110.72	# c3,c,os
   5	46.34	109.8	# c3,c3,hc
   6	63.28	115.98	# c,os,c3
   7	50.8	109.78	# h1,c3,os
   8	67.4	123.2	# c3,c,o
   9	39.4	107.58	# hc,c3,hc
  10	39.24	108.46	# h1,c3,h1
  11	75.32	123.25	# o,c,os
  12	62.86	111.51	# c3,c3,c3

Dihedral Coeffs

   1	1	0.0	2	180	# X,c,c3,X
   2	1	0.3833333333333333	3	0	# X,c3,os,X
   3	3	0.8	1	0	0.0	2	0	0.08	3	180	# hc,c3,c,o
   4	3	2.7	2	180	0.0	1	0	1.15	3	0	# c3,c,os,c3
   5	1	0.15555555555555556	3	0	# X,c3,c3,X
   6	2	2.7	2	180	1.4	1	180	# o,c,os,c3
   7	2	0.383	3	0	0.8	1	180	# c3,c3,os,c
   8	2	0.0	3	0	0.25	1	0	# hc,c3,c3,os
   9	1	0.16	3	0	# hc,c3,c3,c3
  10	3	0.18	3	0	0.25	2	180	0.2	1	180	# c3,c3,c3,c3

Improper Coeffs

   1	10.5	-1	2	# c,X,X,o

Atoms

   1	1	1	-0.003445	1.34518	1.58304	-7.56163
   2	1	1	0.299845	2.42398	1.87121	-8.63906
   3	1	2	0.023286	1.74462	0.889838	-6.81179
   4	1	2	-0.011958	1.13456	2.51525	-7.02242
   5	1	3	-0.518063	3.09588	0.656466	-9.02863
   6	1	4	0.011666	3.15292	2.5953	-8.25262
   7	1	5	0.843192	4.07314	0.159151	-8.22897
   8	1	1	-0.399874	4.57128	-1.16897	-8.74527
   9	1	2	0.119224	3.72859	-1.86244	-8.82503
  10	1	2	0.109051	5.31803	-1.57298	-8.0534
  11	1	2	0.118031	5.0194	-1.03034	-9.73372
  12	1	6	-0.590955	4.4629	0.670874	-7.19905
  13	1	1	-0.003445	0.176703	-0.261702	-8.96423
  14	1	1	0.299845	0.00790697	1.02225	-8.11825
  15	1	2	0.023286	0.72671	-1.00582	-8.37542
  16	1	2	-0.011958	0.799264	-0.0404843	-9.83924
  17	1	3	-0.518063	-0.610812	2.03559	-8.93881
  18	1	4	0.011666	-0.624059	0.775885	-7.25737
  19	1	5	0.843192	-1.51741	2.87338	-8.36873
  20	1	1	-0.399874	-1.9449	3.96192	-9.32004
  21	1	2	0.119224	-2.66065	3.55289	-10.0383
  22	1	2	0.109051	-1.07171	4.34994	-9.85379
  23	1	2	0.118031	-2.41267	4.77135	-8.74913
  24	1	6	-0.590955	-1.99834	2.7374	-7.26349
  25	1	1	-0.003445	-2.2793	-1.10259	-8.45944
  26	1	1	0.299845	-1.13752	-0.885301	-9.49567
  27	1	2	0.023286	-2.51357	-0.147213	-7.97871
  28	1	2	-0.011958	-3.18925	-1.38786	-9.0023
  29	1	3	-0.518063	-0.743279	-2.15718	-10.0402
  30	1	4	0.011666	-1.51374	-0.230569	-10.293
  31	1	5	0.843192	-1.52363	-2.76893	-10.9623
  32	1	1	-0.399874	-0.973896	-4.13744	-11.276
  33	1	2	0.119224	-1.62475	-4.63744	-11.9993
  34	1	2	0.109051	-0.926646	-4.72285	-10.352
  35	1	2	0.118031	0.0350509	-4.03541	-11.6869
  36	1	6	-0.590955	-2.54079	-2.31199	-11.4418
  37	1	1	-0.003445	-3.23284	-2.63685	-6.57511
  38	1	1	0.299845	-1.9849	-2.18525	-7.38725
  39	1	2	0.023286	-2.94634	-3.50578	-5.97917
  40	1	2	-0.011958	-3.99479	-3.01319	-7.27073
  41	1	3	-0.518063	-0.958887	-1.67103	-6.51609
  42	1	4	0.011666	-1.60722	-3.07392	-7.90836
  43	1	5	0.843192	-0.235458	-2.53651	-5.75813
  44	1	1	-0.399874	0.924434	-1.82594	-5.1075
  45	1	2	0.119224	1.60003	-1.45443	-5.88251
  46	1	2	0.109051	1.45969	-2.51951	-4.45215
  47	1	2	0.118031	0.553425	-0.982161	-4.52148
  48	1	6	-0.590955	-0.371476	-3.74371	-5.75311
  49	1	1	-0.003445	-4.92491	-2.10383	-4.6701
  50	1	1	0.299845	-3.86553	-1.54517	-5.67017
  51	1	2	0.023286	-5.49416	-2.90323	-5.16167
  52	1	2	-0.011958	-5.66606	-1.33066	-4.43384
  53	1	3	-0.518063	-4.52995	-0.626553	-6.55598
  54	1	4	0.011666	-3.06743	-1.02427	-5.12948
  55	1	5	0.843192	-4.79159	0.634684	-6.13092
  56	1	1	-0.399874	-5.45794	1.43181	-7.22491
  57	1	2	0.119224	-6.15142	0.789678	-7.77793
  58	1	2	0.109051	-4.68978	1.80551	-7.90838
  59	1	2	0.118031	-6.00312	2.27123	-6.78362
  60	1	6	-0.590955	-4.55019	1.06408	-5.01969
  61	1	1	-0.003445	-3.64795	-1.60839	-2.43015
  62	1	1	0.299845	-4.36311	-2.65063	-3.32998
  63	1	2	0.023286	-3.15869	-2.1289	-1.59831
  64	1	2	-0.011958	-2.84411	-1.13918	-3.00104
  65	1	3	-0.518063	-3.43395	-3.70608	-3.62214
  66	1	4	0.011666	-5.21526	-3.04613	-2.76693
  67	1	5	0.843192	-3.77052	-4.99153	-3.33373
  68	1	1	-0.399874	-2.77099	-5.95579	-3.92171
  69	1	2	0.119224	-2.72374	-6.85446	-3.29974
  70	1	2	0.109051	-1.78175	-5.48797	-3.97349
  71	1	2	0.118031	-3.093	-6.22143	-4.93287
  72	1	6	-0.590955	-4.77169	-5.34516	-2.74264
  73	1	1	-0.003445	-4.00677	0.485186	-0.844348
  74	1	1	0.299845	-4.61007	-0.516289	-1.8763
  75	1	2	0.023286	-4.0799	0.0867364	0.170862
  76	1	2	-0.011958	-4.62803	1.39132	-0.840424
  77	1	3	-0.518063	-5.78503	-1.16939	-1.33037
  78	1	4	0.011666	-4.93727	0.0830539	-2.73263
  79	1	5	0.843192	-5.70862	-2.02309	-0.268108
  80	1	1	-0.399874	-6.98493	-2.81023	-0.118532
  81	1	2	0.119224	-6.97327	-3.62533	-0.850094
  82	1	2	0.109051	-7.85055	-2.16733	-0.303509
  83	1	2	0.118031	-7.03695	-3.22896	0.890968
  84	1	6	-0.590955	-4.71968	-2.23391	0.405678
  85	1	1	-0.003445	-1.94624	1.59831	0.158023
  86	1	1	0.299845	-2.53111	0.889206	-1.08641
  87	1	2	0.023286	-2.59033	2.45242	0.404908
  88	1	2	-0.011958	-1.99127	0.925792	1.02291
  89	1	3	-0.518063	-2.48789	1.8312	-2.17536
  90	1	4	0.011666	-1.92991	-0.00681364	-1.27565
  91	1	5	0.843192	-1.70795	1.58706	-3.26086
  92	1	1	-0.399874	-1.59101	2.81797	-4.11836
  93	1	2	0.119224	-2.55592	3.01617	-4.59504
  94	1	2	0.109051	-0.82821	2.65568	-4.88577
  95	1	2	0.118031	-1.30967	3.6717	-3.49479
  96	1	6	-0.590955	-1.01544	0.600723	-3.41471
  97	1	1	-0.003445	0.59733	1.04915	-0.267266
  98	1	1	0.299845	-0.502655	2.12243	-0.0348322
  99	1	2	0.023286	1.51171	1.58378	-0.553173
 100	1	2	-0.011958	0.34432	0.41335	-1.12405
 101	1	3	-0.518063	-0.16703	2.84955	1.16252
 102	1	4	0.011666	-0.51475	2.79373	-0.902254
 103	1	5	0.843192	0.45798	4.05016	1.0684
 104	1	1	-0.399874	0.842002	4.56232	2.43483
 105	1	2	0.119224	0.0270953	4.37007	3.1414
 106	1	2	0.109051	1.03384	5.63814	2.38111
 107	1	2	0.118031	1.74225	4.0434	2.77456
 108	1	6	-0.590955	0.742086	4.61583	0.0321674
 109	1	1	-0.003445	2.29409	-0.513676	0.914742
 110	1	1	0.299845	0.891532	0.163792	0.97336
 111	1	2	0.023286	2.85125	-0.149636	0.0417101
 112	1	2	-0.011958	2.17366	-1.59287	0.755058
 113	1	3	-0.518063	-0.126847	-0.849262	1.04233
 114	1	4	0.011666	0.830641	0.793566	1.86568
 115	1	5	0.843192	-0.415536	-1.38605	2.2569
 116	1	1	-0.399874	-1.53232	-2.3911	2.13669
 117	1	2	0.119224	-2.45444	-1.87492	1.85203
 118	1	2	0.109051	-1.67343	-2.90262	3.09362
 119	1	2	0.118031	-1.28131	-3.12222	1.36216
 120	1	6	-0.590955	0.0450705	-1.00101	3.31497
 121	1	1	-0.003445	3.48157	1.24444	2.38075
 122	1	1	0.299845	3.16076	-0.261086	2.18207
 123	1	2	0.023286	4.09435	1.57178	1.5311
 124	1	2	-0.011958	2.56731	1.84392	2.33775
 125	1	3	-0.518063	4.42656	-0.924046	1.99963
 126	1	4	0.011666	2.64402	-0.654674	3.06446
 127	1	5	0.843192	4.50796	-2.26933	2.1734
 128	1	1	-0.399874	5.87173	-2.79159	1.78802
 129	1	2	0.119224	5.82067	-3.20314	0.77529
 130	1	2	0.109051	6.17277	-3.5752	2.48987
 131	1	2	0.118031	6.60511	-1.97865	1.80854
 132	1	6	-0.590955	3.62854	-2.96952	2.63164
 133	1	1	-0.003445	3.34417	1.366	4.97734
 134	1	1	0.299845	4.21281	1.58852	3.70646
 135	1	2	0.023286	2.80776	2.29308	5.21788
 136	1	2	-0.011958	2.55371	0.635519	4.78084
 137	1	3	-0.518063	4.48758	3.00298	3.65983
 138	1	4	0.011666	5.14142	1.00755	3.78062
 139	1	5	0.843192	5.5354	3.45299	2.9253
 140	1	1	-0.399874	5.49903	4.95705	2.80348
 141	1	2	0.119224	6.51481	5.33569	2.65558
 142	1	2	0.109051	5.06398	5.39874	3.7059
 143	1	2	0.118031	4.87941	5.22146	1.94067
 144	1	6	-0.590955	6.37194	2.75264	2.39324
 145	1	1	-0.003445	4.55864	-0.578513	6.19763
 146	1	1	0.299845	4.15527	0.915814	6.22629
 147	1	2	0.023286	5.06251	-0.799963	5.24842
 148	1	2	-0.011958	5.29968	-0.760581	6.98801
 149	1	3	-0.518063	5.35959	1.69033	6.35745
 150	1	4	0.011666	3.55346	1.07383	7.12719
 151	1	5	0.843192	5.26079	2.93948	6.88509
 152	1	1	-0.399874	6.61169	3.60594	6.98917
 153	1	2	0.119224	7.40405	2.8993	6.72115
 154	1	2	0.109051	6.76357	3.9469	8.0184
 155	1	2	0.118031	6.64035	4.46086	6.30832
 156	1	6	-0.590955	4.23365	3.44307	7.29475
 157	1	1	-0.003445	2.69697	-1.47117	7.78901
 158	1	1	0.299845	3.37796	-1.57043	6.38902
 159	1	2	0.023286	2.41758	-2.46464	8.15749
 160	1	2	-0.011958	3.42062	-1.07941	8.51598
 161	1	3	-0.518063	3.94289	-2.87483	6.18227
 162	1	4	0.011666	2.6328	-1.39286	5.60337
 163	1	5	0.843192	3.11454	-3.90443	5.86698
 164	1	1	-0.399874	3.91534	-5.14786	5.56703
 165	1	2	0.119224	4.44257	-5.46668	6.47061
 166	1	2	0.109051	4.64358	-4.91954	4.78212
 167	1	2	0.118031	3.24249	-5.93886	5.22299
 168	1	6	-0.590955	1.89989	-3.85607	5.85831
 169	1	1	-0.003445	1.09079	0.176168	9.07336
 170	1	1	0.299845	1.45375	-0.539998	7.74008
 171	1	2	0.023286	1.95695	0.761052	9.40791
 172	1	2	-0.011958	0.890217	-0.554594	9.86563
 173	1	3	-0.518063	0.306717	-1.2025	7.17659
 174	1	4	0.011666	1.694	0.252637	7.03147
 175	1	5	0.843192	-0.322348	-2.23388	7.80089
 176	1	1	-0.399874	-1.62804	-2.52267	7.10489
 177	1	2	0.119224	-2.31476	-1.691	7.29038
 178	1	2	0.109051	-2.0527	-3.45255	7.49477
 179	1	2	0.118031	-1.44786	-2.61381	6.02939
 180	1	6	-0.590955	-0.0276173	-2.69534	8.8851
 181	1	1	-0.003445	0.194874	2.40891	8.07398
 182	1	1	0.299845	-0.132924	1.11914	8.88604
 183	1	2	0.023286	0.608076	3.19001	8.72093
 184	1	2	-0.011958	0.986734	2.20126	7.34618
 185	1	3	-0.518063	-0.762557	1.42316	10.1514
 186	1	4	0.011666	-0.881711	0.550912	8.32512
 187	1	5	0.843192	-0.130834	2.08614	11.1541
 188	1	1	-0.399874	-1.04609	2.24183	12.3459
 189	1	2	0.119224	-1.45078	3.25784	12.3583
 190	1	2	0.109051	-0.478339	2.05513	13.2624
 191	1	2	0.118031	-1.87107	1.52451	12.2787
 192	1	6	-0.590955	0.998865	2.5273	11.1156
 193	1	1	-0.003445	-2.13954	3.53013	8.16982
 194	1	1	0.299845	-0.9994	2.98503	7.28045
 195	1	2	0.023286	-2.94375	3.94806	7.55219
 196	1	2	-0.011958	-1.76876	4.32669	8.82693
 197	1	3	-0.518063	-1.5307	1.94186	6.44113
 198	1	4	0.011666	-0.607059	3.8091	6.67094
 199	1	5	0.843192	-2.06679	2.27115	5.23832
 200	1	1	-0.399874	-2.71352	1.07254	4.58885
 201	1	2	0.119224	-2.04748	0.207769	4.67458
 202	1	2	0.109051	-2.90794	1.28876	3.53384
 203	1	2	0.118031	-3.65453	0.857214	5.1036
 204	1	6	-0.590955	-2.03487	3.37511	4.73098
 205	1	4	0	1.94876	2.3246	-9.51741
 206	1	2	0	-2.57398	2.74233	8.79668

Velocities

   1	-0.000721997	0.000249238	0.000307003
   2	-0.000603421	0.000342547	0.00044566
   3	-0.000459029	0.000642123	0.000555759
   4	-0.00098033	0.000422981	-0.000128901
   5	-0.00028568	0.000678042	0.000194425
   6	-0.000760871	0.00055725	0.000401502
   7	-0.00163394	-0.000363577	0.000928585
   8	-0.000343131	0.000833531	-0.00033631
   9	0.000242402	8.19162e-05	-0.0010388
  10	0.00026436	0.000873917	-0.000711048
  11	-0.000528256	0.00257647	-0.000271317
  12	-0.00287392	-0.00167487	0.00227787
  13	0.000662452	-0.000405609	-0.000136096
  14	-6.59254e-05	-0.000404413	-0.000127648
  15	0.000661069	-0.000282317	7.94973e-05
  16	0.000891412	-0.000398126	-4.15368e-05
  17	-2.57364e-05	-0.000653519	-0.000591314
  18	-0.000134334	-0.000423464	-0.000286966
  19	-0.000170522	-0.000416718	-0.000885927
  20	0.000115206	-0.000989891	-0.00165169
  21	0.00124892	-0.00161397	-0.00240039
  22	0.000433205	-0.000583544	-0.000756048
  23	-0.00104286	-0.00113261	-0.00245696
  24	-0.00032553	0.000185388	-0.000836378
  25	0.000927774	0.000108244	-0.000215716
  26	0.000902963	-0.000479247	-0.000433692
  27	0.00126932	0.000215132	-0.000381243
  28	0.000730195	0.000391945	-7.02669e-05
  29	0.000400261	-0.000623231	-0.000711204
  30	0.00098153	-0.000433994	-0.00043247
  31	-0.000920039	-0.000884592	0.000412651
  32	-0.000826835	-0.000399203	-0.00163889
  33	-0.00116677	0.000578351	-0.00196922
  34	-0.000247753	-0.00174435	-0.00256898
  35	-0.0011481	0.000245176	-0.00217415
  36	-0.00183869	-0.0011081	0.00232024
  37	0.000670545	0.000552175	-0.000487852
  38	0.000838505	0.000181342	-0.000215404
  39	0.000312303	0.000397045	-0.000569625
  40	0.000640768	0.00088106	-0.000596925
  41	0.000858936	-0.000127113	-3.45529e-05
  42	0.000710119	8.82286e-05	-0.000245409
  43	0.000320473	-0.000512891	0.000154781
  44	7.07561e-05	-0.000995937	0.00115324
  45	0.000613826	-0.000733513	0.00174089
  46	-0.000430936	-0.0014683	0.00109325
  47	-0.000100865	-0.00122464	0.00141569
  48	-0.000164897	-0.000416939	1.1596e-05
  49	0.000855472	0.000534961	-0.000663021
  50	0.000996951	0.00062508	-0.000385491
  51	0.000913843	0.000670642	-0.000968464
  52	0.000782582	0.000460231	-0.00062559
  53	0.0012328	0.00112909	-0.00011791
  54	0.00107848	0.000270454	-0.000168165
  55	0.000890501	0.000822819	0.000535732
  56	0.000269971	0.00117096	0.00124481
  57	-0.000753826	0.00154702	0.00209129
  58	-0.000274805	0.000622137	0.000321922
  59	0.00126655	0.00158828	0.0017304
  60	0.000512038	0.000193141	0.000960356
  61	0.000751298	-0.000300213	-0.000245426
  62	0.00062424	0.000185471	-0.000707746
  63	0.000863355	-0.000754714	-0.000619718
  64	0.000739175	2.9649e-05	-1.99269e-06
  65	0.00049929	4.67805e-05	-0.000532522
  66	0.000421375	0.000254341	-0.000968976
  67	0.000126859	8.42215e-05	-0.000825974
  68	0.00127269	0.000135973	0.00110812
  69	0.000168062	0.000172938	0.00124888
  70	0.00131778	0.000257003	0.00301849
  71	0.00326041	0.000108735	0.000479793
  72	-0.000656982	8.78368e-05	-0.00214367
  73	0.000836398	-0.00144341	0.00115538
  74	0.000786383	-0.00064912	0.000443885
  75	0.00165295	-0.00271986	0.000720382
  76	0.000313422	-0.00182811	0.00246768
  77	0.000622494	-0.000593637	0.000194064
  78	0.000919132	-4.79865e-05	0.000832188
  79	0.000369199	-0.0015552	-0.000569259
  80	-0.00117111	0.00123774	0.000959109
  81	-0.00399855	0.00125869	0.000898947
  82	7.6337e-05	0.00324251	0.0020966
  83	-0.000894323	0.00136627	0.00101727
  84	0.000707769	-0.00350078	-0.001647
  85	7.01507e-05	0.000106848	0.000698335
  86	0.00042332	-0.000257318	0.000760686
  87	-0.000309588	-0.000169086	0.000664592
  88	0.000376755	0.000199934	0.000796331
  89	-0.000433603	-0.000100037	0.000783924
  90	0.0010293	0.000190813	0.000535695
  91	-0.000384681	0.000543149	0.000731401
  92	-0.00158099	0.000233499	0.000141993
  93	-0.00171866	-0.000943599	-6.86932e-05
  94	-0.0014067	0.000580146	0.000242984
  95	-0.00240731	0.00087737	-0.000365112
  96	0.000345333	0.000890778	0.000688402
  97	0.000269828	0.0011804	0.000892232
  98	-0.000200412	0.000785388	0.000612044
  99	0.000491424	0.00155147	0.00227874
 100	0.00127895	0.00175653	0.000180179
 101	-0.000969172	0.00127585	0.000469202
 102	-0.00053063	0.000714589	0.000560804
 103	0.00197417	-0.000168174	0.000109169
 104	-0.000610245	0.00106597	0.000418592
 105	-0.00194881	0.00170018	-0.000962835
 106	-0.000546194	0.00101623	-0.000221141
 107	-0.00125851	0.00131821	0.00250358
 108	0.0056148	-0.00236236	0.000111313
 109	-0.00106598	-0.00035789	0.000640028
 110	-0.000687131	0.000394749	0.000531365
 111	-0.00102536	-0.00122227	0.000294671
 112	-0.00156798	-0.000423083	0.00145984
 113	-0.00104013	0.000707879	0.000409082
 114	-0.000690893	0.000223444	0.000659112
 115	0.000213619	-0.00023664	0.000308872
 116	0.000477631	-0.000519168	0.000916391
 117	0.000327886	-0.000977032	0.000547587
 118	0.000602002	7.97043e-05	0.00127248
 119	0.000755265	-0.000982177	0.00144414
 120	0.00141968	-0.00105143	0.000143887
 121	-0.00123299	0.000155761	3.56139e-05
 122	-0.000949056	6.86904e-05	0.000380576
 123	-0.00189088	0.000343599	-0.000367526
 124	-0.00139086	-7.68272e-06	0.00085412
 125	-0.000861519	0.000215546	0.000486868
 126	-0.00076348	0.000177039	0.000511215
 127	-0.000484012	0.000371399	0.0013487
 128	-0.000319724	0.000596174	0.00171903
 129	0.000293667	0.00163158	0.00126601
 130	-0.000808001	-0.000119639	0.00113289
 131	-0.000292313	0.000545394	0.00299522
 132	-0.000251968	0.000385778	0.0019256
 133	-0.000449001	0.000251055	-0.000263325
 134	-0.000605871	-2.97315e-06	-0.000365976
 135	-0.000285857	0.000360805	-0.000272786
 136	-0.000653062	0.000419289	-8.11904e-05
 137	6.01983e-05	-0.000145038	-0.000245651
 138	-0.00082241	-0.000376274	-0.00064156
 139	-0.000302845	-0.000388938	-0.000821087
 140	0.00132699	-0.000211712	0.00131136
 141	0.00155484	-0.00116979	0.000429275
 142	0.0031071	-0.00103975	0.00258261
 143	0.00037191	0.00172715	0.00260066
 144	-0.00129713	-0.000694209	-0.00223127
 145	-0.000244295	7.33446e-05	-0.000692568
 146	-0.000292362	7.86423e-05	-0.000460366
 147	-7.61145e-05	0.000198871	-0.000643045
 148	-0.000386713	-8.54471e-05	-0.000600779
 149	-0.00031826	4.90843e-05	-0.000539549
 150	-0.000192413	3.97631e-05	-0.000357111
 151	-0.000518659	0.000552876	-0.00170269
 152	-0.000340759	0.000116973	-0.00124616
 153	-0.000500418	-0.000287938	-0.000636216
 154	-0.000767303	0.000288753	-0.00124424
 155	0.000324215	-0.000101178	-0.00148378
 156	-0.000652311	0.00118904	-0.00302073
 157	-0.000352783	0.000511423	-0.00102556
 158	-0.000402658	0.000252158	-0.000971996
 159	6.28694e-05	0.000552646	-0.000617521
 160	-0.000448976	0.000974263	-0.00120594
 161	-0.000711155	0.000101509	-0.000954608
 162	-0.000236132	0.000457933	-0.00105565
 163	-0.00097044	0.00019379	-0.000483994
 164	-0.00152023	-0.000369392	0.000390239
 165	-0.00145135	0.00020331	0.000549662
 166	-0.00159118	-0.00139468	3.50248e-05
 167	-0.00188946	-0.000462856	0.00126586
 168	-0.0010146	0.00051993	-0.000226049
 169	-0.000640223	-1.32235e-05	-0.000861142
 170	-0.000632674	0.000209446	-0.00100728
 171	-0.000411092	-0.000211878	-0.000872659
 172	-0.000538424	-9.59639e-05	-0.000980104
 173	-0.000482791	-0.000109133	-0.000931308
 174	-0.000906918	0.000408172	-0.000916983
 175	0.00042722	-0.000897032	-0.00120059
 176	0.00105368	-0.00218506	-0.00178271
 177	0.00071799	-0.00209387	-0.00339654
 178	0.00101079	-0.00177588	-0.000856329
 179	0.00187942	-0.00359243	-0.00155208
 180	0.000577057	-0.000675536	-0.00120261
 181	-0.000376218	0.000690318	0.000191182
 182	-0.000517154	0.00034333	-0.00023703
 183	-0.000803495	0.000515707	0.00084552
 184	5.46895e-05	0.00114127	0.000672966
 185	-0.000144791	0.000327854	3.03617e-06
 186	-0.000764726	0.000620433	-0.000305931
 187	0.00118883	-0.00114768	0.000386274
 188	0.00113702	0.000234862	0.000349143
 189	0.000810608	0.000147776	-0.00107116
 190	0.00144789	0.00180333	0.000519842
 191	0.00139462	-0.000116068	0.00153756
 192	0.00197	-0.00408211	0.00099031
 193	-6.00868e-05	0.000917907	-0.000706125
 194	5.49211e-05	0.000963221	-0.000365185
 195	0.000921327	0.00266663	-0.000764965
 196	0.000145909	-0.00074015	0.00125375
 197	0.000284565	0.000819411	-0.000280513
 198	0.000208283	0.000946088	-0.000311243
 199	-0.000302458	0.000342091	-0.000123005
 200	0.00165633	-0.000682144	-0.000423715
 201	0.00288465	0.000365395	-0.000714418
 202	0.00132926	-0.00066814	-0.000255639
 203	0.00212324	-0.00225922	-0.000530637
 204	-0.00246912	0.000625992	0.000539113
 205	-0.000743305	0.000101752	0.000582312
 206	-0.00107948	0.000295442	-0.00283644

Bonds

   1	6	1	2
   2	7	1	3
   3	7	1	4
   4	3	2	5
   5	2	2	6
   6	5	5	7
   7	4	7	8
   8	1	7	12
   9	7	8	9
  10	7	8	10
  11	7	8	11
  12	6	13	14
  13	7	13	15
  14	7	13	16
  15	3	14	17
  16	2	14	18
  17	5	17	19
  18	4	19	20
  19	1	19	24
  20	7	20	21
  21	7	20	22
  22	7	20	23
  23	6	1	14
  24	6	25	26
  25	7	25	27
  26	7	25	28
  27	3	26	29
  28	2	26	30
  29	5	29	31
  30	4	31	32
  31	1	31	36
  32	7	32	33
  33	7	32	34
  34	7	32	35
  35	6	13	26
  36	6	37	38
  37	7	37	39
  38	7	37	40
  39	3	38	41
  40	2	38	42
  41	5	41	43
  42	4	43	44
  43	1	43	48
  44	7	44	45
  45	7	44	46
  46	7	44	47
  47	6	25	38
  48	6	49	50
  49	7	49	51
  50	7	49	52
  51	3	50	53
  52	2	50	54
  53	5	53	55
  54	4	55	56
  55	1	55	60
  56	7	56	57
  57	7	56	58
  58	7	56	59
  59	6	37	50
  60	6	61	62
  61	7	61	63
  62	7	61	64
  63	3	62	65
  64	2	62	66
  65	5	65	67
  66	4	67	68
  67	1	67	72
  68	7	68	69
  69	7	68	70
  70	7	68	71
  71	6	49	62
  72	6	73	74
  73	7	73	75
  74	7	73	76
  75	3	74	77
  76	2	74	78
  77	5	77	79
  78	4	79	80
  79	1	79	84
  80	7	80	81
  81	7	80	82
  82	7	80	83
  83	6	61	74
  84	6	85	86
  85	7	85	87
  86	7	85	88
  87	3	86	89
  88	2	86	90
  89	5	89	91
  90	4	91	92
  91	1	91	96
  92	7	92	93
  93	7	92	94
  94	7	92	95
  95	6	73	86
  96	6	97	98
  97	7	97	99
  98	7	97	100
  99	3	98	101
 100	2	98	102
 101	5	101	103
 102	4	103	104
 103	1	103	108
 104	7	104	105
 105	7	104	106
 106	7	104	107
 107	6	85	98
 108	6	109	110
 109	7	109	111
 110	7	109	112
 111	3	110	113
 112	2	110	114
 113	5	113	115
 114	4	115	116
 115	1	115	120
 116	7	116	117
 117	7	116	118
 118	7	116	119
 119	6	97	110
 120	6	121	122
 121	7	121	123
 122	7	121	124
 123	3	122	125
 124	2	122	126
 125	5	125	127
 126	4	127	128
 127	1	127	132
 128	7	128	129
 129	7	128	130
 130	7	128	131
 131	6	109	122
 132	6	133	134
 133	7	133	135
 134	7	133	136
 135	3	134	137
 136	2	134	138
 137	5	137	139
 138	4	139	140
 139	1	139	144
 140	7	140	141
 141	7	140	142
 142	7	140	143
 143	6	121	134
 144	6	145	146
 145	7	145	147
 146	7	145	148
 147	3	146	149
 148	2	146	150
 149	5	149	151
 150	4	151	152
 151	1	151	156
 152	7	152	153
 153	7	152	154
 154	7	152	155
 155	6	133	146
 156	6	157	158
 157	7	157	159
 158	7	157	160
 159	3	158	161
 160	2	158	162
 161	5	161	163
 162	4	163	164
 163	1	163	168
 164	7	164	165
 165	7	164	166
 166	7	164	167
 167	6	145	158
 168	6	169	170
 169	7	169	171
 170	7	169	172
 171	3	170	173
 172	2	170	174
 173	5	173	175
 174	4	175	176
 175	1	175	180
 176	7	176	177
 177	7	176	178
 178	7	176	179
 179	6	157	170
 180	6	181	182
 181	7	181	183
 182	7	181	184
 183	3	182	185
 184	2	182	186
 185	5	185	187
 186	4	187	188
 187	1	187	192
 188	7	188	189
 189	7	188	190
 190	7	188	191
 191	6	169	182
 192	6	193	194
 193	7	193	195
 194	7	193	196
 195	3	194	197
 196	2	194	198
 197	5	197	199
 198	4	199	200
 199	1	199	204
 200	7	200	201
 201	7	200	202
 202	7	200	203
 203	6	181	194
 204	2	2	205
 205	7	193	206

Angles

   1	5	2	1	3
   2	5	2	1	4
   3	9	3	1	4
   4	3	1	2	5
   5	1	1	2	6
   6	7	5	2	6
   7	6	2	5	7
   8	4	5	7	8
   9	11	5	7	12
  10	8	8	7	12
  11	2	7	8	9
  12	2	7	8	10
  13	2	7	8	11
  14	9	9	8	10
  15	9	9	8	11
  16	9	10	8	11
  17	5	14	13	15
  18	5	14	13	16
  19	9	15	13	16
  20	3	13	14	17
  21	1	13	14	18
  22	7	17	14	18
  23	6	14	17	19
  24	4	17	19	20
  25	11	17	19	24
  26	8	20	19	24
  27	2	19	20	21
  28	2	19	20	22
  29	2	19	20	23
  30	9	21	20	22
  31	9	21	20	23
  32	9	22	20	23
  33	12	2	1	14
  34	5	3	1	14
  35	5	4	1	14
  36	12	1	14	13
  37	3	1	14	17
  38	1	1	14	18
  39	5	26	25	27
  40	5	26	25	28
  41	9	27	25	28
  42	3	25	26	29
  43	1	25	26	30
  44	7	29	26	30
  45	6	26	29	31
  46	4	29	31	32
  47	11	29	31	36
  48	8	32	31	36
  49	2	31	32	33
  50	2	31	32	34
  51	2	31	32	35
  52	9	33	32	34
  53	9	33	32	35
  54	9	34	32	35
  55	12	14	13	26
  56	5	15	13	26
  57	5	16	13	26
  58	12	13	26	25
  59	3	13	26	29
  60	1	13	26	30
  61	5	38	37	39
  62	5	38	37	40
  63	9	39	37	40
  64	3	37	38	41
  65	1	37	38	42
  66	7	41	38	42
  67	6	38	41	43
  68	4	41	43	44
  69	11	41	43	48
  70	8	44	43	48
  71	2	43	44	45
  72	2	43	44	46
  73	2	43	44	47
  74	9	45	44	46
  75	9	45	44	47
  76	9	46	44	47
  77	12	26	25	38
  78	5	27	25	38
  79	5	28	25	38
  80	12	25	38	37
  81	3	25	38	41
  82	1	25	38	42
  83	5	50	49	51
  84	5	50	49	52
  85	9	51	49	52
  86	3	49	50	53
  87	1	49	50	54
  88	7	53	50	54
  89	6	50	53	55
  90	4	53	55	56
  91	11	53	55	60
  92	8	56	55	60
  93	2	55	56	57
  94	2	55	56	58
  95	2	55	56	59
  96	9	57	56	58
  97	9	57	56	59
  98	9	58	56	59
  99	12	38	37	50
 100	5	39	37	50
 101	5	40	37	50
 102	12	37	50	49
 103	3	37	50	53
 104	1	37	50	54
 105	5	62	61	63
 106	5	62	61	64
 107	9	63	61	64
 108	3	61	62	65
 109	1	61	62	66
 110	7	65	62	66
 111	6	62	65	67
 112	4	65	67	68
 113	11	65	67	72
 114	8	68	67	72
 115	2	67	68	69
 116	2	67	68	70
 117	2	67	68	71
 118	9	69	68	70
 119	9	69	68	71
 120	9	70	68	71
 121	12	50	49	62
 122	5	51	49	62
 123	5	52	49	62
 124	12	49	62	61
 125	3	49	62	65
 126	1	49	62	66
 127	5	74	73	75
 128	5	74	73	76
 129	9	75	73	76
 130	3	73	74	77
 131	1	73	74	78
 132	7	77	74	78
 133	6	74	77	79
 134	4	77	79	80
 135	11	77	79	84
 136	8	80	79	84
 137	2	79	80	81
 138	2	79	80	82
 139	2	79	80	83
 140	9	81	80	82
 141	9	81	80	83
 142	9	82	80	83
 143	12	62	61	74
 144	5	63	61	74
 145	5	64	61	74
 146	12	61	74	73
 147	3	61	74	77
 148	1	61	74	78
 149	5	86	85	87
 150	5	86	85	88
 151	9	87	85	88
 152	3	85	86	89
 153	1	85	86	90
 154	7	89	86	90
 155	6	86	89	91
 156	4	89	91	92
 157	11	89	91	96
 158	8	92	91	96
 159	2	91	92	93
 160	2	91	92	94
 161	2	91	92	95
 162	9	93	92	94
 163	9	93	92	95
 164	9	94	92	95
 165	12	74	73	86
 166	5	75	73	86
 167	5	76	73	86
 168	12	73	86	85
 169	3	73	86	89
 170	1	73	86	90
 171	5	98	97	99
 172	5	98	97	100
 173	9	99	97	100
 174	3	97	98	101
 175	1	97	98	102
 176	7	101	98	102
 177	6	98	101	103
 178	4	101	103	104
 179	11	101	103	108
 180	8	104	103	108
 181	2	103	104	105
 182	2	103	104	106
 183	2	103	104	107
 184	9	105	104	106
 185	9	105	104	107
 186	9	106	104	107
 187	12	86	85	98
 188	5	87	85	98
 189	5	88	85	98
 190	12	85	98	97
 191	3	85	98	101
 192	1	85	98	102
 193	5	110	109	111
 194	5	110	109	112
 195	9	111	109	112
 196	3	109	110	113
 197	1	109	110	114
 198	7	113	110	114
 199	6	110	113	115
 200	4	113	115	116
 201	11	113	115	120
 202	8	116	115	120
 203	2	115	116	117
 204	2	115	116	118
 205	2	115	116	119
 206	9	117	116	118
 207	9	117	116	119
 208	9	118	116	119
 209	12	98	97	110
 210	5	99	97	110
 211	5	100	97	110
 212	12	97	110	109
 213	3	97	110	113
 214	1	97	110	114
 215	5	122	121	123
 216	5	122	121	124
 217	9	123	121	124
 218	3	121	122	125
 219	1	121	122	126
 220	7	125	122	126
 221	6	122	125	127
 222	4	125	127	128
 223	11	125	127	132
 224	8	128	127	132
 225	2	127	128	129
 226	2	127	128	130
 227	2	127	128	131
 228	9	129	128	130
 229	9	129	128	131
 230	9	130	128	131
 231	12	110	109	122
 232	5	111	109	122
 233	5	112	109	122
 234	12	109	122	121
 235	3	109	122	125
 236	1	109	122	126
 237	5	134	133	135
 238	5	134	133	136
 239	9	135	133	136
 240	3	133	134	137
 241	1	133	134	138
 242	7	137	134	138
 243	6	134	137	139
 244	4	137	139	140
 245	11	137	139	144
 246	8	140	139	144
 247	2	139	140	141
 248	2	139	140	142
 249	2	139	140	143
 250	9	141	140	142
 251	9	141	140	143
 252	9	142	140	143
 253	12	122	121	134
 254	5	123	121	134
 255	5	124	121	134
 256	12	121	134	133
 257	3	121	134	137
 258	1	121	134	138
 259	5	146	145	147
 260	5	146	145	148
 261	9	147	145	148
 262	3	145	146	149
 263	1	145	146	150
 264	7	149	146	150
 265	6	146	149	151
 266	4	149	151	152
 267	11	149	151	156
 268	8	152	151	156
 269	2	151	152	153
 270	2	151	152	154
 271	2	151	152	155
 272	9	153	152	154
 273	9	153	152	155
 274	9	154	152	155
 275	12	134	133	146
 276	5	135	133	146
 277	5	136	133	146
 278	12	133	146	145
 279	3	133	146	149
 280	1	133	146	150
 281	5	158	157	159
 282	5	158	157	160
 283	9	159	157	160
 284	3	157	158	161
 285	1	157	158	162
 286	7	161	158	162
 287	6	158	161	163
 288	4	161	163	164
 289	11	161	163	168
 290	8	164	163	168
 291	2	163	164	165
 292	2	163	164	166
 293	2	163	164	167
 294	9	165	164	166
 295	9	165	164	167
 296	9	166	164	167
 297	12	146	145	158
 298	5	147	145	158
 299	5	148	145	158
 300	12	145	158	157
 301	3	145	158	161
 302	1	145	158	162
 303	5	170	169	171
 304	5	170	169	172
 305	9	171	169	172
 306	3	169	170	173
 307	1	169	170	174
 308	7	173	170	174
 309	6	170	173	175
 310	4	173	175	176
 311	11	173	175	180
 312	8	176	175	180
 313	2	175	176	177
 314	2	175	176	178
 315	2	175	176	179
 316	9	177	176	178
 317	9	177	176	179
 318	9	178	176	179
 319	12	158	157	170
 320	5	159	157	170
 321	5	160	157	170
 322	12	157	170	169
 323	3	157	170	173
 324	1	157	170	174
 325	5	182	181	183
 326	5	182	181	184
 327	9	183	181	184
 328	3	181	182	185
 329	1	181	182	186
 330	7	185	182	186
 331	6	182	185	187
 332	4	185	187	188
 333	11	185	187	192
 334	8	188	187	192
 335	2	187	188	189
 336	2	187	188	190
 337	2	187	188	191
 338	9	189	188	190
 339	9	189	188	191
 340	9	190	188	191
 341	12	170	169	182
 342	5	171	169	182
 343	5	172	169	182
 344	12	169	182	181
 345	3	169	182	185
 346	1	169	182	186
 347	5	194	193	195
 348	5	194	193	196
 349	9	195	193	196
 350	3	193	194	197
 351	1	193	194	198
 352	7	197	194	198
 353	6	194	197	199
 354	4	197	199	200
 355	11	197	199	204
 356	8	200	199	204
 357	2	199	200	201
 358	2	199	200	202
 359	2	199	200	203
 360	9	201	200	202
 361	9	201	200	203
 362	9	202	200	203
 363	12	182	181	194
 364	5	183	181	194
 365	5	184	181	194
 366	12	181	194	193
 367	3	181	194	197
 368	1	181	194	198
 369	1	1	2	205
 370	7	5	2	205
 371	10	6	2	205
 372	5	194	193	206
 373	9	195	193	206
 374	9	196	193	206

Dihedrals

   1	8	3	1	2	5
   2	5	3	1	2	6
   3	8	4	1	2	5
   4	5	4	1	2	6
   5	7	1	2	5	7
   6	2	6	2	5	7
   7	4	2	5	7	8
   8	6	2	5	7	12
   9	1	5	7	8	9
  10	1	5	7	8	10
  11	1	5	7	8	11
  12	3	12	7	8	9
  13	3	12	7	8	10
  14	3	12	7	8	11
  15	8	15	13	14	17
  16	5	15	13	14	18
  17	8	16	13	14	17
  18	5	16	13	14	18
  19	7	13	14	17	19
  20	2	18	14	17	19
  21	4	14	17	19	20
  22	6	14	17	19	24
  23	1	17	19	20	21
  24	1	17	19	20	22
  25	1	17	19	20	23
  26	3	24	19	20	21
  27	3	24	19	20	22
  28	3	24	19	20	23
  29	5	5	2	1	14
  30	5	6	2	1	14
  31	9	1	14	13	15
  32	9	1	14	13	16
  33	7	1	14	17	19
  34	10	2	1	14	13
  35	5	2	1	14	17
  36	5	2	1	14	18
  37	9	3	1	14	13
  38	8	3	1	14	17
  39	5	3	1	14	18
  40	9	4	1	14	13
  41	8	4	1	14	17
  42	5	4	1	14	18
  43	8	27	25	26	29
  44	5	27	25	26	30
  45	8	28	25	26	29
  46	5	28	25	26	30
  47	7	25	26	29	31
  48	2	30	26	29	31
  49	4	26	29	31	32
  50	6	26	29	31	36
  51	1	29	31	32	33
  52	1	29	31	32	34
  53	1	29	31	32	35
  54	3	36	31	32	33
  55	3	36	31	32	34
  56	3	36	31	32	35
  57	5	17	14	13	26
  58	5	18	14	13	26
  59	10	1	14	13	26
  60	9	13	26	25	27
  61	9	13	26	25	28
  62	7	13	26	29	31
  63	10	14	13	26	25
  64	5	14	13	26	29
  65	5	14	13	26	30
  66	9	15	13	26	25
  67	8	15	13	26	29
  68	5	15	13	26	30
  69	9	16	13	26	25
  70	8	16	13	26	29
  71	5	16	13	26	30
  72	8	39	37	38	41
  73	5	39	37	38	42
  74	8	40	37	38	41
  75	5	40	37	38	42