pySIMM System Object

530 atoms
529 bonds
968 angles
1267 dihedrals
44 impropers

6 atom types
7 bond types
12 angle types
10 dihedral types
1 improper types

-115.412150 115.412150 xlo xhi
-115.412150 115.412150 ylo yhi
-115.412150 115.412150 zlo zhi

Masses

   1	12.01	# c3
   2	1.008	# hc
   3	16.0	# os
   4	1.008	# h1
   5	12.01	# c
   6	16.0	# o

Pair Coeffs

   1	0.1094	3.3996695084235347	# c3
   2	0.0157	2.649532787749369	# hc
   3	0.17	3.0000123434657784	# os
   4	0.0157	2.471353044121301	# h1
   5	0.086	3.3996695084235347	# c
   6	0.21	2.959921901149463	# o

Bond Coeffs

   1	637.7	1.2183	# c,o
   2	330.6	1.0969	# c3,h1
   3	308.6	1.4316	# c3,os
   4	313.0	1.5241	# c,c3
   5	390.8	1.3584	# c,os
   6	300.9	1.5375	# c3,c3
   7	330.6	1.0969	# c3,hc

Angle Coeffs

   1	46.39	109.56	# c3,c3,h1
   2	46.93	108.77	# c,c3,hc
   3	68.0	107.97	# c3,c3,os
   4	68.89	110.72	# c3,c,os
   5	46.34	109.8	# c3,c3,hc
   6	63.28	115.98	# c,os,c3
   7	50.8	109.78	# h1,c3,os
   8	67.4	123.2	# c3,c,o
   9	39.4	107.58	# hc,c3,hc
  10	39.24	108.46	# h1,c3,h1
  11	75.32	123.25	# o,c,os
  12	62.86	111.51	# c3,c3,c3

Dihedral Coeffs

   1	1	0.0	2	180	# X,c,c3,X
   2	1	0.3833333333333333	3	0	# X,c3,os,X
   3	3	0.8	1	0	0.0	2	0	0.08	3	180	# hc,c3,c,o
   4	3	2.7	2	180	0.0	1	0	1.15	3	0	# c3,c,os,c3
   5	1	0.15555555555555556	3	0	# X,c3,c3,X
   6	2	2.7	2	180	1.4	1	180	# o,c,os,c3
   7	2	0.383	3	0	0.8	1	180	# c3,c3,os,c
   8	2	0.0	3	0	0.25	1	0	# hc,c3,c3,os
   9	1	0.16	3	0	# hc,c3,c3,c3
  10	3	0.18	3	0	0.25	2	180	0.2	1	180	# c3,c3,c3,c3

Improper Coeffs

   1	10.5	-1	2	# c,X,X,o

Atoms

   1	1	1	-0.003445	-9.96481	-2.4821	-11.3312
   2	1	1	0.299845	-10.8169	-2.4129	-12.6219
   3	1	2	0.023286	-9.55388	-1.48734	-11.1205
   4	1	2	-0.011958	-10.6003	-2.73826	-10.4809
   5	1	3	-0.518063	-12.0143	-1.6513	-12.381
   6	1	4	0.011666	-11.077	-3.41866	-12.9769
   7	1	5	0.843192	-13.0246	-2.23461	-11.6812
   8	1	1	-0.399874	-14.1943	-1.2932	-11.5332
   9	1	2	0.119224	-14.9121	-1.70595	-10.8168
  10	1	2	0.109051	-14.6796	-1.1613	-12.5042
  11	1	2	0.118031	-13.8461	-0.321168	-11.1739
  12	1	6	-0.590955	-13.0085	-3.3662	-11.2386
  13	1	1	-0.003445	-7.76858	-3.13697	-12.4827
  14	1	1	0.299845	-8.80779	-3.50895	-11.3989
  15	1	2	0.023286	-7.42587	-2.1074	-12.3227
  16	1	2	-0.011958	-8.25437	-3.1463	-13.4671
  17	1	3	-0.518063	-9.34622	-4.80588	-11.7214
  18	1	4	0.011666	-8.30983	-3.53579	-10.4232
  19	1	5	0.843192	-10.0728	-5.46853	-10.7793
  20	1	1	-0.399874	-10.6229	-6.75555	-11.3396
  21	1	2	0.119224	-9.82404	-7.30498	-11.8462
  22	1	2	0.109051	-11.4164	-6.52046	-12.0563
  23	1	2	0.118031	-11.0323	-7.35921	-10.5235
  24	1	6	-0.590955	-10.1964	-5.14091	-9.61617
  25	1	1	-0.003445	-5.69858	-4.16063	-11.2409
  26	1	1	0.299845	-6.54914	-4.08816	-12.5385
  27	1	2	0.023286	-6.29187	-4.61064	-10.4391
  28	1	2	-0.011958	-4.87044	-4.85888	-11.41
  29	1	3	-0.518063	-5.72021	-3.60605	-13.6134
  30	1	4	0.011666	-6.91545	-5.09494	-12.7787
  31	1	5	0.843192	-4.81187	-4.44148	-14.1791
  32	1	1	-0.399874	-4.01091	-3.7183	-15.2324
  33	1	2	0.119224	-3.28642	-4.40842	-15.6759
  34	1	2	0.109051	-3.48659	-2.8745	-14.7729
  35	1	2	0.118031	-4.68904	-3.34333	-16.0048
  36	1	6	-0.590955	-4.6595	-5.61382	-13.9007
  37	1	1	-0.003445	-3.84494	-2.93784	-9.91385
  38	1	1	0.299845	-5.12011	-2.79514	-10.7833
  39	1	2	0.023286	-3.50481	-1.94468	-9.61708
  40	1	2	-0.011958	-3.03183	-3.33011	-10.5394
  41	1	3	-0.518063	-6.11744	-2.10008	-10.0074
  42	1	4	0.011666	-4.85861	-2.21235	-11.6757
  43	1	5	0.843192	-5.99589	-0.755545	-9.8488
  44	1	1	-0.399874	-7.01411	-0.215145	-8.87885
  45	1	2	0.119224	-7.94911	-0.77445	-8.96946
  46	1	2	0.109051	-7.19946	0.841928	-9.09445
  47	1	2	0.118031	-6.63331	-0.315996	-7.86096
  48	1	6	-0.590955	-5.20064	-0.0567663	-10.4453
  49	1	1	-0.003445	-3.28683	-3.38907	-7.40467
  50	1	1	0.299845	-4.04494	-3.85462	-8.67691
  51	1	2	0.023286	-2.25501	-3.15093	-7.68265
  52	1	2	-0.011958	-3.1956	-4.2366	-6.7153
  53	1	3	-0.518063	-3.52592	-5.14248	-9.06551
  54	1	4	0.011666	-5.10904	-3.9318	-8.44878
  55	1	5	0.843192	-3.937	-6.26472	-8.42477
  56	1	1	-0.399874	-3.21948	-7.47391	-8.96792
  57	1	2	0.119224	-2.14121	-7.33209	-8.8487
  58	1	2	0.109051	-3.45207	-7.58614	-10.0316
  59	1	2	0.118031	-3.5394	-8.36516	-8.41936
  60	1	6	-0.590955	-4.77784	-6.31851	-7.55105
  61	1	1	-0.003445	-5.38566	-2.42918	-6.13064
  62	1	1	0.299845	-3.92404	-2.20486	-6.60673
  63	1	2	0.023286	-5.68189	-1.57619	-5.50737
  64	1	2	-0.011958	-6.05373	-2.41143	-6.99853
  65	1	3	-0.518063	-3.91639	-0.96904	-7.35869
  66	1	4	0.011666	-3.31985	-2.05486	-5.70586
  67	1	5	0.843192	-2.73356	-0.343187	-7.61132
  68	1	1	-0.399874	-2.92651	0.96123	-8.34047
  69	1	2	0.119224	-2.06893	1.61323	-8.14823
  70	1	2	0.109051	-3.84203	1.45002	-8.00183
  71	1	2	0.118031	-3.00062	0.765109	-9.41353
  72	1	6	-0.590955	-1.63805	-0.769393	-7.31197
  73	1	1	-0.003445	-7.00092	-3.82087	-4.62255
  74	1	1	0.299845	-5.62878	-3.75037	-5.34834
  75	1	2	0.023286	-7.13022	-2.92702	-4.00136
  76	1	2	-0.011958	-7.00133	-4.67701	-3.93452
  77	1	3	-0.518063	-4.56473	-4.02408	-4.40753
  78	1	4	0.011666	-5.60932	-4.56435	-6.07609
  79	1	5	0.843192	-4.30791	-3.224	-3.33858
  80	1	1	-0.399874	-3.24178	-3.84093	-2.46844
  81	1	2	0.119224	-2.33378	-3.98008	-3.06163
  82	1	2	0.109051	-3.58737	-4.81402	-2.10725
  83	1	2	0.118031	-3.03189	-3.17845	-1.62349
  84	1	6	-0.590955	-4.89299	-2.19742	-3.06169
  85	1	1	-0.003445	-9.54798	-3.79593	-4.76972
  86	1	1	0.299845	-8.22697	-3.93711	-5.56192
  87	1	2	0.023286	-9.53274	-4.51741	-3.94339
  88	1	2	-0.011958	-9.58774	-2.80473	-4.30108
  89	1	3	-0.518063	-8.2452	-5.24037	-6.17517
  90	1	4	0.011666	-8.18654	-3.13469	-6.30693
  91	1	5	0.843192	-7.81497	-5.37862	-7.45578
  92	1	1	-0.399874	-7.93427	-6.80865	-7.91754
  93	1	2	0.119224	-8.99208	-7.08532	-7.94791
  94	1	2	0.109051	-7.40493	-7.45742	-7.21265
  95	1	2	0.118031	-7.49058	-6.90467	-8.91223
  96	1	6	-0.590955	-7.41707	-4.46888	-8.15656
  97	1	1	-0.003445	-10.9028	-3.28391	-6.97596
  98	1	1	0.299845	-10.8325	-4.03102	-5.61654
  99	1	2	0.023286	-11.7588	-3.69451	-7.52665
 100	1	2	-0.011958	-10.0233	-3.5152	-7.58499
 101	1	3	-0.518063	-11.9732	-3.61242	-4.83901
 102	1	4	0.011666	-10.9085	-5.10341	-5.84059
 103	1	5	0.843192	-12.3918	-4.39277	-3.80945
 104	1	1	-0.399874	-13.523	-3.73216	-3.05928
 105	1	2	0.119224	-14.2209	-3.27924	-3.76987
 106	1	2	0.109051	-13.1123	-2.95412	-2.40864
 107	1	2	0.118031	-14.0442	-4.48274	-2.45634
 108	1	6	-0.590955	-11.9507	-5.48821	-3.52786
 109	1	1	-0.003445	-11.2776	-1.13807	-8.29468
 110	1	1	0.299845	-11.0706	-1.74875	-6.88399
 111	1	2	0.023286	-11.9311	-1.79955	-8.87627
 112	1	2	-0.011958	-10.3099	-1.12918	-8.80667
 113	1	3	-0.518063	-9.85923	-1.21307	-6.32217
 114	1	4	0.011666	-11.9373	-1.5451	-6.24573
 115	1	5	0.843192	-9.91374	-0.0943902	-5.55724
 116	1	1	-0.399874	-8.53946	0.216565	-5.01545
 117	1	2	0.119224	-8.09883	-0.676797	-4.56622
 118	1	2	0.109051	-8.60248	1.00576	-4.26564
 119	1	2	0.118031	-7.90452	0.555899	-5.83767
 120	1	6	-0.590955	-10.9441	0.45279	-5.20742
 121	1	1	-0.003445	-13.3707	0.253902	-7.82305
 122	1	1	0.299845	-11.9052	0.278637	-8.31853
 123	1	2	0.023286	-13.9183	-0.512069	-8.3855
 124	1	2	-0.011958	-13.401	-0.053624	-6.77092
 125	1	3	-0.518063	-11.9451	0.762077	-9.67679
 126	1	4	0.011666	-11.3164	0.964085	-7.69874
 127	1	5	0.843192	-10.8018	1.18535	-10.2736
 128	1	1	-0.399874	-11.0736	1.7058	-11.6615
 129	1	2	0.119224	-11.851	2.4736	-11.6143
 130	1	2	0.109051	-11.4162	0.885519	-12.2976
 131	1	2	0.118031	-10.1544	2.13323	-12.0746
 132	1	6	-0.590955	-9.70761	1.22823	-9.75479
 133	1	1	-0.003445	-13.3722	2.74982	-7.19574
 134	1	1	0.299845	-14.1029	1.61332	-7.95504
 135	1	2	0.023286	-12.9323	2.33236	-6.28502
 136	1	2	-0.011958	-12.5307	3.10267	-7.8052
 137	1	3	-0.518063	-15.4291	1.45884	-7.40958
 138	1	4	0.011666	-14.1737	1.90447	-9.01157
 139	1	5	0.843192	-16.3795	0.844026	-8.15903
 140	1	1	-0.399874	-17.6999	0.817875	-7.43045
 141	1	2	0.119224	-18.4688	0.395367	-8.08483
 142	1	2	0.109051	-17.9758	1.83906	-7.14683
 143	1	2	0.118031	-17.6024	0.207295	-6.52823
 144	1	6	-0.590955	-16.2183	0.400636	-9.27929
 145	1	1	-0.003445	-13.5763	5.09618	-6.08147
 146	1	1	0.299845	-14.2932	3.94977	-6.85076
 147	1	2	0.023286	-12.6903	5.40538	-6.64394
 148	1	2	-0.011958	-14.2257	5.98066	-6.08529
 149	1	3	-0.518063	-14.7896	4.47498	-8.09874
 150	1	4	0.011666	-15.1305	3.58595	-6.24105
 151	1	5	0.843192	-15.9765	5.13607	-8.08965
 152	1	1	-0.399874	-16.3323	5.61881	-9.47341
 153	1	2	0.119224	-16.4135	4.75823	-10.1442
 154	1	2	0.109051	-15.5476	6.2898	-9.83526
 155	1	2	0.118031	-17.2879	6.15166	-9.43609
 156	1	6	-0.590955	-16.693	5.2906	-7.1209
 157	1	1	-0.003445	-11.7423	5.06659	-4.21267
 158	1	1	0.299845	-13.2277	4.80019	-4.59023
 159	1	2	0.023286	-11.4777	6.09027	-4.50762
 160	1	2	-0.011958	-11.6656	5.06653	-3.12228
 161	1	3	-0.518063	-13.6269	3.45677	-4.25371
 162	1	4	0.011666	-13.8388	5.48912	-3.99208
 163	1	5	0.843192	-13.7426	3.06385	-2.96167
 164	1	1	-0.399874	-14.2961	1.66258	-2.89022
 165	1	2	0.119224	-14.2038	1.2868	-1.86653
 166	1	2	0.109051	-13.7474	1.01614	-3.58256
 167	1	2	0.118031	-15.35	1.68586	-3.18292
 168	1	6	-0.590955	-13.4931	3.7434	-1.98866
 169	1	1	-0.003445	-9.36511	4.08451	-4.03491
 170	1	1	0.299845	-10.7076	4.07899	-4.81939
 171	1	2	0.023286	-8.97446	5.10816	-4.01966
 172	1	2	-0.011958	-8.61771	3.4899	-4.5707
 173	1	3	-0.518063	-10.4511	4.52729	-6.16869
 174	1	4	0.011666	-11.1249	3.06514	-4.82969
 175	1	5	0.843192	-9.77537	3.7384	-7.04392
 176	1	1	-0.399874	-9.61041	4.43736	-8.37028
 177	1	2	0.119224	-10.5916	4.56231	-8.83622
 178	1	2	0.109051	-8.96471	3.83507	-9.01863
 179	1	2	0.118031	-9.15777	5.42005	-8.20718
 180	1	6	-0.590955	-9.35872	2.62205	-6.81969
 181	1	1	-0.003445	-8.06033	3.39816	-1.93331
 182	1	1	0.299845	-9.46367	3.53621	-2.58545
 183	1	2	0.023286	-8.1221	2.79732	-1.0187
 184	1	2	-0.011958	-7.4216	2.83113	-2.62138
 185	1	3	-0.518063	-10.0817	2.23873	-2.64685
 186	1	4	0.011666	-10.0921	4.1946	-1.97821
 187	1	5	0.843192	-10.5578	1.6743	-1.50683
 188	1	1	-0.399874	-11.0918	0.288771	-1.77354
 189	1	2	0.119224	-11.7113	-0.0289343	-0.929749
 190	1	2	0.109051	-10.2519	-0.399649	-1.90321
 191	1	2	0.118031	-11.6865	0.2988	-2.69004
 192	1	6	-0.590955	-10.5384	2.18446	-0.405031
 193	1	1	-0.003445	-5.94385	4.5487	-1.02332
 194	1	1	0.299845	-7.37745	4.74604	-1.57466
 195	1	2	0.023286	-5.98384	3.8718	-0.160266
 196	1	2	-0.011958	-5.56734	5.50212	-0.633846
 197	1	3	-0.518063	-8.12421	5.39113	-0.52449
 198	1	4	0.011666	-7.31619	5.39055	-2.45984
 199	1	5	0.843192	-9.07548	6.30877	-0.839021
 200	1	1	-0.399874	-9.8002	6.78588	0.393638
 201	1	2	0.119224	-9.07759	7.19821	1.10344
 202	1	2	0.109051	-10.3164	5.93624	0.852985
 203	1	2	0.118031	-10.5299	7.55146	0.112272
 204	1	6	-0.590955	-9.36463	6.65579	-1.96819
 205	1	1	-0.003445	-3.48424	3.92344	-1.56216
 206	1	1	0.299845	-4.95164	3.96437	-2.06415
 207	1	2	0.023286	-3.15474	4.9374	-1.30659
 208	1	2	-0.011958	-3.43314	3.34376	-0.631101
 209	1	3	-0.518063	-5.02523	4.64856	-3.33887
 210	1	4	0.011666	-5.25757	2.92771	-2.23825
 211	1	5	0.843192	-4.7217	5.97218	-3.46786
 212	1	1	-0.399874	-4.79103	6.38639	-4.9159
 213	1	2	0.119224	-3.93796	5.95274	-5.44656
 214	1	2	0.109051	-4.74687	7.47843	-4.98166
 215	1	2	0.118031	-5.72361	6.02418	-5.35807
 216	1	6	-0.590955	-4.53272	6.74791	-2.55532
 217	1	1	-0.003445	-2.66994	1.74933	-2.7051
 218	1	1	0.299845	-2.52773	3.2946	-2.61124
 219	1	2	0.023286	-3.64019	1.4317	-2.31083
 220	1	2	-0.011958	-1.94011	1.2754	-2.0375
 221	1	3	-0.518063	-1.16513	3.61634	-2.25302
 222	1	4	0.011666	-2.7503	3.7258	-3.59423
 223	1	5	0.843192	-0.700447	4.85319	-2.58591
 224	1	1	-0.399874	0.703146	5.07931	-2.08264
 225	1	2	0.119224	1.37554	4.33639	-2.51469
 226	1	2	0.109051	0.72221	4.99552	-0.991978
 227	1	2	0.118031	1.03626	6.0793	-2.37768
 228	1	6	-0.590955	-1.30426	5.66374	-3.26089
 229	1	1	-0.003445	-1.08457	1.41473	-4.71466
 230	1	1	0.299845	-2.51249	1.19646	-4.15348
 231	1	2	0.023286	-1.068	1.20946	-5.78961
 232	1	2	-0.011958	-0.861254	2.48185	-4.62756
 233	1	3	-0.518063	-3.4097	1.88654	-5.05637
 234	1	4	0.011666	-2.74822	0.126855	-4.16308
 235	1	5	0.843192	-4.75766	1.71825	-4.9572
 236	1	1	-0.399874	-5.49568	2.61759	-5.91886
 237	1	2	0.119224	-6.39153	3.00331	-5.42371
 238	1	2	0.109051	-5.78824	2.04643	-6.80409
 239	1	2	0.118031	-4.85549	3.45461	-6.21372
 240	1	6	-0.590955	-5.32466	1.03591	-4.13112
 241	1	1	-0.003445	1.33693	1.35795	-3.77375
 242	1	1	0.299845	0.0269983	0.578043	-4.0139
 243	1	2	0.023286	1.18015	2.10456	-2.98751
 244	1	2	-0.011958	2.06846	0.644609	-3.37229
 245	1	3	-0.518063	0.426861	-0.533249	-4.83475
 246	1	4	0.011666	-0.318061	0.213667	-3.03901
 247	1	5	0.843192	-0.330708	-1.65521	-4.88363
 248	1	1	-0.399874	0.324253	-2.69721	-5.75733
 249	1	2	0.119224	-0.411126	-3.46096	-6.02374
 250	1	2	0.109051	1.16281	-3.14888	-5.21989
 251	1	2	0.118031	0.692951	-2.21508	-6.6693
 252	1	6	-0.590955	-1.32189	-1.86025	-4.21126
 253	1	1	-0.003445	3.45501	2.06759	-5.09584
 254	1	1	0.299845	1.90624	2.02933	-5.05263
 255	1	2	0.023286	3.83624	1.03917	-5.06177
 256	1	2	-0.011958	3.7679	2.47618	-6.06491
 257	1	3	-0.518063	1.39423	3.37758	-5.10285
 258	1	4	0.011666	1.56192	1.46078	-5.92635
 259	1	5	0.843192	1.33692	4.01961	-6.29902
 260	1	1	-0.399874	0.784094	5.41238	-6.13455
 261	1	2	0.119224	0.678125	5.8806	-7.11793
 262	1	2	0.109051	1.46225	6.00434	-5.51256
 263	1	2	0.118031	-0.194809	5.35888	-5.64883
 264	1	6	-0.590955	1.65884	3.54157	-7.36746
 265	1	1	-0.003445	5.58951	3.2346	-4.21821
 266	1	1	0.299845	4.10048	2.90545	-3.96537
 267	1	2	0.023286	5.65864	3.94483	-5.0496
 268	1	2	-0.011958	5.97102	3.77937	-3.34482
 269	1	3	-0.518063	4.006	2.17817	-2.72393
 270	1	4	0.011666	3.55392	3.85422	-3.89277
 271	1	5	0.843192	4.01501	2.87891	-1.55865
 272	1	1	-0.399874	3.90891	1.9529	-0.372958
 273	1	2	0.119224	3.07822	1.25764	-0.526481
 274	1	2	0.109051	3.73653	2.54176	0.534646
 275	1	2	0.118031	4.84077	1.38989	-0.270317
 276	1	6	-0.590955	4.01256	4.08975	-1.47326
 277	1	1	-0.003445	7.95427	2.31057	-4.06318
 278	1	1	0.299845	6.49667	1.9969	-4.47878
 279	1	2	0.023286	8.00014	2.23346	-2.96926
 280	1	2	-0.011958	8.15475	3.36078	-4.30442
 281	1	3	-0.518063	6.36749	1.53585	-5.84567
 282	1	4	0.011666	6.15945	1.18011	-3.82797
 283	1	5	0.843192	6.79197	2.26473	-6.91468
 284	1	1	-0.399874	6.38473	1.59831	-8.20513
 285	1	2	0.119224	7.0895	0.791344	-8.42843
 286	1	2	0.109051	6.39313	2.33376	-9.01543
 287	1	2	0.118031	5.37856	1.18037	-8.10058
 288	1	6	-0.590955	7.35257	3.3411	-6.85603
 289	1	1	-0.003445	10.4568	1.62905	-3.97409
 290	1	1	0.299845	9.07912	1.43338	-4.67139
 291	1	2	0.023286	10.491	0.987411	-3.08619
 292	1	2	-0.011958	11.2583	1.27179	-4.63173
 293	1	3	-0.518063	8.69745	0.0520527	-4.51253
 294	1	4	0.011666	9.1911	1.71156	-5.72615
 295	1	5	0.843192	8.63256	-0.747304	-5.61024
 296	1	1	-0.399874	8.20729	-2.14393	-5.22831
 297	1	2	0.119224	7.13138	-2.14722	-5.03138
 298	1	2	0.109051	8.74375	-2.45745	-4.32817
 299	1	2	0.118031	8.43683	-2.82856	-6.05114
 300	1	6	-0.590955	8.83508	-0.402401	-6.7568
 301	1	1	-0.003445	12.0249	3.31085	-2.70542
 302	1	1	0.299845	10.7225	3.09016	-3.513
 303	1	2	0.023286	12.902	3.33655	-3.36276
 304	1	2	-0.011958	12.1824	2.45371	-2.03944
 305	1	3	-0.518063	10.5959	4.02749	-4.60362
 306	1	4	0.011666	9.92094	3.32759	-2.80589
 307	1	5	0.843192	11.4135	3.9965	-5.68914
 308	1	1	-0.399874	10.9918	5.03366	-6.69963
 309	1	2	0.119224	11.7676	5.1353	-7.46455
 310	1	2	0.109051	10.8344	5.99328	-6.19783
 311	1	2	0.118031	10.0525	4.71336	-7.16357
 312	1	6	-0.590955	12.3529	3.24438	-5.84895
 313	1	1	-0.003445	12.1946	4.42711	-0.349664
 314	1	1	0.299845	11.9168	4.61867	-1.87203
 315	1	2	0.023286	12.992	3.6873	-0.206327
 316	1	2	-0.011958	12.5903	5.36018	0.0704837
 317	1	3	-0.518063	12.8614	5.56012	-2.41367
 318	1	4	0.011666	10.9095	5.0348	-2.00092
 319	1	5	0.843192	12.6544	6.88309	-2.17977
 320	1	1	-0.399874	13.7469	7.7168	-2.80139
 321	1	2	0.119224	13.6625	8.7486	-2.44597
 322	1	2	0.109051	13.6463	7.68798	-3.89052
 323	1	2	0.118031	14.7205	7.30596	-2.51731
 324	1	6	-0.590955	11.7112	7.35175	-1.57158
 325	1	1	-0.003445	10.4424	2.58276	0.285115
 326	1	1	0.299845	10.9549	4.02829	0.501039
 327	1	2	0.023286	10.2663	2.39367	-0.776319
 328	1	2	-0.011958	11.2439	1.90638	0.593922
 329	1	3	-0.518063	9.87431	4.94277	0.238955
 330	1	4	0.011666	11.251	4.08441	1.55661
 331	1	5	0.843192	9.8234	6.09633	0.962145
 332	1	1	-0.399874	8.59129	6.89372	0.61479
 333	1	2	0.119224	7.76205	6.21486	0.390734
 334	1	2	0.109051	8.80449	7.5155	-0.260167
 335	1	2	0.118031	8.32345	7.52905	1.46495
 336	1	6	-0.590955	10.5305	6.35037	1.91815
 337	1	1	-0.003445	8.66469	0.801907	1.08028
 338	1	1	0.299845	9.11204	2.29032	1.03663
 339	1	2	0.023286	7.71831	0.733277	1.62559
 340	1	2	-0.011958	8.40532	0.517829	0.0532458
 341	1	3	-0.518063	9.17145	2.83671	2.36803
 342	1	4	0.011666	8.34707	2.83205	0.46472
 343	1	5	0.843192	8.02202	3.35716	2.88768
 344	1	1	-0.399874	8.30798	4.17759	4.12318
 345	1	2	0.119224	7.53944	4.95064	4.22013
 346	1	2	0.109051	9.29129	4.65164	4.03589
 347	1	2	0.118031	8.29222	3.53492	5.00522
 348	1	6	-0.590955	6.94429	3.35427	2.32335
 349	1	1	-0.003445	9.65656	-0.447015	3.19692
 350	1	1	0.299845	9.70958	-0.206083	1.66459
 351	1	2	0.023286	10.4742	-1.12031	3.47638
 352	1	2	-0.011958	9.90712	0.510953	3.67088
 353	1	3	-0.518063	9.64199	-1.46233	0.960624
 354	1	4	0.011666	10.7162	0.183204	1.49598
 355	1	5	0.843192	10.1183	-1.49046	-0.3188
 356	1	1	-0.399874	10.0226	-2.8611	-0.938961
 357	1	2	0.119224	9.2508	-3.45128	-0.435469
 358	1	2	0.109051	10.9878	-3.3662	-0.842849
 359	1	2	0.118031	9.76699	-2.75876	-1.99719
 360	1	6	-0.590955	10.5789	-0.532277	-0.910248
 361	1	1	-0.003445	7.93133	-2.44925	3.57987
 362	1	1	0.299845	8.32835	-0.961207	3.82155
 363	1	2	0.023286	7.87274	-2.62219	2.49972
 364	1	2	-0.011958	6.89726	-2.56562	3.92843
 365	1	3	-0.518063	8.43196	-0.687621	5.23331
 366	1	4	0.011666	7.5023	-0.380609	3.39923
 367	1	5	0.843192	7.93211	0.482219	5.71322
 368	1	1	-0.399874	8.47575	0.807366	7.08484
 369	1	2	0.119224	7.9475	0.227565	7.84481
 370	1	2	0.109051	8.34569	1.8763	7.28152
 371	1	2	0.118031	9.53896	0.553475	7.12275
 372	1	6	-0.590955	7.23206	1.2475	5.08072
 373	1	1	-0.003445	8.79361	-3.60293	5.77799
 374	1	1	0.299845	8.75518	-3.60397	4.22992
 375	1	2	0.023286	9.73644	-3.17798	6.1428
 376	1	2	-0.011958	8.0078	-2.93609	6.13691
 377	1	3	-0.518063	10.1031	-3.62981	3.72975
 378	1	4	0.011666	8.25055	-4.53443	3.93779
 379	1	5	0.843192	10.3181	-4.18477	2.51084
 380	1	1	-0.399874	11.7775	-4.12564	2.13876
 381	1	2	0.119224	12.1024	-3.08144	2.12331
 382	1	2	0.109051	11.9206	-4.57858	1.15276
 383	1	2	0.118031	12.359	-4.67514	2.88466
 384	1	6	-0.590955	9.46908	-4.69415	1.80664
 385	1	1	-0.003445	8.30395	-5.03994	7.91091
 386	1	1	0.299845	8.53613	-5.0192	6.37238
 387	1	2	0.023286	8.31993	-6.07891	8.26576
 388	1	2	-0.011958	9.12696	-4.51844	8.414
 389	1	3	-0.518063	9.57229	-5.95558	5.99316
 390	1	4	0.011666	7.6098	-5.38852	5.91507
 391	1	5	0.843192	10.8611	-5.8272	6.41315
 392	1	1	-0.399874	11.7097	-6.95661	5.87986
 393	1	2	0.119224	12.7502	-6.80508	6.18517
 394	1	2	0.109051	11.6419	-6.98057	4.78816
 395	1	2	0.118031	11.3421	-7.90389	6.28574
 396	1	6	-0.590955	11.3027	-4.939	7.11213
 397	1	1	-0.003445	5.7154	-5.29897	8.2051
 398	1	1	0.299845	6.95744	-4.3758	8.31627
 399	1	2	0.023286	5.81306	-5.88264	7.28179
 400	1	2	-0.011958	5.69109	-6.03619	9.01593
 401	1	3	-0.518063	7.04964	-3.77919	9.62296
 402	1	4	0.011666	6.77429	-3.55419	7.62441
 403	1	5	0.843192	7.26976	-4.49896	10.7516
 404	1	1	-0.399874	7.05688	-3.61686	11.954
 405	1	2	0.119224	7.24753	-4.18309	12.8649
 406	1	2	0.109051	6.01996	-3.27019	11.9607
 407	1	2	0.118031	7.72133	-2.74808	11.8942
 408	1	6	-0.590955	7.45348	-5.69762	10.8149
 409	1	1	-0.003445	3.94245	-3.84874	9.48419
 410	1	1	0.299845	4.36575	-4.52572	8.15498
 411	1	2	0.023286	3.83053	-4.61385	10.2627
 412	1	2	-0.011958	4.74601	-3.20522	9.83327
 413	1	3	-0.518063	3.35576	-5.4907	7.82648
 414	1	4	0.011666	4.42168	-3.749	7.38167
 415	1	5	0.843192	3.15426	-5.80535	6.52082
 416	1	1	-0.399874	2.20464	-6.96865	6.36885
 417	1	2	0.119224	1.44186	-6.71444	5.62767
 418	1	2	0.109051	1.71788	-7.18485	7.32594
 419	1	2	0.118031	2.76827	-7.84676	6.04046
 420	1	6	-0.590955	3.74858	-5.2948	5.58975
 421	1	1	-0.003445	2.75044	-1.55247	9.91383
 422	1	1	0.299845	2.64152	-2.99916	9.36223
 423	1	2	0.023286	1.80233	-1.03376	9.72077
 424	1	2	-0.011958	2.85382	-1.61412	10.9987
 425	1	3	-0.518063	1.64546	-3.60784	10.2001
 426	1	4	0.011666	2.31295	-2.94407	8.31562
 427	1	5	0.843192	0.770569	-4.50241	9.68342
 428	1	1	-0.399874	-0.120411	-5.0279	10.7805
 429	1	2	0.119224	0.496322	-5.53205	11.5307
 430	1	2	0.109051	-0.846582	-5.73044	10.3613
 431	1	2	0.118031	-0.641175	-4.18802	11.2505
 432	1	6	-0.590955	0.618263	-4.75116	8.505
 433	1	1	-0.003445	3.94224	0.763765	9.81412
 434	1	1	0.299845	3.90764	-0.709439	9.32875
 435	1	2	0.023286	2.92997	1.18896	9.83501
 436	1	2	-0.011958	4.51515	1.3548	9.08784
 437	1	3	-0.518063	3.76085	-0.737351	7.89646
 438	1	4	0.011666	4.85525	-1.16519	9.6328
 439	1	5	0.843192	4.86045	-0.95075	7.13022
 440	1	1	-0.399874	4.49794	-1.05499	5.67435
 441	1	2	0.119224	3.93905	-1.98165	5.50866
 442	1	2	0.109051	5.41151	-1.06118	5.07418
 443	1	2	0.118031	3.88115	-0.197446	5.39067
 444	1	6	-0.590955	5.96286	-1.22448	7.55567
 445	1	1	-0.003445	5.06291	2.3466	11.5249
 446	1	1	0.299845	4.61125	0.90042	11.2065
 447	1	2	0.023286	5.37018	2.85247	10.6003
 448	1	2	-0.011958	4.20734	2.92585	11.8982
 449	1	3	-0.518063	3.63764	0.52329	12.2041
 450	1	4	0.011666	5.49861	0.254895	11.2187
 451	1	5	0.843192	3.89578	-0.497093	13.0637
 452	1	1	-0.399874	2.72499	-0.76238	13.9758
 453	1	2	0.119224	2.95535	-1.60702	14.6323
 454	1	2	0.109051	1.83681	-0.992025	13.3786
 455	1	2	0.118031	2.52341	0.125737	14.5796
 456	1	6	-0.590955	4.91971	-1.14708	13.0822
 457	1	1	-0.003445	6.00364	3.36185	13.7064
 458	1	1	0.299845	6.24723	2.37019	12.5339
 459	1	2	0.023286	5.75011	4.3439	13.2847
 460	1	2	-0.011958	6.90227	3.52874	14.307
 461	1	3	-0.518063	7.41572	2.69951	11.7601
 462	1	4	0.011666	6.38296	1.36495	12.9481
 463	1	5	0.843192	8.65853	2.58447	12.2963
 464	1	1	-0.399874	9.7082	2.79611	11.2351
 465	1	2	0.119224	9.72308	1.91967	10.5799
 466	1	2	0.109051	10.687	2.92062	11.7082
 467	1	2	0.118031	9.46122	3.68532	10.6477
 468	1	6	-0.590955	8.91793	2.38612	13.4644
 469	1	1	-0.003445	5.26123	2.29851	16.0105
 470	1	1	0.299845	4.85104	2.84885	14.6139
 471	1	2	0.023286	4.38015	1.83387	16.4696
 472	1	2	-0.011958	5.52769	3.1411	16.6589
 473	1	3	-0.518063	3.916	3.9376	14.7253
 474	1	4	0.011666	4.35581	2.02735	14.089
 475	1	5	0.843192	2.60882	3.66564	14.9626
 476	1	1	-0.399874	1.76657	4.89593	14.7316
 477	1	2	0.119224	1.93628	5.6129	15.5395
 478	1	2	0.109051	0.709364	4.61379	14.6945
 479	1	2	0.118031	2.05454	5.35199	13.7786
 480	1	6	-0.590955	2.14787	2.5556	15.1341
 481	1	1	-0.003445	6.24313	0.0257446	16.9003
 482	1	1	0.299845	6.4113	1.24209	15.9494
 483	1	2	0.023286	5.33396	-0.521492	16.6201
 484	1	2	-0.011958	6.07293	0.375777	17.9256
 485	1	3	-0.518063	7.6832	1.89065	16.1573
 486	1	4	0.011666	6.41742	0.819701	14.9406
 487	1	5	0.843192	8.02744	2.4775	17.338
 488	1	1	-0.399874	9.34668	3.19966	17.2189
 489	1	2	0.119224	10.0302	2.82138	17.9847
 490	1	2	0.109051	9.17733	4.2706	17.3645
 491	1	2	0.118031	9.77716	3.0368	16.2258
 492	1	6	-0.590955	7.34404	2.50879	18.3413
 493	1	1	-0.003445	7.4548	-1.90651	15.6393
 494	1	1	0.299845	7.45017	-0.95555	16.8695
 495	1	2	0.023286	6.71999	-2.70705	15.7889
 496	1	2	-0.011958	7.10565	-1.34976	14.7625
 497	1	3	-0.518063	7.34353	-1.74242	18.069
 498	1	4	0.011666	8.37225	-0.365159	16.8651
 499	1	5	0.843192	8.21557	-1.50283	19.0853
 500	1	1	-0.399874	7.77399	-2.17554	20.3617
 501	1	2	0.119224	8.3601	-3.08458	20.518
 502	1	2	0.109051	6.711	-2.43224	20.3004
 503	1	2	0.118031	7.93009	-1.48031	21.1926
 504	1	6	-0.590955	9.24432	-0.862169	18.997
 505	1	1	-0.003445	9.34801	-3.64505	16.2301
 506	1	1	0.299845	8.84321	-2.52063	15.2849
 507	1	2	0.023286	9.24676	-3.32939	17.2728
 508	1	2	-0.011958	10.4246	-3.78861	16.0634
 509	1	3	-0.518063	9.85069	-1.4939	15.2942
 510	1	4	0.011666	8.7865	-2.94191	14.275
 511	1	5	0.843192	9.9191	-0.606219	14.2683
 512	1	1	-0.399874	11.0834	0.333382	14.4723
 513	1	2	0.119224	11.41	0.723172	13.5045
 514	1	2	0.109051	11.9087	-0.195545	14.9595
 515	1	2	0.118031	10.7599	1.15937	15.1112
 516	1	6	-0.590955	9.25388	-0.663691	13.2508
 517	1	1	-0.003445	9.08219	-5.73701	14.7295
 518	1	1	0.299845	8.64864	-5.01418	16.0248
 519	1	2	0.023286	10.1251	-6.07147	14.7999
 520	1	2	-0.011958	8.45358	-6.62141	14.5626
 521	1	3	-0.518063	9.05556	-5.88789	17.0923
 522	1	4	0.011666	7.55913	-4.88377	16.0077
 523	1	5	0.843192	8.27897	-6.01787	18.1945
 524	1	1	-0.399874	8.92813	-6.95327	19.1847
 525	1	2	0.119224	8.20964	-7.21868	19.966
 526	1	2	0.109051	9.79658	-6.45727	19.6282
 527	1	2	0.118031	9.25928	-7.85752	18.6644
 528	1	6	-0.590955	7.19347	-5.49961	18.3626
 529	1	4	0	-10.2333	-1.91919	-13.4089
 530	1	2	0	8.99962	-5.09463	13.8483

Velocities

   1	6.53572e-05	-1.1289e-05	0.00019154
   2	8.35765e-05	1.70273e-05	0.000376912
   3	0.000463815	-2.33733e-05	-0.000297018
   4	0.000118832	-0.000174505	0.000169677
   5	0.0009627	0.00185135	-6.99619e-05
   6	-0.00149142	-0.000425948	0.001886
   7	0.00132228	0.00113143	0.000751545
   8	0.000285113	0.000223427	0.000253794
   9	0.000741526	-0.00190749	-0.00023487
  10	0.000331236	-0.000484377	0.000178734
  11	-0.00206229	0.000750761	0.00106647
  12	0.00164222	0.00147656	-9.31792e-05
  13	-3.89025e-05	0.000347345	0.000385364
  14	-7.78208e-05	-0.000133259	0.000357056
  15	2.37835e-05	0.000254994	0.0010288
  16	-0.000232153	0.00076838	0.000651345
  17	-7.45078e-05	-6.09396e-05	5.51553e-05
  18	-0.000192549	-6.54761e-05	0.000138328
  19	0.000114115	-0.000424956	0.000206816
  20	0.000526974	-0.000343308	-7.42837e-05
  21	0.000843835	-0.000429488	0.000276301
  22	0.000803726	-0.000384235	-0.000571119
  23	7.45164e-05	-0.00043594	-0.000152834
  24	0.000534265	-0.000707695	0.000359932
  25	-4.29799e-05	0.00016192	-0.000263912
  26	-0.000210066	2.50749e-05	-8.60461e-05
  27	9.44836e-05	6.6296e-05	-0.000323538
  28	-9.7141e-05	2.50588e-05	-0.000427391
  29	-0.00031762	0.000108176	-0.000307408
  30	-0.000404347	0.000342548	-0.00010415
  31	-0.00036	6.29059e-05	-0.000189361
  32	-0.000116828	-0.000539175	-0.000197538
  33	-0.000361207	-0.000867784	-0.000152983
  34	0.000345262	-0.000593994	-0.000328015
  35	8.23718e-05	-0.000228365	-0.000404242
  36	-0.00027865	0.000136077	0.000267876
  37	0.000174938	-3.85585e-05	-0.000482061
  38	0.000129876	2.88047e-05	-0.000246572
  39	0.000379664	-0.000174782	-0.000566196
  40	6.88912e-05	-0.000295014	-0.000530489
  41	0.000138422	-0.000264447	-0.000162949
  42	-4.16929e-07	7.84661e-05	-0.000279769
  43	-0.000182944	-0.000211503	-0.000106911
  44	-0.000313824	-0.000567897	5.29422e-05
  45	-0.000176096	-0.000652235	-0.000137537
  46	-0.000428252	-0.000590316	0.000393515
  47	-0.000294559	-0.000865069	-7.42374e-05
  48	-0.00024466	2.95823e-05	7.39628e-06
  49	0.000155727	9.82948e-05	-0.000299832
  50	0.000214473	-5.83108e-05	-0.000255715
  51	0.000266469	-2.21896e-05	-0.000134436
  52	-2.48091e-06	0.000139372	-0.000258491
  53	4.00512e-05	-0.000115701	-0.000226165
  54	0.000187458	9.08368e-05	-0.00036907
  55	5.42111e-05	6.67995e-06	2.13816e-05
  56	-0.000619536	-0.000314439	-0.000192594
  57	-0.000522882	-0.000975191	-0.000296457
  58	-0.000798652	-9.73995e-05	-0.000190976
  59	-0.00105284	-0.000238583	-0.000289312
  60	0.000325421	0.00023048	0.000271939
  61	0.000245878	-3.26203e-06	-0.000353669
  62	0.000233778	0.000128844	-0.00035483
  63	3.14022e-05	3.71933e-05	-0.000513121
  64	0.000283935	-0.000247271	-0.00040547
  65	0.000107273	7.80253e-05	-0.000435924
  66	0.000239352	0.000198225	-0.000371219
  67	7.86434e-05	0.000167572	-0.000530954
  68	-0.000126198	6.88495e-05	-0.000717771
  69	-0.000824183	0.000748057	6.31454e-05
  70	-0.000834766	-0.000567138	-0.0016517
  71	0.000963586	6.4571e-06	-0.000790876
  72	0.000102584	0.000198	-0.000495638
  73	0.000433223	1.65512e-05	-0.000191036
  74	0.00039534	3.09751e-05	-0.000217553
  75	0.00048292	-1.47014e-05	-0.000209418
  76	0.000516533	2.36587e-05	-0.000144595
  77	0.000357655	0.000164878	-0.000185594
  78	0.000396657	-1.20165e-05	-0.000169065
  79	0.000245437	0.00055321	-0.000319499
  80	-9.36472e-05	0.000630587	0.000156031
  81	-0.000101679	-0.000191314	0.00037815
  82	-0.000511829	0.00110017	0.000956693
  83	2.24179e-05	0.0013017	-0.000438466
  84	0.000608623	0.000777037	-0.00104252
  85	0.000487428	0.000193767	-0.000134539
  86	0.000435666	2.12248e-05	-0.000121113
  87	0.000546421	0.00025444	-9.39492e-05
  88	0.000589007	0.000211188	-0.000219393
  89	0.000273806	4.19879e-05	-6.99656e-05
  90	0.000485357	-4.76767e-05	-0.000179656
  91	0.000284938	-6.5784e-05	-0.000100191
  92	1.74588e-05	-2.25454e-05	-4.1764e-05
  93	-3.53466e-05	4.55946e-05	0.000608998
  94	0.000430865	-6.74613e-05	-0.000387502
  95	-0.000610894	-8.82713e-06	-0.000386668
  96	0.000193373	-0.000100038	-0.000114199
  97	0.000359814	4.01605e-05	-0.000170389
  98	0.00052009	7.70383e-05	-0.000164567
  99	0.00034881	-4.96366e-05	-8.07898e-05
 100	0.000336129	0.000170387	-0.000258305
 101	0.000378604	-6.46448e-05	-0.00028267
 102	0.000669084	7.51484e-05	-0.000134598
 103	0.000498518	5.93599e-05	-0.000152687
 104	-0.000190601	-0.00036525	-0.000826364
 105	-0.000714657	-0.00190125	-0.00131181
 106	-0.0010382	0.000779102	-0.0016707
 107	0.000637694	-0.000307137	-1.98729e-05
 108	0.00100165	0.000403467	0.000364506
 109	-3.47169e-05	9.74952e-05	-3.55522e-05
 110	0.000130734	1.07009e-05	-9.48763e-05
 111	-6.69698e-05	0.000117762	-2.67547e-05
 112	-8.63501e-05	0.000136019	-0.0001652
 113	8.22834e-05	7.96641e-05	-0.000142668
 114	0.000142443	-0.000150625	7.79449e-06
 115	-5.60479e-06	4.26473e-05	-7.84862e-05
 116	5.08077e-05	0.00012155	-0.000298192
 117	-0.000206867	0.00041078	0.000509561
 118	0.000253499	0.000838879	-0.00103361
 119	0.000155949	-0.000805654	-0.000594133
 120	1.30767e-05	1.81455e-05	-6.371e-05
 121	7.13782e-05	0.000131843	0.000338656
 122	-2.51807e-05	0.000121392	8.44504e-05