pySIMM System Object

122 atoms
121 bonds
220 angles
281 dihedrals
10 impropers

6 atom types
7 bond types
12 angle types
10 dihedral types
1 improper types

-56.331595 56.331595 xlo xhi
-56.331595 56.331595 ylo yhi
-56.331595 56.331595 zlo zhi

Masses

   1	12.01	# c3
   2	1.008	# hc
   3	16.0	# os
   4	1.008	# h1
   5	12.01	# c
   6	16.0	# o

Pair Coeffs

   1	0.1094	3.3996695084235347	# c3
   2	0.0157	2.649532787749369	# hc
   3	0.17	3.0000123434657784	# os
   4	0.0157	2.471353044121301	# h1
   5	0.086	3.3996695084235347	# c
   6	0.21	2.959921901149463	# o

Bond Coeffs

   1	637.7	1.2183	# c,o
   2	330.6	1.0969	# c3,h1
   3	308.6	1.4316	# c3,os
   4	313.0	1.5241	# c,c3
   5	390.8	1.3584	# c,os
   6	300.9	1.5375	# c3,c3
   7	330.6	1.0969	# c3,hc

Angle Coeffs

   1	46.39	109.56	# c3,c3,h1
   2	46.93	108.77	# c,c3,hc
   3	68.0	107.97	# c3,c3,os
   4	68.89	110.72	# c3,c,os
   5	46.34	109.8	# c3,c3,hc
   6	63.28	115.98	# c,os,c3
   7	50.8	109.78	# h1,c3,os
   8	67.4	123.2	# c3,c,o
   9	39.4	107.58	# hc,c3,hc
  10	39.24	108.46	# h1,c3,h1
  11	75.32	123.25	# o,c,os
  12	62.86	111.51	# c3,c3,c3

Dihedral Coeffs

   1	1	0.0	2	180	# X,c,c3,X
   2	1	0.3833333333333333	3	0	# X,c3,os,X
   3	3	0.8	1	0	0.0	2	0	0.08	3	180	# hc,c3,c,o
   4	3	2.7	2	180	0.0	1	0	1.15	3	0	# c3,c,os,c3
   5	1	0.15555555555555556	3	0	# X,c3,c3,X
   6	2	2.7	2	180	1.4	1	180	# o,c,os,c3
   7	2	0.383	3	0	0.8	1	180	# c3,c3,os,c
   8	2	0.0	3	0	0.25	1	0	# hc,c3,c3,os
   9	1	0.16	3	0	# hc,c3,c3,c3
  10	3	0.18	3	0	0.25	2	180	0.2	1	180	# c3,c3,c3,c3

Improper Coeffs

   1	10.5	-1	2	# c,X,X,o

Atoms

   1	1	1	-0.003445	2.1067	-6.67514	-2.32735
   2	1	1	0.299845	3.25742	-5.84366	-2.92369
   3	1	2	0.023286	2.23659	-7.71379	-2.65222
   4	1	2	-0.011958	2.18209	-6.69643	-1.23179
   5	1	3	-0.518063	3.41586	-4.65367	-2.13157
   6	1	4	0.011666	4.18754	-6.42612	-2.89878
   7	1	5	0.843192	3.95206	-3.56041	-2.73
   8	1	1	-0.399874	4.22373	-2.4743	-1.71894
   9	1	2	0.119224	3.27578	-2.04958	-1.37966
  10	1	2	0.109051	4.83627	-1.69549	-2.18522
  11	1	2	0.118031	4.76338	-2.9023	-0.868147
  12	1	6	-0.590955	4.14348	-3.42933	-3.92075
  13	1	1	-0.003445	0.0766161	-5.22268	-1.69198
  14	1	1	0.299845	0.724343	-6.11984	-2.77883
  15	1	2	0.023286	0.861437	-4.59033	-1.26196
  16	1	2	-0.011958	-0.287111	-5.85473	-0.871336
  17	1	3	-0.518063	-0.170565	-7.22087	-3.04261
  18	1	4	0.011666	0.854358	-5.52744	-3.69355
  19	1	5	0.843192	0.0433744	-7.99326	-4.1404
  20	1	1	-0.399874	-1.00071	-9.07696	-4.2432
  21	1	2	0.119224	-1.09255	-9.58343	-3.27761
  22	1	2	0.109051	-0.703509	-9.79732	-5.0124
  23	1	2	0.118031	-1.96059	-8.62596	-4.50804
  24	1	6	-0.590955	0.97658	-7.88276	-4.90985
  25	1	1	-0.003445	-1.7846	-3.54383	-1.02388
  26	1	1	0.299845	-1.06184	-4.28387	-2.18612
  27	1	2	0.023286	-2.81977	-3.3367	-1.32638
  28	1	2	-0.011958	-1.86239	-4.206	-0.151488
  29	1	3	-0.518063	-2.10522	-5.01016	-2.86654
  30	1	4	0.011666	-0.629064	-3.54044	-2.86539
  31	1	5	0.843192	-2.08004	-5.09801	-4.22203
  32	1	1	-0.399874	-3.31215	-5.79171	-4.75059
  33	1	2	0.119224	-3.03524	-6.41896	-5.60294
  34	1	2	0.109051	-4.03249	-5.03242	-5.07117
  35	1	2	0.118031	-3.76174	-6.40769	-3.96548
  36	1	6	-0.590955	-1.20764	-4.65049	-4.93762
  37	1	1	-0.003445	-1.00337	-1.20236	-1.77616
  38	1	1	0.299845	-1.16397	-2.19257	-0.587297
  39	1	2	0.023286	-1.67281	-1.54265	-2.57262
  40	1	2	-0.011958	0.0112613	-1.2889	-2.18775
  41	1	3	-0.518063	0.107881	-2.48448	0.0171926
  42	1	4	0.011666	-1.84164	-1.77724	0.167035
  43	1	5	0.843192	0.638666	-1.60369	0.902003
  44	1	1	-0.399874	1.91568	-2.14287	1.50015
  45	1	2	0.119224	2.32902	-2.93038	0.861122
  46	1	2	0.109051	1.69404	-2.56426	2.48566
  47	1	2	0.118031	2.64183	-1.33063	1.60026
  48	1	6	-0.590955	0.131208	-0.547948	1.22526
  49	1	1	-0.003445	-2.71589	0.548953	-0.852251
  50	1	1	0.299845	-1.31366	0.298957	-1.48953
  51	1	2	0.023286	-2.68681	0.23635	0.198463
  52	1	2	-0.011958	-3.4463	-0.115049	-1.33145
  53	1	3	-0.518063	-1.12644	1.02543	-2.73085
  54	1	4	0.011666	-0.560141	0.678233	-0.791275
  55	1	5	0.843192	-1.93593	0.837094	-3.81339
  56	1	1	-0.399874	-1.40459	1.5712	-5.01798
  57	1	2	0.119224	-0.358487	1.29161	-5.17718
  58	1	2	0.109051	-1.47551	2.64958	-4.85031
  59	1	2	0.118031	-1.99396	1.29178	-5.89769
  60	1	6	-0.590955	-2.93061	0.141667	-3.84517
  61	1	1	-0.003445	-2.94097	2.85345	0.360168
  62	1	1	0.299845	-3.23034	2.01491	-0.916277
  63	1	2	0.023286	-3.58513	3.74056	0.354644
  64	1	2	-0.011958	-3.23915	2.27782	1.24474
  65	1	3	-0.518063	-4.66404	1.97004	-1.05341
  66	1	4	0.011666	-2.81717	2.50718	-1.80353
  67	1	5	0.843192	-5.28782	3.0648	-1.57006
  68	1	1	-0.399874	-6.78609	2.96863	-1.42731
  69	1	2	0.119224	-7.14647	3.87358	-0.927887
  70	1	2	0.109051	-7.05578	2.09177	-0.830248
  71	1	2	0.118031	-7.23473	2.89104	-2.42123
  72	1	6	-0.590955	-4.73184	4.0624	-1.9857
  73	1	1	-0.003445	-1.36007	4.40891	1.64172
  74	1	1	0.299845	-1.48182	3.33889	0.509379
  75	1	2	0.023286	-2.32756	4.90178	1.80008
  76	1	2	-0.011958	-0.680933	5.21765	1.34435
  77	1	3	-0.518063	-1.10034	3.87209	-0.773088
  78	1	4	0.011666	-0.846184	2.47285	0.732203
  79	1	5	0.843192	0.199113	4.14145	-1.0467
  80	1	1	-0.399874	0.398993	4.39939	-2.51727
  81	1	2	0.119224	1.33917	4.93882	-2.66679
  82	1	2	0.109051	-0.437108	4.98468	-2.91258
  83	1	2	0.118031	0.441437	3.43359	-3.02964
  84	1	6	-0.590955	1.11454	4.0629	-0.255873
  85	1	1	-0.003445	0.584159	3.35687	2.91419
  86	1	1	0.299845	-0.889484	3.82331	2.99926
  87	1	2	0.023286	0.655136	2.35538	2.47015
  88	1	2	-0.011958	1.0725	4.03926	2.22472
  89	1	3	-0.518063	-1.75584	2.71216	3.28122
  90	1	4	0.011666	-0.989724	4.61341	3.75539
  91	1	5	0.843192	-2.05314	2.37732	4.55934
  92	1	1	-0.399874	-3.0214	1.22075	4.56713
  93	1	2	0.119224	-2.5707	0.372984	4.04228
  94	1	2	0.109051	-3.93745	1.51975	4.04751
  95	1	2	0.118031	-3.25433	0.943119	5.59946
  96	1	6	-0.590955	-1.72655	2.99592	5.55147
  97	1	1	-0.003445	2.91962	3.42943	3.96685
  98	1	1	0.299845	1.38591	3.41929	4.23018
  99	1	2	0.023286	3.17793	2.67304	3.21469
 100	1	2	-0.011958	3.43417	3.11908	4.8854
 101	1	3	-0.518063	1.06453	2.2531	5.00978
 102	1	4	0.011666	1.09983	4.32959	4.77419
 103	1	5	0.843192	1.28688	2.30663	6.35179
 104	1	1	-0.399874	0.971164	0.983283	7.00376
 105	1	2	0.119224	1.49941	0.185338	6.47414
 106	1	2	0.109051	-0.107477	0.808344	6.9536
 107	1	2	0.118031	1.29466	1.01258	8.04909
 108	1	6	-0.590955	1.77276	3.24657	6.9499
 109	1	1	-0.003445	3.70718	4.98785	2.01737
 110	1	1	0.299845	3.46753	4.82058	3.54219
 111	1	2	0.023286	4.67504	4.56758	1.71905
 112	1	2	-0.011958	3.69144	6.04846	1.73589
 113	1	3	-0.518063	4.73546	4.95532	4.20299
 114	1	4	0.011666	2.77538	5.59546	3.89837
 115	1	5	0.843192	5.30315	6.17968	4.32245
 116	1	1	-0.399874	6.6167	6.08309	5.05886
 117	1	2	0.119224	6.53035	6.63118	6.00106
 118	1	2	0.109051	7.40967	6.51542	4.44223
 119	1	2	0.118031	6.85012	5.03414	5.27114
 120	1	6	-0.590955	4.8181	7.22641	3.94267
 121	1	4	0	3.02819	-5.61537	-3.97212
 122	1	2	0	2.94915	4.48411	1.41877

Velocities

   1	-0.000381385	-0.000106396	-0.00025359
   2	-0.0013674	0.00128239	3.61559e-05
   3	0.000108811	0.000537272	-0.00192739
   4	-0.000205178	-0.0012747	-0.000404197
   5	-0.00423171	0.00230959	-0.00100742
   6	-0.00040228	0.00269499	0.00145353
   7	0.000837436	0.000362642	-2.64246e-05
   8	-0.00139451	0.000752191	-0.000159391
   9	-0.00205605	-0.000557564	-0.000373159
  10	-0.00211128	0.00157413	0.000609418
  11	-0.00151275	0.00137184	0.000248487
  12	0.00843446	-0.00256302	0.000823479
  13	-0.000797729	-0.000628921	0.000835427
  14	-0.000685686	-8.20706e-05	0.000489972
  15	-0.000900366	-0.0011563	0.00177114
  16	-0.00147251	-0.00109	0.000254157
  17	-0.000483326	-0.000126497	0.000384425
  18	-0.000897985	0.000380445	0.000792785
  19	-0.000608821	0.000425548	-0.000107368
  20	-0.000181391	0.000181984	5.47459e-05
  21	0.000583986	-0.000113916	-4.36157e-05
  22	-0.000218037	0.000545197	-0.000348986
  23	-0.000527484	-0.000134939	0.000714658
  24	-0.000961685	0.00108551	-0.000483608
  25	-0.000437728	0.000273315	0.00025206
  26	-0.000169043	-4.30292e-05	0.000545959
  27	-0.000155506	0.000682765	-0.000378722
  28	-0.00122462	0.000295692	0.000153899
  29	-0.000199499	0.000170059	0.000278143
  30	0.000275436	-0.000204931	0.000734576
  31	0.000284793	-0.000193673	0.000281563
  32	0.00080332	-0.00106364	0.00021343
  33	0.00101788	0.000317171	-0.000704825
  34	-0.000317127	-0.00160494	0.00165159
  35	0.00213469	-0.00259071	-0.000213038
  36	0.000451928	-0.000320843	0.000373003
  37	0.000116095	0.000187342	0.000426524
  38	-0.000239386	0.000134334	0.000425145
  39	0.000851524	0.000119703	-0.000108382
  40	0.000395637	0.000617503	0.00122488
  41	-0.000294346	0.00013323	0.000616099
  42	-0.000280714	0.000163965	0.000295971
  43	-0.000314273	0.000443831	0.000362161
  44	0.000401452	0.0014035	-0.000243005
  45	0.00107345	0.0022349	-0.000827782
  46	0.00119421	0.000623404	-0.000391971
  47	-0.000400117	0.0022017	-1.46678e-06
  48	-0.000517066	0.000406157	0.000280771
  49	-0.00105298	-0.000321214	-0.000709078
  50	-0.000537785	8.46142e-05	0.000354008
  51	-0.00229214	-0.00104362	-0.000912013
  52	-0.000726588	9.34617e-05	-0.00191408
  53	-7.35957e-05	0.000368972	0.000578205
  54	-0.00121858	0.000262173	0.000913191
  55	2.29304e-05	0.00101452	0.000413108
  56	-0.000294389	0.00196668	0.000910204
  57	-0.00030956	0.0022189	0.000517335
  58	-0.000416362	0.00188626	0.00171956
  59	-0.000430149	0.00258712	0.0008345
  60	-8.49127e-05	0.0010912	1.81889e-05
  61	-6.96656e-05	-0.000301191	-0.000480834
  62	-0.000804968	-0.00021866	-0.000368832
  63	-0.000350969	-0.000521126	0.000137191
  64	0.00061077	-0.000617995	-0.000461707
  65	-0.00083863	-0.000535021	0.00010212
  66	-0.0011016	-0.000117991	-0.000462239
  67	-0.00119704	-0.000904805	-0.000342779
  68	-0.00127931	-0.00206292	-0.0014482
  69	-0.00242501	-0.00208224	-0.00237004
  70	-0.00104705	-0.00190096	-0.00111128
  71	-0.000442024	-0.00312324	-0.0017832
  72	-0.00158266	-0.000797294	-0.000337558
  73	0.000605797	-0.000362229	-0.00116654
  74	-9.17123e-05	-0.000120119	-0.00118388
  75	0.00119585	0.000965244	-0.00177664
  76	0.00190114	-0.00141347	-0.0011159
  77	-0.000429215	0.00118257	-0.000740095
  78	0.000267926	3.01103e-05	-0.00197299
  79	-2.49295e-05	-0.0027372	-0.00169755
  80	-0.000890408	0.00172112	-0.000887115
  81	-0.000746606	0.00168641	-0.00027801
  82	-0.000919615	0.00343904	0.00146294
  83	-0.00188517	0.00328543	-0.00384557
  84	0.00104653	-0.00949581	-0.0028942
  85	0.000117923	0.000183116	-0.000577393
  86	-0.000243027	-0.000345205	-0.000892889
  87	0.000304974	0.000251313	-0.000440326
  88	0.000649707	0.000183838	-0.000586805
  89	-0.000418425	-0.000432427	-0.000637764
  90	-0.000602887	-0.000233785	-0.00100454
  91	6.97942e-05	-5.22625e-05	-0.000293355
  92	0.000817158	-0.000801685	0.00162191
  93	0.00104135	-0.00136009	0.00273362
  94	0.000276959	-0.00231826	0.00181927
  95	0.00165238	0.000542176	0.00222563
  96	0.000413404	0.000646966	-0.000811196
  97	0.000264932	-0.000611171	-0.000161656
  98	7.43806e-05	0.000188809	-0.000341236
  99	-0.000865572	0.000365241	-0.00141043
 100	0.00020161	-0.00275449	-0.00088643
 101	-0.000503006	0.000224948	-0.000222086
 102	0.00039617	0.000413765	-0.000466251
 103	-0.000342189	-3.15989e-05	-0.000271128
 104	-0.00121206	-2.06275e-05	-0.00042191
 105	-0.0014066	-0.000249334	-0.000384072
 106	-0.00134043	0.000208542	-0.000702404
 107	-0.00149905	-0.000265971	-0.000438057
 108	0.000483512	-0.000614434	-0.000102219
 109	0.00397753	-0.00130521	0.00161568
 110	0.00143297	-0.00043806	0.00142547
 111	0.00426578	-0.00174813	0.00305778
 112	0.0043619	-0.00143162	0.00132047
 113	0.000445699	0.000351361	0.00384952
 114	0.000541962	-0.000256518	-0.000317795
 115	0.000335654	0.00053032	0.00247613
 116	0.0015721	0.00202075	0.000836724
 117	0.00256528	0.00227978	0.000722862
 118	0.000297398	0.00264974	-0.000360645
 119	0.00298329	0.00246325	0.000727728
 120	0.00106611	-0.000183571	-0.000148999
 121	-0.000820868	0.00026486	-0.000316588
 122	0.00399464	-0.00131894	0.000984019

Bonds

   1	6	1	2
   2	7	1	3
   3	7	1	4
   4	3	2	5
   5	2	2	6
   6	5	5	7
   7	4	7	8
   8	1	7	12
   9	7	8	9
  10	7	8	10
  11	7	8	11
  12	6	13	14
  13	7	13	15
  14	7	13	16
  15	3	14	17
  16	2	14	18
  17	5	17	19
  18	4	19	20
  19	1	19	24
  20	7	20	21
  21	7	20	22
  22	7	20	23
  23	6	1	14
  24	6	25	26
  25	7	25	27
  26	7	25	28
  27	3	26	29
  28	2	26	30
  29	5	29	31
  30	4	31	32
  31	1	31	36
  32	7	32	33
  33	7	32	34
  34	7	32	35
  35	6	13	26
  36	6	37	38
  37	7	37	39
  38	7	37	40
  39	3	38	41
  40	2	38	42
  41	5	41	43
  42	4	43	44
  43	1	43	48
  44	7	44	45
  45	7	44	46
  46	7	44	47
  47	6	25	38
  48	6	49	50
  49	7	49	51
  50	7	49	52
  51	3	50	53
  52	2	50	54
  53	5	53	55
  54	4	55	56
  55	1	55	60
  56	7	56	57
  57	7	56	58
  58	7	56	59
  59	6	37	50
  60	6	61	62
  61	7	61	63
  62	7	61	64
  63	3	62	65
  64	2	62	66
  65	5	65	67
  66	4	67	68
  67	1	67	72
  68	7	68	69
  69	7	68	70
  70	7	68	71
  71	6	49	62
  72	6	73	74
  73	7	73	75
  74	7	73	76
  75	3	74	77
  76	2	74	78
  77	5	77	79
  78	4	79	80
  79	1	79	84
  80	7	80	81
  81	7	80	82
  82	7	80	83
  83	6	61	74
  84	6	85	86
  85	7	85	87
  86	7	85	88
  87	3	86	89
  88	2	86	90
  89	5	89	91
  90	4	91	92
  91	1	91	96
  92	7	92	93
  93	7	92	94
  94	7	92	95
  95	6	73	86
  96	6	97	98
  97	7	97	99
  98	7	97	100
  99	3	98	101
 100	2	98	102
 101	5	101	103
 102	4	103	104
 103	1	103	108
 104	7	104	105
 105	7	104	106
 106	7	104	107
 107	6	85	98
 108	6	109	110
 109	7	109	111
 110	7	109	112
 111	3	110	113
 112	2	110	114
 113	5	113	115
 114	4	115	116
 115	1	115	120
 116	7	116	117
 117	7	116	118
 118	7	116	119
 119	6	97	110
 120	2	2	121
 121	7	109	122

Angles

   1	5	2	1	3
   2	5	2	1	4
   3	9	3	1	4
   4	3	1	2	5
   5	1	1	2	6
   6	7	5	2	6
   7	6	2	5	7
   8	4	5	7	8
   9	11	5	7	12
  10	8	8	7	12
  11	2	7	8	9
  12	2	7	8	10
  13	2	7	8	11
  14	9	9	8	10
  15	9	9	8	11
  16	9	10	8	11
  17	5	14	13	15
  18	5	14	13	16
  19	9	15	13	16
  20	3	13	14	17
  21	1	13	14	18
  22	7	17	14	18
  23	6	14	17	19
  24	4	17	19	20
  25	11	17	19	24
  26	8	20	19	24
  27	2	19	20	21
  28	2	19	20	22
  29	2	19	20	23
  30	9	21	20	22
  31	9	21	20	23
  32	9	22	20	23
  33	12	2	1	14
  34	5	3	1	14
  35	5	4	1	14
  36	12	1	14	13
  37	3	1	14	17
  38	1	1	14	18
  39	5	26	25	27
  40	5	26	25	28
  41	9	27	25	28
  42	3	25	26	29
  43	1	25	26	30
  44	7	29	26	30
  45	6	26	29	31
  46	4	29	31	32
  47	11	29	31	36
  48	8	32	31	36
  49	2	31	32	33
  50	2	31	32	34
  51	2	31	32	35
  52	9	33	32	34
  53	9	33	32	35
  54	9	34	32	35
  55	12	14	13	26
  56	5	15	13	26
  57	5	16	13	26
  58	12	13	26	25
  59	3	13	26	29
  60	1	13	26	30
  61	5	38	37	39
  62	5	38	37	40
  63	9	39	37	40
  64	3	37	38	41
  65	1	37	38	42
  66	7	41	38	42
  67	6	38	41	43
  68	4	41	43	44
  69	11	41	43	48
  70	8	44	43	48
  71	2	43	44	45
  72	2	43	44	46
  73	2	43	44	47
  74	9	45	44	46
  75	9	45	44	47
  76	9	46	44	47
  77	12	26	25	38
  78	5	27	25	38
  79	5	28	25	38
  80	12	25	38	37
  81	3	25	38	41
  82	1	25	38	42
  83	5	50	49	51
  84	5	50	49	52
  85	9	51	49	52
  86	3	49	50	53
  87	1	49	50	54
  88	7	53	50	54
  89	6	50	53	55
  90	4	53	55	56
  91	11	53	55	60
  92	8	56	55	60
  93	2	55	56	57
  94	2	55	56	58
  95	2	55	56	59
  96	9	57	56	58
  97	9	57	56	59
  98	9	58	56	59
  99	12	38	37	50
 100	5	39	37	50
 101	5	40	37	50
 102	12	37	50	49
 103	3	37	50	53
 104	1	37	50	54
 105	5	62	61	63
 106	5	62	61	64
 107	9	63	61	64
 108	3	61	62	65
 109	1	61	62	66
 110	7	65	62	66
 111	6	62	65	67
 112	4	65	67	68
 113	11	65	67	72
 114	8	68	67	72
 115	2	67	68	69
 116	2	67	68	70
 117	2	67	68	71
 118	9	69	68	70
 119	9	69	68	71
 120	9	70	68	71
 121	12	50	49	62
 122	5	51	49	62
 123	5	52	49	62
 124	12	49	62	61
 125	3	49	62	65
 126	1	49	62	66
 127	5	74	73	75
 128	5	74	73	76
 129	9	75	73	76
 130	3	73	74	77
 131	1	73	74	78
 132	7	77	74	78
 133	6	74	77	79
 134	4	77	79	80
 135	11	77	79	84
 136	8	80	79	84
 137	2	79	80	81
 138	2	79	80	82
 139	2	79	80	83
 140	9	81	80	82
 141	9	81	80	83
 142	9	82	80	83
 143	12	62	61	74
 144	5	63	61	74
 145	5	64	61	74
 146	12	61	74	73
 147	3	61	74	77
 148	1	61	74	78
 149	5	86	85	87
 150	5	86	85	88
 151	9	87	85	88
 152	3	85	86	89
 153	1	85	86	90
 154	7	89	86	90
 155	6	86	89	91
 156	4	89	91	92
 157	11	89	91	96
 158	8	92	91	96
 159	2	91	92	93
 160	2	91	92	94
 161	2	91	92	95
 162	9	93	92	94
 163	9	93	92	95
 164	9	94	92	95
 165	12	74	73	86
 166	5	75	73	86
 167	5	76	73	86
 168	12	73	86	85
 169	3	73	86	89
 170	1	73	86	90
 171	5	98	97	99
 172	5	98	97	100
 173	9	99	97	100
 174	3	97	98	101
 175	1	97	98	102
 176	7	101	98	102
 177	6	98	101	103
 178	4	101	103	104
 179	11	101	103	108
 180	8	104	103	108
 181	2	103	104	105
 182	2	103	104	106
 183	2	103	104	107
 184	9	105	104	106
 185	9	105	104	107
 186	9	106	104	107
 187	12	86	85	98
 188	5	87	85	98
 189	5	88	85	98
 190	12	85	98	97
 191	3	85	98	101
 192	1	85	98	102
 193	5	110	109	111
 194	5	110	109	112
 195	9	111	109	112
 196	3	109	110	113
 197	1	109	110	114
 198	7	113	110	114
 199	6	110	113	115
 200	4	113	115	116
 201	11	113	115	120
 202	8	116	115	120
 203	2	115	116	117
 204	2	115	116	118
 205	2	115	116	119
 206	9	117	116	118
 207	9	117	116	119
 208	9	118	116	119
 209	12	98	97	110
 210	5	99	97	110
 211	5	100	97	110
 212	12	97	110	109
 213	3	97	110	113
 214	1	97	110	114
 215	1	1	2	121
 216	7	5	2	121
 217	10	6	2	121
 218	5	110	109	122
 219	9	111	109	122
 220	9	112	109	122

Dihedrals

   1	8	3	1	2	5
   2	5	3	1	2	6
   3	8	4	1	2	5
   4	5	4	1	2	6
   5	7	1	2	5	7
   6	2	6	2	5	7
   7	4	2	5	7	8
   8	6	2	5	7	12
   9	1	5	7	8	9
  10	1	5	7	8	10
  11	1	5	7	8	11
  12	3	12	7	8	9
  13	3	12	7	8	10
  14	3	12	7	8	11
  15	8	15	13	14	17
  16	5	15	13	14	18
  17	8	16	13	14	17
  18	5	16	13	14	18
  19	7	13	14	17	19
  20	2	18	14	17	19
  21	4	14	17	19	20
  22	6	14	17	19	24
  23	1	17	19	20	21
  24	1	17	19	20	22
  25	1	17	19	20	23
  26	3	24	19	20	21
  27	3	24	19	20	22
  28	3	24	19	20	23
  29	5	5	2	1	14
  30	5	6	2	1	14
  31	9	1	14	13	15
  32	9	1	14	13	16
  33	7	1	14	17	19
  34	10	2	1	14	13
  35	5	2	1	14	17
  36	5	2	1	14	18
  37	9	3	1	14	13
  38	8	3	1	14	17
  39	5	3	1	14	18
  40	9	4	1	14	13
  41	8	4	1	14	17
  42	5	4	1	14	18
  43	8	27	25	26	29
  44	5	27	25	26	30
  45	8	28	25	26	29
  46	5	28	25	26	30
  47	7	25	26	29	31
  48	2	30	26	29	31
  49	4	26	29	31	32
  50	6	26	29	31	36
  51	1	29	31	32	33
  52	1	29	31	32	34
  53	1	29	31	32	35
  54	3	36	31	32	33
  55	3	36	31	32	34
  56	3	36	31	32	35
  57	5	17	14	13	26
  58	5	18	14	13	26
  59	10	1	14	13	26
  60	9	13	26	25	27
  61	9	13	26	25	28
  62	7	13	26	29	31
  63	10	14	13	26	25
  64	5	14	13	26	29
  65	5	14	13	26	30
  66	9	15	13	26	25
  67	8	15	13	26	29
  68	5	15	13	26	30
  69	9	16	13	26	25
  70	8	16	13	26	29
  71	5	16	13	26	30
  72	8	39	37	38	41
  73	5	39	37	38	42
  74	8	40	37	38	41
  75	5	40	37	38	42
  76	7	37	38	41	43
  77	2	42	38	41	43
  78	4	38	41	43	44
  79	6	38	41	43	48
  80	1	41	43	44	45
  81	1	41	43	44	46
  82	1	41	43	44	47
  83	3	48	43	44	45
  84	3	48	43	44	46
  85	3	48	43	44	47
  86	5	29	26	25	38
  87	5	30	26	25	38
  88	10	13	26	25	38
  89	9	25	38	37	39
  90	9	25	38	37	40
  91	7	25	38	41	43
  92	10	26	25	38	37
  93	5	26	25	38	41
  94	5	26	25	38	42
  95	9	27	25	38	37
  96	8	27	25	38	41
  97	5	27	25	38	42
  98	9	28	25	38	37
  99	8	28	25	38	41
 100	5	28	25	38	42
 101	8	51	49	50	53
 102	5	51	49	50	54
 103	8	52	49	50	53
 104	5	52	49	50	54
 105	7	49	50	53	55
 106	2	54	50	53	55
 107	4	50	53	55	56
 108	6	50	53	55	60
 109	1	53	55	56	57
 110	1	53	55	56	58
 111	1	53	55	56	59
 112	3	60	55	56	57
 113	3	60	55	56	58
 114	3	60	55	56	59
 115	5	41	38	37	50
 116	5	42	38	37	50
 117	10	25	38	37	50
 118	9	37	50	49	51
 119	9	37	50	49	52
 120	7	37	50	53	55
 121	10	38	37	50	49
 122	5	38	37	50	53
 123	5	38	37	50	54
 124	9	39	37	50	49
 125	8	39	37	50	53
 126	5	39	37	50	54
 127	9	40	37	50	49
 128	8	40	37	50	53
 129	5	40	37	50	54
 130	8	63	61	62	65
 131	5	63	61	62	66
 132	8	64	61	62	65
 133	5	64	61	62	66
 134	7	61	62	65	67
 135	2	66	62	65	67
 136	4	62	65	67	68
 137	6	62	65	67	72
 138	1	65	67	68	69
 139	1	65	67	68	70
 140	1	65	67	68	71
 141	3	72	67	68	69
 142	3	72	67	68	70
 143	3	72	67	68	71
 144	5	53	50	49	62
 145	5	54	50	49	62
 146	10	37	50	49	62
 147	9	49	62	61	63
 148	9	49	62	61	64
 149	7	49	62	65	67
 150	10	50	49	62	61
 151	5	50	49	62	65
 152	5	50	49	62	66
 153	9	51	49	62	61
 154	8	51	49	62	65
 155	5	51	49	62	66
 156	9	52	49	62	61
 157	8	52	49	62	65
 158	5	52	49	62	66
 159	8	75	73	74	77
 160	5	75	73	74	78
 161	8	76	73	74	77
 162	5	76	73	74	78
 163	7	73	74	77	79
 164	2	78	74	77	79
 165	4	74	77	79	80
 166	6	74	77	79	84
 167	1	77	79	80	81
 168	1	77	79	80	82
 169	1	77	79	80	83
 170	3	84	79	80	81
 171	3	84	79	80	82
 172	3	84	79	80	83
 173	5	65	62	61	74
 174	5	66	62	61	74
 175	10	49	62	61	74
 176	9	61	74	73	75
 177	9	61	74	73	76
 178	7	61	74	77	79
 179	10	62	61	74	73
 180	5	62	61	74	77
 181	5	62	61	74	78
 182	9	63	61	74	73
 183	8	63	61	74	77
 184	5	63	61	74	78
 185	9	64	61	74	73
 186	8	64	61	74	77
 187	5	64	61	74	78
 188	8	87	85	86	89
 189	5	87	85	86	90
 190	8	88	85	86	89
 191	5	88	85	86	90
 192	7	85	86	89	91
 193	2	90	86	89	91
 194	4	86	89	91	92
 195	6	86	89	91	96
 196	1	89	91	92	93
 197	1	89	91	92	94
 198	1	89	91	92	95
 199	3	96	91	92	93
 200	3	96	91	92	94
 201	3	96	91	92	95
 202	5	77	74	73	86
 203	5	78	74	73	86
 204	10	61	74	73	86
 205	9	73	86	85	87
 206	9	73	86	85	88
 207	7	73	86	89	91
 208	10	74	73	86	85
 209	5	74	73	86	89
 210	5	74	73	86	90
 211	9	75	73	86	85
 212	8	75	73	86	89
 213	5	75	73	86	90
 214	9	76	73	86	85
 215	8	76	73	86	89
 216	5	76	73	86	90
 217	8	99	97	98	101
 218	5	99	97	98	102
 219	8	100	97	98	101
 220	5	100	97	98	102
 221	7	97	98	101	103
 222	2	102	98	101	103
 223	4	98	101	103	104
 224	6	98	101	103	108
 225	1	101	103	104	105
 226	1	101	103	104	106
 227	1	101	103	104	107
 228	3	108	103	104	105
 229	3	108	103	104	106
 230	3	108	103	104	107
 231	5	89	86	85	98
 232	5	90	86	85	98
 233	10	73	86	85	98
 234	9	85	98	97	99
 235	9	85	98	97	100
 236	7	85	98	101	103
 237	10	86	85	98	97
 238	5	86	85	98	101
 239	5	86	85	98	102
 240	9	87	85	98	97
 241	8	87	85	98	101
 242	5	87	85	98	102
 243	9	88	85	98	97
 244	8	88	85	98	101
 245	5	88	85	98	102
 246	8	111	109	110	113
 247	5	111	109	110	114
 248	8	112	109	110	113
 249	5	112	109	110	114
 250	7	109	110	113	115
 251	2	114	110	113	115
 252	4	110	113	115	116
 253	6	110	113	115	120
 254	1	113	115	116	117
 255	1	113	115	116	118
 256	1	113	115	116	119
 257	3	120	115	116	117
 258	3	120	115	116	118
 259	3	120	115	116	119
 260	5	101	98	97	110
 261	5	102	98	97	110
 262	10	85	98	97	110
 263	9	97	110	109	111
 264	9	97	110	109	112
 265	7	97	110	113	115
 266	10	98	97	110	109
 267	5	98	97	110	113
 268	5	98	97	110	114
 269	9	99	97	110	109
 270	8	99	97	110	113
 271	5	99	97	110	114
 272	9	100	97	110	109
 273	8	100	97	110	113
 274	5	100	97	110	114
 275	5	3	1	2	121
 276	5	4	1	2	121
 277	5	14	1	2	121
 278	2	7	5	2	121
 279	8	113	110	109	122
 280	5	114	110	109	122
 281	9	97	110	109	122

Impropers

   1	1	7	5	8	12
   2	1	19	17	20	24
   3	1	31	29	32	36
   4	1	43	41	44	48
   5	1	55	53	56	60
   6	1	67	65	68	72
   7	1	79	77	80	84
   8	1	91	89	92	96
   9	1	103	101	104	108
  10	1	115	113	116	120

