pySIMM System Object

338 atoms
337 bonds
616 angles
803 dihedrals
28 impropers

6 atom types
7 bond types
12 angle types
10 dihedral types
1 improper types

-98.828749 98.828749 xlo xhi
-98.828749 98.828749 ylo yhi
-98.828749 98.828749 zlo zhi

Masses

   1	12.01	# c3
   2	1.008	# hc
   3	16.0	# os
   4	1.008	# h1
   5	12.01	# c
   6	16.0	# o

Pair Coeffs

   1	0.1094	3.3996695084235347	# c3
   2	0.0157	2.649532787749369	# hc
   3	0.17	3.0000123434657784	# os
   4	0.0157	2.471353044121301	# h1
   5	0.086	3.3996695084235347	# c
   6	0.21	2.959921901149463	# o

Bond Coeffs

   1	637.7	1.2183	# c,o
   2	330.6	1.0969	# c3,h1
   3	308.6	1.4316	# c3,os
   4	313.0	1.5241	# c,c3
   5	390.8	1.3584	# c,os
   6	300.9	1.5375	# c3,c3
   7	330.6	1.0969	# c3,hc

Angle Coeffs

   1	46.39	109.56	# c3,c3,h1
   2	46.93	108.77	# c,c3,hc
   3	68.0	107.97	# c3,c3,os
   4	68.89	110.72	# c3,c,os
   5	46.34	109.8	# c3,c3,hc
   6	63.28	115.98	# c,os,c3
   7	50.8	109.78	# h1,c3,os
   8	67.4	123.2	# c3,c,o
   9	39.4	107.58	# hc,c3,hc
  10	39.24	108.46	# h1,c3,h1
  11	75.32	123.25	# o,c,os
  12	62.86	111.51	# c3,c3,c3

Dihedral Coeffs

   1	1	0.0	2	180	# X,c,c3,X
   2	1	0.3833333333333333	3	0	# X,c3,os,X
   3	3	0.8	1	0	0.0	2	0	0.08	3	180	# hc,c3,c,o
   4	3	2.7	2	180	0.0	1	0	1.15	3	0	# c3,c,os,c3
   5	1	0.15555555555555556	3	0	# X,c3,c3,X
   6	2	2.7	2	180	1.4	1	180	# o,c,os,c3
   7	2	0.383	3	0	0.8	1	180	# c3,c3,os,c
   8	2	0.0	3	0	0.25	1	0	# hc,c3,c3,os
   9	1	0.16	3	0	# hc,c3,c3,c3
  10	3	0.18	3	0	0.25	2	180	0.2	1	180	# c3,c3,c3,c3

Improper Coeffs

   1	10.5	-1	2	# c,X,X,o

Atoms

   1	1	1	-0.003445	0.472358	2.49144	9.67861
   2	1	1	0.299845	0.00883708	2.01081	11.0766
   3	1	2	0.023286	0.142524	1.75483	8.9367
   4	1	2	-0.011958	-0.0408295	3.42615	9.4246
   5	1	3	-0.518063	-1.41795	1.82727	11.0725
   6	1	4	0.011666	0.318821	2.71462	11.8603
   7	1	5	0.843192	-2.21398	2.90932	11.2657
   8	1	1	-0.399874	-3.67362	2.52581	11.2047
   9	1	2	0.119224	-4.06145	2.74729	10.2062
  10	1	2	0.109051	-4.23041	3.09843	11.9534
  11	1	2	0.118031	-3.78803	1.45685	11.4093
  12	1	6	-0.590955	-1.82368	4.03092	11.5192
  13	1	1	-0.003445	2.78718	1.37832	9.87659
  14	1	1	0.299845	2.01264	2.67684	9.54155
  15	1	2	0.023286	2.4031	0.559083	9.25687
  16	1	2	-0.011958	2.57415	1.09436	10.9146
  17	1	3	-0.518063	2.4626	3.71093	10.4359
  18	1	4	0.011666	2.2398	2.95718	8.50613
  19	1	5	0.843192	2.19046	5.00646	10.1154
  20	1	1	-0.399874	2.73642	5.94597	11.1625
  21	1	2	0.119224	3.81161	6.06976	11.0067
  22	1	2	0.109051	2.55778	5.53226	12.16
  23	1	2	0.118031	2.23233	6.91378	11.0727
  24	1	6	-0.590955	1.65114	5.3824	9.0937
  25	1	1	-0.003445	4.90578	1.81154	8.34282
  26	1	1	0.299845	4.32961	1.45154	9.74517
  27	1	2	0.023286	4.60278	2.82932	8.07134
  28	1	2	-0.011958	6.00024	1.83738	8.41577
  29	1	3	-0.518063	4.76886	0.131556	10.1214
  30	1	4	0.011666	4.69332	2.18691	10.4751
  31	1	5	0.843192	6.01177	-0.05807	10.6253
  32	1	1	-0.399874	6.21148	-1.51105	10.9831
  33	1	2	0.119224	7.19527	-1.6451	11.4429
  34	1	2	0.109051	6.13604	-2.12166	10.0779
  35	1	2	0.118031	5.4302	-1.81723	11.6861
  36	1	6	-0.590955	6.83243	0.8138	10.8262
  37	1	1	-0.003445	5.42279	0.828222	5.97396
  38	1	1	0.299845	4.49926	0.820067	7.22316
  39	1	2	0.023286	5.05269	0.0686324	5.2792
  40	1	2	-0.011958	6.42243	0.480866	6.26752
  41	1	3	-0.518063	3.1528	1.13727	6.82562
  42	1	4	0.011666	4.5343	-0.191943	7.64613
  43	1	5	0.843192	2.38406	0.167107	6.26898
  44	1	1	-0.399874	0.995287	0.683511	5.99002
  45	1	2	0.119224	0.798612	1.57287	6.59422
  46	1	2	0.109051	0.260833	-0.0915898	6.2345
  47	1	2	0.118031	0.920071	0.94714	4.9336
  48	1	6	-0.590955	2.71635	-0.990994	6.11918
  49	1	1	-0.003445	5.88548	2.04273	3.73173
  50	1	1	0.299845	5.54919	2.19489	5.24736
  51	1	2	0.023286	6.68734	1.30259	3.61402
  52	1	2	-0.011958	6.30758	2.97827	3.34829
  53	1	3	-0.518063	6.63792	2.90972	5.87388
  54	1	4	0.011666	4.62226	2.76161	5.36812
  55	1	5	0.843192	6.79256	4.23882	5.63099
  56	1	1	-0.399874	8.05888	4.76842	6.25441
  57	1	2	0.119224	8.00978	4.64248	7.33955
  58	1	2	0.109051	8.17051	5.82915	6.00566
  59	1	2	0.118031	8.9122	4.2077	5.86088
  60	1	6	-0.590955	6.0546	4.92369	4.95134
  61	1	1	-0.003445	3.37908	2.43125	2.98944
  62	1	1	0.299845	4.71559	1.67199	2.78032
  63	1	2	0.023286	2.61857	1.99155	2.33333
  64	1	2	-0.011958	3.00916	2.27194	4.00881
  65	1	3	-0.518063	4.4479	0.258971	2.8597
  66	1	4	0.011666	5.07855	1.92172	1.77723
  67	1	5	0.843192	4.50235	-0.480214	1.71417
  68	1	1	-0.399874	4.13248	-1.92114	1.965
  69	1	2	0.119224	3.07422	-2.05878	1.7254
  70	1	2	0.109051	4.30653	-2.18163	3.01409
  71	1	2	0.118031	4.74355	-2.56077	1.31975
  72	1	6	-0.590955	4.80041	-0.0587226	0.614522
  73	1	1	-0.003445	2.16372	4.72773	2.79982
  74	1	1	0.299845	3.50269	3.95233	2.7015
  75	1	2	0.023286	1.38107	4.18117	2.2624
  76	1	2	-0.011958	2.26888	5.69789	2.29568
  77	1	3	-0.518063	4.10927	4.1769	1.40663
  78	1	4	0.011666	4.18129	4.37696	3.44645
  79	1	5	0.843192	3.50753	3.80065	0.242824
  80	1	1	-0.399874	4.3608	4.16325	-0.948716
  81	1	2	0.119224	4.50362	3.26983	-1.56498
  82	1	2	0.109051	5.33566	4.53805	-0.619486
  83	1	2	0.118031	3.85037	4.93682	-1.52932
  84	1	6	-0.590955	2.41436	3.28029	0.148895
  85	1	1	-0.003445	0.287663	5.62583	4.25333
  86	1	1	0.299845	1.68471	4.96867	4.24849
  87	1	2	0.023286	0.371293	6.6094	3.77232
  88	1	2	-0.011958	-0.407625	5.05437	3.62912
  89	1	3	-0.518063	2.57682	5.91558	4.86402
  90	1	4	0.011666	1.64044	4.01265	4.78422
  91	1	5	0.843192	3.25942	5.5801	5.98884
  92	1	1	-0.399874	4.02263	6.77116	6.51714
  93	1	2	0.119224	4.54312	6.49369	7.43755
  94	1	2	0.109051	3.32236	7.588	6.71789
  95	1	2	0.118031	4.74596	7.09555	5.76219
  96	1	6	-0.590955	3.25227	4.4817	6.50925
  97	1	1	-0.003445	-0.711575	4.53064	6.42659
  98	1	1	0.299845	-0.291741	5.82458	5.67325
  99	1	2	0.023286	-1.07926	4.83238	7.41541
 100	1	2	-0.011958	0.176578	3.91676	6.62204
 101	1	3	-0.518063	-1.42165	6.70424	5.51678
 102	1	4	0.011666	0.477962	6.33076	6.26992
 103	1	5	0.843192	-1.72183	7.57014	6.5198
 104	1	1	-0.399874	-2.82349	8.51155	6.10081
 105	1	2	0.119224	-2.42859	9.2036	5.35058
 106	1	2	0.109051	-3.17368	9.07397	6.97235
 107	1	2	0.118031	-3.64961	7.94086	5.66715
 108	1	6	-0.590955	-1.15577	7.63591	7.59058
 109	1	1	-0.003445	-2.44512	2.68266	6.73966
 110	1	1	0.299845	-1.79514	3.66617	5.72238
 111	1	2	0.023286	-2.74646	3.24148	7.63473
 112	1	2	-0.011958	-1.67035	1.98223	7.07357
 113	1	3	-0.518063	-1.14117	2.90655	4.67572
 114	1	4	0.011666	-2.55663	4.34217	5.31489
 115	1	5	0.843192	-1.83885	2.56626	3.55705
 116	1	1	-0.399874	-1.00687	1.74904	2.60077
 117	1	2	0.119224	-1.62808	1.44689	1.74931
 118	1	2	0.109051	-0.630599	0.856295	3.10757
 119	1	2	0.118031	-0.167139	2.34748	2.23753
 120	1	6	-0.590955	-2.99419	2.86915	3.34452
 121	1	1	-0.003445	-4.911	2.80431	5.9526
 122	1	1	0.299845	-3.68753	1.89362	6.23266
 123	1	2	0.023286	-5.16875	3.3318	6.87914
 124	1	2	-0.011958	-4.64644	3.58022	5.2256
 125	1	3	-0.518063	-4.10153	0.976153	7.26247
 126	1	4	0.011666	-3.42614	1.33353	5.32795
 127	1	5	0.843192	-3.38192	-0.153699	7.48114
 128	1	1	-0.399874	-3.97442	-0.947924	8.61864
 129	1	2	0.119224	-4.13458	-0.286535	9.47531
 130	1	2	0.109051	-3.29099	-1.75587	8.89877
 131	1	2	0.118031	-4.93551	-1.36468	8.30267
 132	1	6	-0.590955	-2.40524	-0.499902	6.84624
 133	1	1	-0.003445	-5.90699	1.30212	4.09426
 134	1	1	0.299845	-6.1603	2.03987	5.43123
 135	1	2	0.023286	-5.42191	1.98828	3.3905
 136	1	2	-0.011958	-5.20971	0.47152	4.26589
 137	1	3	-0.518063	-7.21634	2.99553	5.21428
 138	1	4	0.011666	-6.4755	1.29467	6.17366
 139	1	5	0.843192	-7.9399	3.41567	6.28325
 140	1	1	-0.399874	-8.9763	4.4308	5.8723
 141	1	2	0.119224	-9.70942	4.54412	6.67695
 142	1	2	0.109051	-9.47934	4.09086	4.96081
 143	1	2	0.118031	-8.48372	5.38816	5.67991
 144	1	6	-0.590955	-7.79945	3.02396	7.4253
 145	1	1	-0.003445	-6.82247	-0.116525	2.18874
 146	1	1	0.299845	-7.18821	0.750771	3.42282
 147	1	2	0.023286	-5.79412	0.129469	1.90364
 148	1	2	-0.011958	-6.81977	-1.1796	2.46523
 149	1	3	-0.518063	-7.86482	-0.0685512	4.39883
 150	1	4	0.011666	-7.79983	1.60956	3.11837
 151	1	5	0.843192	-9.21393	0.0270109	4.52355
 152	1	1	-0.399874	-9.71578	-0.841065	5.65329
 153	1	2	0.119224	-10.1803	-1.73925	5.23718
 154	1	2	0.109051	-10.4515	-0.279591	6.23793
 155	1	2	0.118031	-8.88357	-1.12926	6.30386
 156	1	6	-0.590955	-9.93294	0.754146	3.86921
 157	1	1	-0.003445	-7.32197	-0.77502	-0.276492
 158	1	1	0.299845	-7.73045	0.0964036	0.951606
 159	1	2	0.023286	-7.55667	-1.8255	-0.0612228
 160	1	2	-0.011958	-7.94566	-0.510254	-1.13863
 161	1	3	-0.518063	-7.64279	1.48741	0.59009
 162	1	4	0.011666	-8.76166	-0.149952	1.23887
 163	1	5	0.843192	-8.61164	2.02056	-0.204717
 164	1	1	-0.399874	-8.39452	3.49693	-0.425012
 165	1	2	0.119224	-8.01013	3.65034	-1.4373
 166	1	2	0.109051	-7.67237	3.88613	0.299674
 167	1	2	0.118031	-9.34866	4.01942	-0.311308
 168	1	6	-0.590955	-9.57028	1.4148	-0.641511
 169	1	1	-0.003445	-5.55804	-1.08423	-2.14262
 170	1	1	0.299845	-5.82526	-0.659406	-0.675828
 171	1	2	0.023286	-6.24032	-1.90386	-2.40192
 172	1	2	-0.011958	-4.54371	-1.4941	-2.24172
 173	1	3	-0.518063	-5.08829	-1.55907	0.176789
 174	1	4	0.011666	-5.49425	0.376236	-0.523154
 175	1	5	0.843192	-3.76516	-1.32417	0.384297
 176	1	1	-0.399874	-3.17245	-2.34762	1.32317
 177	1	2	0.119224	-3.96917	-2.89852	1.8337
 178	1	2	0.109051	-2.55041	-1.8373	2.06531
 179	1	2	0.118031	-2.56099	-3.04744	0.746499
 180	1	6	-0.590955	-3.15598	-0.350207	-0.00900674
 181	1	1	-0.003445	-5.58524	-0.449854	-4.60725
 182	1	1	0.299845	-5.71505	0.0756992	-3.1563
 183	1	2	0.023286	-4.5225	-0.5717	-4.85585
 184	1	2	-0.011958	-6.02094	-1.45467	-4.63519
 185	1	3	-0.518063	-4.60542	0.962641	-2.93545
 186	1	4	0.011666	-6.69142	0.556089	-3.01081
 187	1	5	0.843192	-4.81138	2.28943	-2.7578
 188	1	1	-0.399874	-3.49368	3.01946	-2.68234
 189	1	2	0.119224	-2.94416	2.8584	-3.61496
 190	1	2	0.109051	-2.90676	2.61911	-1.84865
 191	1	2	0.118031	-3.6715	4.08863	-2.53472
 192	1	6	-0.590955	-5.8958	2.83098	-2.66846
 193	1	1	-0.003445	-5.91946	-0.0608974	-7.13115
 194	1	1	0.299845	-6.28612	0.407566	-5.6956
 195	1	2	0.023286	-4.82656	-0.0468041	-7.22876
 196	1	2	-0.011958	-6.29289	0.649353	-7.87707
 197	1	3	-0.518063	-5.87086	1.77809	-5.57404
 198	1	4	0.011666	-7.36982	0.325485	-5.53766
 199	1	5	0.843192	-6.70289	2.73787	-6.06486
 200	1	1	-0.399874	-6.08348	4.11156	-5.98164
 201	1	2	0.119224	-5.95365	4.50139	-6.99575
 202	1	2	0.109051	-5.11255	4.06359	-5.47931
 203	1	2	0.118031	-6.75288	4.76616	-5.41574
 204	1	6	-0.590955	-7.79294	2.52997	-6.56079
 205	1	1	-0.003445	-5.78192	-2.14929	-8.68072
 206	1	1	0.299845	-6.43515	-1.48763	-7.4384
 207	1	2	0.023286	-6.19356	-1.77677	-9.62514
 208	1	2	-0.011958	-4.71784	-1.88879	-8.69207
 209	1	3	-0.518063	-7.87997	-1.5103	-7.46844
 210	1	4	0.011666	-6.12831	-2.1135	-6.59629
 211	1	5	0.843192	-8.59491	-0.849031	-8.42296
 212	1	1	-0.399874	-10.079	-0.967803	-8.17169
 213	1	2	0.119224	-10.5502	-1.45129	-9.03197
 214	1	2	0.109051	-10.4935	0.0371898	-8.04005
 215	1	2	0.118031	-10.2679	-1.55601	-7.26815
 216	1	6	-0.590955	-8.13294	-0.263133	-9.38054
 217	1	1	-0.003445	-4.86577	-4.46919	-9.41527
 218	1	1	0.299845	-5.92575	-3.6841	-8.59416
 219	1	2	0.023286	-4.62363	-3.91281	-10.3297
 220	1	2	-0.011958	-5.30505	-5.41699	-9.75283
 221	1	3	-0.518063	-7.24492	-4.02551	-9.06039
 222	1	4	0.011666	-5.83325	-3.95387	-7.53946
 223	1	5	0.843192	-7.9012	-5.04643	-8.4494
 224	1	1	-0.399874	-9.26601	-5.2555	-9.05791
 225	1	2	0.119224	-9.87161	-4.35811	-8.90157
 226	1	2	0.109051	-9.74963	-6.11672	-8.58504
 227	1	2	0.118031	-9.15706	-5.43593	-10.1314
 228	1	6	-0.590955	-7.47434	-5.69387	-7.51379
 229	1	1	-0.003445	-3.77169	-5.69955	-7.39571
 230	1	1	0.299845	-3.55283	-4.81349	-8.6511
 231	1	2	0.023286	-4.44013	-5.1935	-6.69143
 232	1	2	-0.011958	-4.27249	-6.63097	-7.69032
 233	1	3	-0.518063	-2.84799	-3.62493	-8.23262
 234	1	4	0.011666	-2.9224	-5.38354	-9.34325
 235	1	5	0.843192	-2.02017	-3.01014	-9.12127
 236	1	1	-0.399874	-1.24897	-1.89162	-8.46389
 237	1	2	0.119224	-1.94496	-1.17521	-8.01875
 238	1	2	0.109051	-0.63026	-1.3867	-9.21339
 239	1	2	0.118031	-0.605763	-2.30727	-7.68117
 240	1	6	-0.590955	-1.83391	-3.36552	-10.2655
 241	1	1	-0.003445	-1.53613	-7.004	-7.39899
 242	1	1	0.299845	-2.46681	-6.02789	-6.62997
 243	1	2	0.023286	-1.90281	-8.02362	-7.23208
 244	1	2	-0.011958	-1.63301	-6.83654	-8.47764
 245	1	3	-0.518063	-2.89408	-6.65647	-5.40927
 246	1	4	0.011666	-1.9573	-5.08123	-6.41628
 247	1	5	0.843192	-2.15184	-6.51202	-4.28614
 248	1	1	-0.399874	-2.79989	-7.2327	-3.1293
 249	1	2	0.119224	-3.87892	-7.04656	-3.14297
 250	1	2	0.109051	-2.37404	-6.87711	-2.18614
 251	1	2	0.118031	-2.62348	-8.30738	-3.23614
 252	1	6	-0.590955	-1.17394	-5.79712	-4.1883
 253	1	1	-0.003445	0.542284	-5.48255	-7.33951
 254	1	1	0.299845	-0.0218728	-6.90382	-7.04721
 255	1	2	0.023286	0.0174614	-5.09277	-8.22001
 256	1	2	-0.011958	0.274809	-4.80853	-6.51817
 257	1	3	-0.518063	0.680442	-7.83482	-7.8926
 258	1	4	0.011666	0.15306	-7.1551	-5.99359
 259	1	5	0.843192	0.573394	-9.17198	-7.68517
 260	1	1	-0.399874	1.3659	-9.94212	-8.71462
 261	1	2	0.119224	1.57615	-9.30213	-9.57888
 262	1	2	0.109051	0.788969	-10.8134	-9.03961
 263	1	2	0.118031	2.30985	-10.266	-8.26758
 264	1	6	-0.590955	-0.0451179	-9.69472	-6.78104
 265	1	1	-0.003445	2.97479	-5.29943	-6.33918
 266	1	1	0.299845	2.07832	-5.40481	-7.60236
 267	1	2	0.023286	2.61429	-5.99608	-5.57381
 268	1	2	-0.011958	3.9671	-5.67385	-6.62292
 269	1	3	-0.518063	2.33173	-4.27755	-8.46602
 270	1	4	0.011666	2.41352	-6.30761	-8.12528
 271	1	5	0.843192	2.09388	-4.42373	-9.79826
 272	1	1	-0.399874	2.3174	-3.12959	-10.5402
 273	1	2	0.119224	1.35312	-2.6297	-10.6717
 274	1	2	0.109051	2.75413	-3.34873	-11.5196
 275	1	2	0.118031	2.9934	-2.48246	-9.97263
 276	1	6	-0.590955	1.76144	-5.45735	-10.3431
 277	1	1	-0.003445	4.4179	-3.75419	-4.84026
 278	1	1	0.299845	3.16201	-3.86801	-5.7549
 279	1	2	0.023286	5.31546	-3.89277	-5.45635
 280	1	2	-0.011958	4.43082	-4.56983	-4.10765
 281	1	3	-0.518063	1.97102	-3.40154	-5.07553
 282	1	4	0.011666	3.34669	-3.18045	-6.58866
 283	1	5	0.843192	1.52057	-3.96981	-3.92184
 284	1	1	-0.399874	0.444012	-3.11276	-3.30625
 285	1	2	0.119224	-0.0897928	-3.69686	-2.55099
 286	1	2	0.109051	-0.254796	-2.78613	-4.0814
 287	1	2	0.118031	0.909835	-2.23621	-2.84349
 288	1	6	-0.590955	2.03803	-4.90833	-3.35085
 289	1	1	-0.003445	5.60597	-2.3377	-3.02251
 290	1	1	0.299845	4.50444	-2.39008	-4.11107
 291	1	2	0.023286	5.40343	-1.4835	-2.36331
 292	1	2	-0.011958	5.49558	-3.22953	-2.39171
 293	1	3	-0.518063	4.73008	-1.37882	-5.11233
 294	1	4	0.011666	3.54924	-2.22851	-3.59924
 295	1	5	0.843192	4.11756	-0.172508	-4.97183
 296	1	1	-0.399874	4.41308	0.719994	-6.15254
 297	1	2	0.119224	4.41532	0.125898	-7.07154
 298	1	2	0.109051	5.39597	1.18362	-6.01846
 299	1	2	0.118031	3.6436	1.49555	-6.21927
 300	1	6	-0.590955	3.33274	0.119975	-4.09375
 301	1	1	-0.003445	7.61843	-0.799112	-3.57413
 302	1	1	0.299845	7.06415	-2.25034	-3.56022
 303	1	2	0.023286	7.4593	-0.331603	-2.59476
 304	1	2	-0.011958	7.02671	-0.217672	-4.28916
 305	1	3	-0.518063	7.9448	-3.12331	-2.81065
 306	1	4	0.011666	7.06996	-2.61616	-4.59401
 307	1	5	0.843192	8.11894	-2.99016	-1.46494
 308	1	1	-0.399874	9.1698	-3.94701	-0.953641
 309	1	2	0.119224	8.71915	-4.60728	-0.207021
 310	1	2	0.109051	9.97928	-3.37127	-0.494292
 311	1	2	0.118031	9.57265	-4.54701	-1.77597
 312	1	6	-0.590955	7.5796	-2.16755	-0.755403
 313	1	1	-0.003445	9.4641	-1.06855	-5.40315
 314	1	1	0.299845	9.1269	-0.70047	-3.93438
 315	1	2	0.023286	9.17102	-2.10915	-5.58299
 316	1	2	-0.011958	8.85146	-0.467524	-6.08615
 317	1	3	-0.518063	9.63942	0.613569	-3.60643
 318	1	4	0.011666	9.67301	-1.40547	-3.29628
 319	1	5	0.843192	9.17925	1.75245	-4.19119
 320	1	1	-0.399874	10.0077	2.93458	-3.75237
 321	1	2	0.119224	10.1589	2.89322	-2.66924
 322	1	2	0.109051	9.49266	3.86259	-4.01998
 323	1	2	0.118031	10.9791	2.89233	-4.25409
 324	1	6	-0.590955	8.30313	1.82502	-5.02854
 325	1	1	-0.003445	11.2244	-0.0613472	-7.01969
 326	1	1	0.299845	10.9751	-0.873495	-5.72564
 327	1	2	0.023286	12.2807	-0.107012	-7.31267
 328	1	2	-0.011958	10.6136	-0.422333	-7.85589
 329	1	3	-0.518063	11.6907	-2.1299	-5.75537
 330	1	4	0.011666	11.4354	-0.290897	-4.91939
 331	1	5	0.843192	11.4672	-3.07123	-6.71128
 332	1	1	-0.399874	12.4117	-4.23674	-6.53771
 333	1	2	0.119224	12.4554	-4.80983	-7.46936
 334	1	2	0.109051	12.0539	-4.87452	-5.72428
 335	1	2	0.118031	13.4107	-3.86312	-6.29119
 336	1	6	-0.590955	10.6357	-3.01048	-7.59359
 337	1	4	0	0.464528	1.03941	11.2973
 338	1	2	0	10.9684	0.992881	-6.85492

Velocities

   1	0.000197175	-0.000434388	-0.00189547
   2	0.000302468	-7.90556e-05	-0.00157376
   3	0.000227506	-0.00026751	-0.00214063
   4	0.000137445	-0.000576066	-0.00190749
   5	0.000423388	-0.00098172	-0.00188627
   6	-0.00115976	0.00104171	-0.00225555
   7	0.000654378	-0.00122361	-0.00279104
   8	0.000563473	0.00079887	-0.000899979
   9	-0.00021279	-0.00114131	-0.00096681
  10	0.00195521	0.0031927	-0.00172537
  11	-0.000407497	0.00140445	0.00179103
  12	0.00153367	-0.000884711	-0.00203863
  13	-0.000685506	-1.26412e-05	-0.000903403
  14	-0.000175614	-2.446e-05	-0.00151382
  15	-0.000432795	-0.000113559	-0.00098073
  16	-0.00115118	0.000242359	-0.000874923
  17	-0.000388732	-4.29413e-05	-0.00148289
  18	0.000233734	-2.69746e-05	-0.00132912
  19	0.000605666	0.000255341	-0.00170446
  20	-0.000238131	-0.000335977	-0.000649877
  21	0.000103175	-0.00121209	0.00107934
  22	-0.00228242	-0.000574547	-0.00118956
  23	0.000647266	0.000149243	-0.00119441
  24	0.00183935	0.000792572	-0.00214408
  25	-0.000120777	-0.00041144	0.000270077
  26	-0.000744141	8.53889e-05	0.000120651
  27	0.000484538	-0.000246716	9.76893e-05
  28	-7.71327e-05	-0.000885566	0.000543473
  29	-0.000440221	0.00056188	0.00124278
  30	-0.00144515	0.000600229	7.33626e-05
  31	6.59488e-05	0.00094982	-0.000539715
  32	0.00166477	0.00135542	-0.000344047
  33	0.00185759	0.00222762	-0.000686003
  34	0.00192851	0.00130263	-0.000422717
  35	0.00206448	0.000558756	-0.000156972
  36	0.000762859	0.00139018	-0.00305558
  37	-0.000520815	-0.00043203	-9.14371e-05
  38	-0.000197715	-0.000312589	0.000115803
  39	-0.00095754	-0.000177266	-0.000209744
  40	-0.000590534	-0.000901438	-0.000515238
  41	-0.000239413	-0.000479862	0.00020021
  42	-0.000182992	-0.000374118	0.000151979
  43	0.000246832	-1.41677e-05	-0.000911037
  44	0.000473661	-0.000343723	-0.0018338
  45	-0.000185228	-0.000546427	-0.00163147
  46	0.000359977	-0.000482189	-0.00286999
  47	0.00138706	0.000197558	-0.00182234
  48	0.000839152	-1.47959e-05	-0.00207367
  49	0.000286824	-0.000146671	-0.000185043
  50	-8.99703e-05	-0.000455034	-9.74968e-05
  51	-0.000135423	-0.00065323	-0.000104179
  52	0.000985797	-0.000323203	0.000150116
  53	-0.000178861	-0.000856912	0.000323253
  54	0.000105563	-0.000111927	-0.000261481
  55	0.000166897	-0.00107727	0.00116213
  56	-0.000535611	-0.00140136	0.0022854
  57	-0.00153369	-0.00217339	0.00226362
  58	-8.91283e-05	-0.00135157	0.00311955
  59	-0.000235711	-0.00140752	0.00277868
  60	0.000172592	-0.000432975	0.000962747
  61	0.000361576	0.000655768	-2.9079e-05
  62	0.000286717	0.000483642	-0.000396189
  63	-1.41292e-05	0.0004796	0.00059268
  64	0.000946718	0.000929778	0.000178161
  65	0.000218419	0.000555763	-0.000206376
  66	0.000370228	0.000259426	-0.000531651
  67	-0.00198553	0.000303242	-1.65709e-05
  68	5.90669e-05	0.000128652	0.00123704
  69	-0.000170486	-0.00149062	0.00303931
  70	0.00203151	0.00103933	0.00112226
  71	-0.000193162	0.000303103	0.000793803
  72	-0.00426021	0.000318168	-0.00090947
  73	-0.00023167	0.0003132	-0.0005571
  74	-7.48757e-05	0.00061643	-0.000478918
  75	-0.000233398	0.000232722	-0.000509816
  76	-0.000488881	0.000433357	-0.000394866
  77	-0.000514162	0.000178585	-0.000591103
  78	9.8891e-05	0.00113113	-0.000877195
  79	-0.000995531	-0.000151494	-0.000319051
  80	-0.000442235	-0.000978314	-0.000135499
  81	-0.00085611	-0.0013221	0.00025664
  82	-0.00037133	-0.00161185	0.000288049
  83	0.000247766	-0.000770685	-0.000416902
  84	-0.000986766	0.000188987	-4.99558e-05
  85	0.000197045	0.000427143	-0.000168588
  86	-5.18052e-05	-0.000241948	-0.000575883
  87	0.000577711	0.000444965	-5.51802e-05
  88	-0.000126081	0.000702999	-4.54511e-05
  89	0.000256551	-0.000809341	-0.000267776
  90	-0.000462828	-0.000421657	-0.00110647
  91	-0.000835219	-0.00195343	0.00063087
  92	-0.000945911	-0.00168661	0.00117031
  93	-0.000525799	-0.00261634	0.000765601
  94	-0.00123484	-0.00233827	0.00229466
  95	-0.00142563	-0.000836314	0.00124935
  96	-0.00178785	-0.00122041	-5.86604e-05
  97	0.000441429	0.000478641	-0.000142827
  98	0.000466712	0.000499847	-8.91794e-05
  99	0.000430918	0.000517756	-0.000162087
 100	0.000409773	0.000437364	-7.24172e-05
 101	0.00047413	0.000516239	-0.000129077
 102	0.000492878	0.000508334	-9.84946e-05
 103	-0.000765952	-0.000564653	0.000371156
 104	-0.00141876	-0.00120573	0.000656794
 105	-0.00244351	-0.001498	-0.000114715
 106	-0.00101868	-0.00083558	0.000569382
 107	-0.00152417	-0.00188969	0.00168475
 108	-0.00189062	-0.00157683	0.00112556
 109	6.49772e-06	0.00126531	0.000614294
 110	0.000451012	0.000374528	2.77946e-06
 111	-0.000387378	0.00216412	-4.57041e-05
 112	-0.000269125	0.00147324	0.00167838
 113	0.000428777	-0.000334481	0.000423615
 114	0.000692446	0.000368466	-0.000536488
 115	0.000809286	6.32216e-05	9.25243e-05
 116	0.000645641	-0.00036553	0.000281225
 117	0.000855237	0.000158878	-5.05199e-05
 118	-0.000145993	-0.000746646	0.000250381
 119	0.00123117	-0.000922492	0.000688034
 120	0.00104261	0.00101445	-0.000454571
 121	0.000129819	0.000798844	0.000731705
 122	0.00016155	0.000999665	0.00083357
 123	-0.000131078	0.000813274	0.000665749
 124	0.000201884	0.000716112	0.000667502
 125	0.000404922	0.00093235	0.000955191
 126	0.000194582	0.00106892	0.00083268
 127	-2.32515e-05	0.00049778	-0.000108461
 128	0.00048942	-0.000230607	-0.000381214
 129	0.00122066	-0.000959374	0.00032756
 130	0.00043042	-0.000684234	-0.00148811
 131	0.000161806	0.000221546	-4.82701e-05
 132	-0.000642388	0.000392121	-0.00123412
 133	0.00072031	0.0011086	0.000273245
 134	0.00047129	0.000428733	0.000564934
 135	6.94277e-06	0.00186459	0.000500192
 136	0.00138626	0.00157933	-0.000355622
 137	0.000267056	8.96633e-05	0.000632582
 138	0.000639484	0.000150009	0.000394316
 139	-0.000125098	-4.30042e-05	0.000139316
 140	-0.000195216	-0.000668823	-0.000578002
 141	0.000138873	0.000689218	-0.000481083
 142	-0.000553674	-0.00214252	0.000108125
 143	-0.000163633	-0.00103527	-0.00240624
 144	-0.000456856	2.31254e-05	0.000524917
 145	0.00117127	0.000851916	0.000211388
 146	0.000915652	0.000638746	0.000282793
 147	0.00113813	0.00102673	0.000134897
 148	0.00138264	0.000836646	0.000142336
 149	0.000708795	0.000583807	0.000211192
 150	0.000783684	0.000540984	0.000246505
 151	0.000621648	-0.000161372	-0.000770863
 152	-0.000184579	7.24138e-05	-0.00102749
 153	0.000858039	-0.000460303	-0.00110972
 154	-0.00129256	-0.00014551	-0.00223449
 155	-0.00082578	0.000911188	0.000183085
 156	0.000739909	-0.000438028	-0.0015162
 157	0.000715347	0.000444762	0.000438232
 158	0.00102907	0.000743928	0.000293497
 159	0.000775086	0.000524165	0.000872939
 160	0.000387484	0.000128505	0.000590805
 161	0.000977473	0.000698901	4.76912e-05
 162	0.00110115	0.000840751	0.00054005
 163	0.000571726	0.000375614	0.000101173
 164	-2.48318e-05	0.000608767	0.000381126
 165	-4.23685e-05	0.00100029	0.000449909
 166	-0.000365991	0.000863103	0.000524094
 167	-0.000361691	3.45959e-05	0.000368551
 168	0.000762615	0.00022593	0.000488663
 169	-0.000362521	-0.000150608	-0.000155369
 170	0.000558393	0.00020498	-0.000130135
 171	-0.00124376	0.00044432	0.000187497
 172	-0.000761215	-0.00103067	-0.000614885
 173	0.000705387	0.000123338	-0.000320081
 174	0.000828378	0.000167284	-0.000487249
 175	0.000532645	0.00031154	0.000137289
 176	0.000421171	0.000117422	2.1756e-05
 177	0.000296568	0.000906317	0.00067001
 178	0.00131075	-0.000226799	-0.000485575
 179	-0.000530562	-0.000533156	-0.000175058
 180	0.000368347	0.000873398	0.000983086
 181	-0.000257723	-0.000390598	-8.58152e-05
 182	-8.4499e-05	-0.000208473	-0.000215692
 183	-0.000319362	-0.000915239	-9.17394e-05
 184	-0.000791306	-0.00015538	5.89772e-05
 185	-0.000182952	-1.50791e-05	-0.00025977
 186	-0.000146852	-0.000212677	-0.000407073
 187	-0.000420895	-0.000262864	0.000114322
 188	-0.000975693	0.000346161	0.00124422
 189	-0.000232345	0.00111174	0.00153521
 190	-0.00134556	0.000184748	0.00147243
 191	-0.00152841	0.000184718	0.00173446
 192	-0.000908833	-0.000513453	0.000113931
 193	0.00035435	0.000331261	9.71953e-05
 194	6.76674e-05	-6.52448e-05	4.01819e-05
 195	0.00037103	0.000433	0.000317829
 196	0.000367477	0.000293635	6.96366e-05
 197	0.000105785	-0.000181473	0.000430942
 198	-1.68644e-05	2.46254e-05	-0.000257001
 199	0.00056396	-7.67951e-05	0.000336559
 200	0.000289917	-0.000213246	0.00148683
 201	0.000500403	0.000710214	0.00191494
 202	0.000259944	-0.000682385	0.00168194
 203	0.000207222	-0.000801648	0.00207058
 204	0.000515256	9.09512e-05	-0.000289602
 205	0.00118043	0.000540028	0.000580203
 206	0.00047223	0.000359685	0.000205652
 207	0.00229183	0.00125633	0.000404159
 208	0.00133704	-1.95226e-05	0.00187861
 209	0.000444177	0.000266824	-8.35223e-05
 210	0.000269038	0.000393393	0.000269834
 211	0.00024585	7.1291e-06	0.000343144
 212	0.000369969	-0.000494357	-0.00025031
 213	0.000690728	-0.000338844	-0.000503422
 214	-0.000315189	-0.000840024	0.000312347
 215	0.000446216	-0.00115994	-0.000538728
 216	0.000429457	0.000347063	-0.000105031
 217	-0.000424282	-0.00018645	-7.58701e-05
 218	0.000381492	0.000590865	0.000220021
 219	-0.000398974	-0.000350339	-0.000144135
 220	-0.0010993	8.59417e-05	6.36699e-05
 221	4.13099e-05	0.00170275	0.000593796
 222	0.000405793	0.000382148	0.000161584
 223	0.00144785	-0.000643009	-0.00141381
 224	0.000783695	0.000468071	-0.00059838
 225	0.00143346	0.000800575	-0.000222697
 226	0.000709228	0.000769099	-0.000130829
 227	-6.68218e-06	0.000318561	-0.000604204
 228	0.00309324	-0.00315255	-0.00439627
 229	6.00269e-05	-0.000933933	-0.000380263
 230	-0.000398262	-0.000824985	-0.000434168
 231	-0.000409986	-0.00138987	-0.000534652
 232	0.000798132	-0.00133308	-0.000360038
 233	-0.000558481	-0.000937842	-0.000271937
 234	-0.000480332	-0.000643737	-0.000702197
 235	-0.00100598	-0.000292198	-0.000159077
 236	-0.00199426	-0.000132417	0.000540159
 237	-0.00272184	-0.000651346	0.000314702
 238	-0.00172747	0.000359024	0.00114145
 239	-0.00254118	-0.000217369	0.000898846
 240	-0.000387487	-8.06337e-05	-0.000124829
 241	0.000288063	-0.000190985	4.84716e-05
 242	0.000285926	-2.74713e-05	-0.0002187
 243	0.000396264	-0.000242124	0.00035113
 244	0.000176614	-0.000408689	3.77415e-05
 245	0.000944934	0.000547156	0.000372186
 246	0.000140077	0.00019992	-0.000822995
 247	0.00164984	0.000503126	-4.22414e-05
 248	0.00226296	0.000522817	0.000358801
 249	0.00243255	0.00116097	0.00117949
 250	0.00319218	-0.000127008	0.000165203
 251	0.00153685	0.000489898	-0.000219953
 252	0.00180093	0.000427802	-0.000605201
 253	-0.000114698	6.95607e-05	-0.000515375
 254	0.000201828	0.00013057	-3.12247e-07
 255	-9.89914e-05	-0.000431038	-0.000676184
 256	-0.000230771	0.000295367	-0.000805587
 257	9.69512e-05	0.000139412	1.21983e-05
 258	0.000462844	0.000338555	-0.000106544
 259	0.00032575	-5.91421e-05	0.00143635
 260	-0.00021505	-0.000248932	0.000664791
 261	-0.00150823	-0.000788701	0.000131909
 262	-0.000357237	-0.000725299	0.0020188
 263	0.00031304	0.000440375	2.07005e-05
 264	0.00213789	0.00081922	0.00208552
 265	-7.95634e-05	6.92487e-05	-0.000507956
 266	-0.000190472	0.000148661	-0.000455861
 267	0.000594541	-0.000360945	-0.000561623
 268	0.000112995	0.000886872	-0.000943633
 269	-0.000259787	0.000126405	-0.000423654
 270	-0.000162329	0.000214343	-0.000609555
 271	-0.000634692	0.000593115	-0.000149708
 272	-2.04628e-05	0.000286151	-7.28478e-05
 273	0.000425017	0.00146316	0.000684863
 274	-0.00075169	0.000247615	-0.000393969
 275	0.0010376	-0.000592144	-0.000161315
 276	-0.000818412	0.000289283	-0.000609389
 277	-0.00100537	-0.000476837	0.00100869
 278	-0.000654511	-0.000145421	0.000241219
 279	-0.000677931	-0.00101732	0.00173414
 280	-0.00179383	-0.00034076	0.00125809
 281	-0.00108678	-0.000551627	-0.000150127
 282	-0.000262343	9.61981e-05	0.000553029
 283	-0.000688299	-0.000145642	0.000287883
 284	-0.00193466	-0.000975918	-0.000551498
 285	-0.000793257	-0.00101324	0.000184407
 286	-0.00264295	-0.00310995	-0.000792626
 287	-0.00333869	0.000255789	-0.00161757
 288	0.000275801	0.00102631	0.00117323
 289	-0.000506808	-0.000284478	0.000500195
 290	-0.000895403	-0.000268193	0.000739749
 291	-0.000748056	-0.00088507	0.00123008
 292	0.000236891	-0.000865153	-7.41097e-05
 293	-0.000944776	-0.000677711	0.000265122
 294	-0.000856192	-0.000139761	0.00079284
 295	0.000430476	0.000123449	0.00112218
 296	0.00132898	7.85951e-05	0.00111766
 297	0.000440252	0.000593476	0.000825307
 298	0.00191081	-0.00117274	0.00118021
 299	0.0022678	0.00105859	0.00167858
 300	0.00229003	0.00109926	0.00179973
 301	-0.00053774	0.000766111	0.000622119
 302	-0.000600986	0.0007849	8.08794e-05
 303	-0.000237846	0.000320221	0.000853828
 304	-0.000791171	0.00107389	0.00107587
 305	-0.000295421	0.000384668	-0.000423471
 306	-0.000797113	0.00140375	-0.000172286
 307	0.00095867	0.000749318	-0.000807761
 308	-0.000460586	-0.000313683	-0.000170502
 309	-0.00183525	0.000294967	-0.000444192
 310	7.20168e-05	-0.00159428	0.000430731
 311	-0.000725748	-0.000965558	0.000129124
 312	0.00137552	0.00136482	-0.000500543
 313	-0.000423999	0.000149623	0.000274054
 314	-0.00039653	0.000225246	0.000336004
 315	0.000173908	-0.000118003	0.00110644
 316	-0.00089185	-0.00074827	-0.000347606
 317	-0.000559845	6.95036e-05	0.000768003
 318	-0.000581572	4.14362e-06	-4.82916e-06
 319	-0.000400085	-0.000264232	0.000535289
 320	-0.00141667	0.000285486	0.000861967
 321	-0.00299606	0.00135723	0.0012142
 322	-0.00170956	-0.000268444	-0.000794806
 323	-0.000816853	0.000405188	0.00203224
 324	0.000830193	-0.000926607	-0.0010046
 325	0.000421124	-0.000336723	-0.000826
 326	-0.000449474	0.000654201	-0.000174536