pySIMM System Object

170 atoms
169 bonds
308 angles
397 dihedrals
14 impropers

6 atom types
7 bond types
12 angle types
10 dihedral types
1 improper types

-77.459822 77.459822 xlo xhi
-77.459822 77.459822 ylo yhi
-77.459822 77.459822 zlo zhi

Masses

   1	12.01	# c3
   2	1.008	# hc
   3	16.0	# os
   4	1.008	# h1
   5	12.01	# c
   6	16.0	# o

Pair Coeffs

   1	0.1094	3.3996695084235347	# c3
   2	0.0157	2.649532787749369	# hc
   3	0.17	3.0000123434657784	# os
   4	0.0157	2.471353044121301	# h1
   5	0.086	3.3996695084235347	# c
   6	0.21	2.959921901149463	# o

Bond Coeffs

   1	637.7	1.2183	# c,o
   2	330.6	1.0969	# c3,h1
   3	308.6	1.4316	# c3,os
   4	313.0	1.5241	# c,c3
   5	390.8	1.3584	# c,os
   6	300.9	1.5375	# c3,c3
   7	330.6	1.0969	# c3,hc

Angle Coeffs

   1	46.39	109.56	# c3,c3,h1
   2	46.93	108.77	# c,c3,hc
   3	68.0	107.97	# c3,c3,os
   4	68.89	110.72	# c3,c,os
   5	46.34	109.8	# c3,c3,hc
   6	63.28	115.98	# c,os,c3
   7	50.8	109.78	# h1,c3,os
   8	67.4	123.2	# c3,c,o
   9	39.4	107.58	# hc,c3,hc
  10	39.24	108.46	# h1,c3,h1
  11	75.32	123.25	# o,c,os
  12	62.86	111.51	# c3,c3,c3

Dihedral Coeffs

   1	1	0.0	2	180	# X,c,c3,X
   2	1	0.3833333333333333	3	0	# X,c3,os,X
   3	3	0.8	1	0	0.0	2	0	0.08	3	180	# hc,c3,c,o
   4	3	2.7	2	180	0.0	1	0	1.15	3	0	# c3,c,os,c3
   5	1	0.15555555555555556	3	0	# X,c3,c3,X
   6	2	2.7	2	180	1.4	1	180	# o,c,os,c3
   7	2	0.383	3	0	0.8	1	180	# c3,c3,os,c
   8	2	0.0	3	0	0.25	1	0	# hc,c3,c3,os
   9	1	0.16	3	0	# hc,c3,c3,c3
  10	3	0.18	3	0	0.25	2	180	0.2	1	180	# c3,c3,c3,c3

Improper Coeffs

   1	10.5	-1	2	# c,X,X,o

Atoms

   1	1	1	-0.003445	5.98432	1.97142	10.3742
   2	1	1	0.299845	7.49568	1.62001	10.3021
   3	1	2	0.023286	5.44804	1.24833	11.0003
   4	1	2	-0.011958	5.87034	2.94161	10.8733
   5	1	3	-0.518063	7.95594	1.03615	11.5362
   6	1	4	0.011666	8.06011	2.54015	10.1048
   7	1	5	0.843192	7.60253	-0.245641	11.8191
   8	1	1	-0.399874	8.21796	-0.710559	13.1158
   9	1	2	0.119224	9.30687	-0.723529	13.0107
  10	1	2	0.109051	7.85812	-1.71803	13.3495
  11	1	2	0.118031	7.93945	-0.0215909	13.9185
  12	1	6	-0.590955	6.8927	-0.947548	11.1264
  13	1	1	-0.003445	5.09982	0.586088	8.39596
  14	1	1	0.299845	5.3056	2.01203	8.97661
  15	1	2	0.023286	4.13179	0.202011	8.7431
  16	1	2	-0.011958	5.84984	-0.0916081	8.819
  17	1	3	-0.518063	6.10551	2.79527	8.06859
  18	1	4	0.011666	4.31128	2.46777	9.07291
  19	1	5	0.843192	6.05071	4.15035	8.14273
  20	1	1	-0.399874	6.94133	4.78729	7.10443
  21	1	2	0.119224	7.38648	5.69583	7.52182
  22	1	2	0.109051	6.34133	5.03931	6.22471
  23	1	2	0.118031	7.73519	4.09148	6.81299
  24	1	6	-0.590955	5.3528	4.7807	8.90963
  25	1	1	-0.003445	3.98339	1.12103	6.091
  26	1	1	0.299845	5.17561	0.465054	6.85325
  27	1	2	0.023286	3.17291	1.34262	6.79714
  28	1	2	-0.011958	4.32102	2.09515	5.71451
  29	1	3	-0.518063	5.28884	-0.948206	6.58615
  30	1	4	0.011666	6.09651	0.964107	6.52965
  31	1	5	0.843192	6.22952	-1.3736	5.70149
  32	1	1	-0.399874	6.24202	-2.87724	5.61004
  33	1	2	0.119224	5.34125	-3.21009	5.08629
  34	1	2	0.109051	6.25761	-3.30198	6.61878
  35	1	2	0.118031	7.13331	-3.19677	5.06088
  36	1	6	-0.590955	6.94025	-0.653402	5.029
  37	1	1	-0.003445	2.78212	1.10418	3.76095
  38	1	1	0.299845	3.41668	0.275142	4.91582
  39	1	2	0.023286	2.8043	0.476539	2.8632
  40	1	2	-0.011958	3.42282	1.96588	3.53193
  41	1	3	-0.518063	2.4511	-0.624864	5.49768
  42	1	4	0.011666	4.23996	-0.288154	4.46366
  43	1	5	0.843192	2.05351	-1.72353	4.8119
  44	1	1	-0.399874	1.03026	-2.50176	5.60088
  45	1	2	0.119224	0.668492	-3.34378	5.00273
  46	1	2	0.109051	0.194529	-1.84303	5.85926
  47	1	2	0.118031	1.49333	-2.87177	6.52079
  48	1	6	-0.590955	2.42944	-2.03088	3.69899
  49	1	1	-0.003445	0.756999	2.41492	2.81286
  50	1	1	0.299845	1.32773	1.58282	4.00026
  51	1	2	0.023286	1.41072	3.27893	2.64416
  52	1	2	-0.011958	-0.227735	2.81822	3.08197
  53	1	3	-0.518063	1.33665	2.38124	5.19731
  54	1	4	0.011666	0.700043	0.695951	4.15446
  55	1	5	0.843192	0.194223	2.4722	5.92607
  56	1	1	-0.399874	0.440466	3.1969	7.22728
  57	1	2	0.119224	-0.447158	3.78194	7.48593
  58	1	2	0.109051	1.30559	3.86126	7.13398
  59	1	2	0.118031	0.634334	2.45675	8.00945
  60	1	6	-0.590955	-0.869693	1.9649	5.63627
  61	1	1	-0.003445	-0.00387964	2.36532	0.30303
  62	1	1	0.299845	0.620014	1.58726	1.50303
  63	1	2	0.023286	-0.029009	1.71655	-0.57941
  64	1	2	-0.011958	-1.04909	2.59505	0.547623
  65	1	3	-0.518063	-0.208715	0.457523	1.83326
  66	1	4	0.011666	1.61374	1.23105	1.2085
  67	1	5	0.843192	-0.251722	-0.621274	1.01044
  68	1	1	-0.399874	-1.13284	-1.69657	1.5932
  69	1	2	0.119224	-2.15582	-1.31779	1.67754
  70	1	2	0.109051	-0.760927	-1.96263	2.58762
  71	1	2	0.118031	-1.11067	-2.57604	0.942567
  72	1	6	-0.590955	0.338261	-0.730073	-0.0449527
  73	1	1	-0.003445	0.415603	4.32051	-1.4746
  74	1	1	0.299845	0.72159	3.69342	-0.0713166
  75	1	2	0.023286	1.23939	4.12274	-2.16793
  76	1	2	-0.011958	0.455059	5.41024	-1.34476
  77	1	3	-0.518063	2.15519	3.55454	0.095753
  78	1	4	0.011666	0.386707	4.43015	0.669962
  79	1	5	0.843192	2.87907	2.69503	-0.675691
  80	1	1	-0.399874	4.33305	2.70384	-0.275049
  81	1	2	0.119224	4.41676	2.78214	0.813138
  82	1	2	0.109051	4.82809	3.56176	-0.739831
  83	1	2	0.118031	4.8049	1.77573	-0.614112
  84	1	6	-0.590955	2.41946	1.95902	-1.52385
  85	1	1	-0.003445	-0.753273	3.17524	-3.50079
  86	1	1	0.299845	-0.939512	3.93742	-2.15134
  87	1	2	0.023286	-0.933353	3.85134	-4.34706
  88	1	2	-0.011958	0.290172	2.85414	-3.59503
  89	1	3	-0.518063	-1.62445	5.17645	-2.41555
  90	1	4	0.011666	-1.53464	3.33195	-1.4613
  91	1	5	0.843192	-2.98128	5.21737	-2.38544
  92	1	1	-0.399874	-3.48479	6.59616	-2.74212
  93	1	2	0.119224	-2.64216	7.2827	-2.87624
  94	1	2	0.109051	-4.12978	6.96474	-1.93871
  95	1	2	0.118031	-4.05081	6.53515	-3.67602
  96	1	6	-0.590955	-3.70432	4.32869	-1.98046
  97	1	1	-0.003445	-1.07707	0.851748	-4.60752
  98	1	1	0.299845	-1.6569	1.92365	-3.62922
  99	1	2	0.023286	-1.14685	-0.118868	-4.10036
 100	1	2	-0.011958	0.00419658	0.998085	-4.72095
 101	1	3	-0.518063	-2.96737	2.36835	-4.03519
 102	1	4	0.011666	-1.70799	1.46418	-2.63315
 103	1	5	0.843192	-4.0479	1.605	-3.73356
 104	1	1	-0.399874	-5.30407	2.17628	-4.34139
 105	1	2	0.119224	-6.15012	1.52134	-4.10762
 106	1	2	0.109051	-5.18467	2.25598	-5.42613
 107	1	2	0.118031	-5.48206	3.1706	-3.92068
 108	1	6	-0.590955	-3.99126	0.497509	-3.24132
 109	1	1	-0.003445	-2.54952	-0.578533	-6.12977
 110	1	1	0.299845	-1.74958	0.745018	-6.01518
 111	1	2	0.023286	-3.00195	-0.814537	-5.1619
 112	1	2	-0.011958	-1.83004	-1.37934	-6.33499
 113	1	3	-0.518063	-0.734078	0.70821	-7.03934
 114	1	4	0.011666	-2.413	1.59749	-6.20364
 115	1	5	0.843192	-0.0202493	1.83162	-7.30726
 116	1	1	-0.399874	1.03473	1.57634	-8.35756
 117	1	2	0.119224	1.94145	2.12975	-8.09427
 118	1	2	0.109051	0.663802	1.91332	-9.32983
 119	1	2	0.118031	1.26289	0.506638	-8.40601
 120	1	6	-0.590955	-0.169786	2.90521	-6.75848
 121	1	1	-0.003445	-4.95804	-1.35007	-6.7836
 122	1	1	0.299845	-3.67196	-0.562335	-7.19867
 123	1	2	0.023286	-5.23116	-1.03572	-5.76858
 124	1	2	-0.011958	-5.78577	-0.990951	-7.40835
 125	1	3	-0.518063	-3.13008	-1.03742	-8.44556
 126	1	4	0.011666	-3.97362	0.487536	-7.31124
 127	1	5	0.843192	-3.73134	-0.653011	-9.60231
 128	1	1	-0.399874	-2.97149	-1.14563	-10.8122
 129	1	2	0.119224	-1.98188	-1.50542	-10.5132
 130	1	2	0.109051	-2.85716	-0.319041	-11.5211
 131	1	2	0.118031	-3.53088	-1.95984	-11.2801
 132	1	6	-0.590955	-4.6796	0.101415	-9.68265
 133	1	1	-0.003445	-3.81312	-3.7099	-6.18732
 134	1	1	0.299845	-4.9844	-2.91227	-6.81915
 135	1	2	0.023286	-3.60724	-4.5657	-6.84388
 136	1	2	-0.011958	-2.87801	-3.15745	-6.17702
 137	1	3	-0.518063	-5.09212	-3.40457	-8.17007
 138	1	4	0.011666	-5.88772	-3.21699	-6.2752
 139	1	5	0.843192	-6.322	-3.59885	-8.70995
 140	1	1	-0.399874	-6.20756	-4.44604	-9.95363
 141	1	2	0.119224	-5.41023	-4.05759	-10.5929
 142	1	2	0.109051	-7.1603	-4.43947	-10.492
 143	1	2	0.118031	-5.9626	-5.47057	-9.65432
 144	1	6	-0.590955	-7.37963	-3.31118	-8.18837
 145	1	1	-0.003445	-3.39465	-5.63802	-4.58539
 146	1	1	0.299845	-4.10859	-4.27737	-4.77829
 147	1	2	0.023286	-3.92609	-6.40083	-5.16844
 148	1	2	-0.011958	-2.38822	-5.58078	-5.02127
 149	1	3	-0.518063	-3.61234	-3.37809	-3.76725
 150	1	4	0.011666	-5.18429	-4.46374	-4.6688
 151	1	5	0.843192	-4.50327	-2.70194	-2.99437
 152	1	1	-0.399874	-3.8246	-2.16304	-1.75888
 153	1	2	0.119224	-4.51045	-1.48734	-1.23816
 154	1	2	0.109051	-2.92088	-1.61696	-2.04594
 155	1	2	0.118031	-3.55339	-2.9991	-1.10813
 156	1	6	-0.590955	-5.70632	-2.68488	-3.1683
 157	1	1	-0.003445	-2.79676	-7.57887	-3.00684
 158	1	1	0.299845	-3.24517	-6.10202	-3.11181
 159	1	2	0.023286	-2.01268	-7.79525	-3.7437
 160	1	2	-0.011958	-2.38318	-7.78384	-2.01173
 161	1	3	-0.518063	-4.43193	-5.87276	-2.31461
 162	1	4	0.011666	-2.44164	-5.49611	-2.67419
 163	1	5	0.843192	-5.64772	-6.37885	-2.65306
 164	1	1	-0.399874	-6.69042	-5.97078	-1.64249
 165	1	2	0.119224	-6.57574	-4.90613	-1.41346
 166	1	2	0.109051	-6.557	-6.55666	-0.728459
 167	1	2	0.118031	-7.68724	-6.14794	-2.05822
 168	1	6	-0.590955	-5.89577	-7.0189	-3.6551
 169	1	4	0	7.70217	0.930864	9.47382
 170	1	2	0	-3.62418	-8.27539	-3.18622

Velocities

   1	-0.00159636	0.000749102	-0.000653629
   2	-0.00183626	-0.00022979	-0.000322217
   3	-0.00215516	0.00191633	0.000120568
   4	-0.00084049	0.00137489	-0.00176768
   5	-0.00242889	0.000529776	0.000281176
   6	-0.00115247	-0.000807222	-0.000670212
   7	-0.000670933	-9.98297e-05	-0.000205649
   8	-0.000368919	0.00132539	7.82643e-05
   9	-0.000386976	0.00222251	-9.58177e-05
  10	0.000566801	0.00132872	0.000980521
  11	-0.000766117	0.00183837	-0.000509589
  12	0.00180406	-0.00142704	-0.00134474
  13	0.00113615	-0.000421092	-0.000344262
  14	-0.000961777	-2.45778e-05	-0.00106091
  15	0.00217657	-0.00252062	0.00062353
  16	0.00298457	0.00102809	-0.00114056
  17	-0.00110178	0.00026681	-0.000753617
  18	-0.00138599	-0.000700202	-0.00182289
  19	0.000349049	0.000381913	0.00043032
  20	0.000257986	0.000363176	0.000491723
  21	-0.000930856	0.00130106	-5.50888e-05
  22	0.000530987	-0.00106302	-0.000148276
  23	0.00121854	0.000867691	0.00167305
  24	0.00167316	0.000260503	0.00175671
  25	0.000945642	-3.91765e-05	-0.000302678
  26	0.000605172	-0.000673338	-0.00029884
  27	0.00112025	0.000946903	-0.000285776
  28	0.00170345	-0.000376908	-0.000678469
  29	-0.000198288	-0.000834933	-9.32796e-05
  30	0.00073507	-0.00117736	-0.000262646
  31	-0.000673805	-0.00111379	-0.000751451
  32	-0.00120509	-0.00149144	-0.000675868
  33	-0.00161742	-0.00125589	4.42929e-05
  34	-0.000146541	-0.00150429	-0.000836738
  35	-0.00168514	-0.00120481	-0.00164112
  36	-0.00114253	-0.00155379	-0.000984907
  37	3.91389e-05	-0.000114286	-0.000162673
  38	0.000318988	0.000239454	-0.0001287
  39	-0.000412526	-0.000521403	7.16642e-05
  40	2.04915e-05	-0.000314342	-0.000861865
  41	0.000555501	8.18557e-05	-5.48346e-05
  42	0.000252298	0.0001627	-0.00029997
  43	8.46532e-05	0.000691259	-0.00072208
  44	0.000283805	0.000224493	-0.00108533
  45	0.000911805	4.6191e-05	-0.00129708
  46	-0.000124245	-0.000124093	-0.00138258
  47	0.000233541	0.000419941	-0.00095388
  48	-0.000560968	0.00151825	-0.00128237
  49	5.72728e-06	-0.00037023	-0.000139659
  50	8.38363e-05	-9.88635e-05	-6.51199e-06
  51	0.000148158	-0.000549496	-0.000389
  52	0.000118643	-4.58427e-05	-0.000163095
  53	0.000224474	0.000199392	-0.000104181
  54	9.06619e-06	-4.71996e-05	0.00018596
  55	2.55597e-05	0.000497947	-0.00026331
  56	-0.000329655	0.00168401	-0.000669645
  57	-0.00123734	0.000308617	-0.000593974
  58	-0.00150817	0.00308301	-0.00150499
  59	0.0012388	0.00243289	-0.000372762
  60	0.000220847	0.000576173	-0.000172655
  61	-6.02075e-06	-0.000386459	-0.000170211
  62	-0.000285636	-0.00050497	-5.22487e-05
  63	9.53775e-05	-0.000302349	-0.000261245
  64	-5.64377e-05	-0.000342971	-0.000276456
  65	-0.000576997	-0.000456429	-0.000312648
  66	-0.000328044	-0.000752961	-0.000121294
  67	0.000100347	-0.000662738	0.000408949
  68	-0.000397092	-0.000582228	-0.00064657
  69	-0.000273638	-0.00012715	-0.00050589
  70	-0.000702394	-0.001336	-0.000684579
  71	-0.000829656	-0.00021789	-0.00104073
  72	0.00154989	-0.00105499	0.000612225
  73	-0.000187304	0.000968325	0.000945908
  74	8.63764e-05	-0.000207189	0.000347162
  75	0.000195026	0.00254458	0.000926307
  76	-0.00137493	0.000866209	0.00221698
  77	8.51547e-05	-0.000309889	0.000317207
  78	0.000174143	-0.000725235	0.000919351
  79	0.000194971	0.000153106	0.000111228
  80	0.000157072	-2.90855e-05	3.72777e-05
  81	0.000217606	-0.00140272	0.000166362
  82	-3.99392e-05	0.000744564	0.00121944
  83	0.000529931	0.00059277	-0.00112527
  84	0.000127306	0.000575107	-0.000540232
  85	0.00138923	-0.000644753	0.00108649
  86	0.000284778	0.000479808	0.000225929
  87	0.00309682	-0.0011317	0.000339195
  88	0.00127449	-0.00164806	0.00282594
  89	-2.85497e-05	0.000116114	-0.00103917
  90	5.41976e-05	0.000852713	0.000328738
  91	-0.000192592	-0.000400644	-0.000985791
  92	-0.000877968	-0.00030139	-0.000127472
  93	-0.00136402	0.000413575	0.000895667
  94	-0.00148732	-0.00159197	-2.73337e-06
  95	-0.000581946	0.000190067	-0.000360808
  96	0.000309946	-0.000310639	-0.000497888
  97	0.000269969	-0.000270939	0.00085051
  98	0.000619519	-4.85643e-05	0.000845337
  99	0.000448369	-0.000175796	0.00105587
 100	0.000186433	-0.000185935	0.000351567
 101	0.000821391	0.000695191	0.000835722
 102	0.000284133	-6.43246e-05	0.000841312
 103	0.000522406	0.000740481	0.000564193
 104	0.000538835	0.00138218	0.000848532
 105	0.000614533	0.000981719	9.51123e-05
 106	0.000649235	0.00241761	0.000979415
 107	0.000236957	0.000907383	0.00179451
 108	0.00025901	0.000631645	-0.000172742
 109	0.000520535	-0.000908715	0.00100798
 110	-0.000272782	-0.000486253	0.00119707
 111	0.00108179	-0.00183333	0.00105906
 112	0.000634451	-0.000589682	-4.0079e-05
 113	-0.000730062	0.000310051	0.000750223
 114	-0.000785091	-0.000803048	0.00156526
 115	-0.00113667	9.94998e-05	0.000323144
 116	-0.00142438	-1.87714e-05	0.00035523
 117	-0.00172555	0.000920796	-0.000801304
 118	-0.00208281	-0.00181429	-1.73935e-05
 119	-0.000701561	2.35035e-05	0.00182373
 120	-0.000758904	0.000402656	0.000719211
 121	0.000479239	-0.000541502	0.00123136
 122	0.000327224	-0.000220501	0.00135405
 123	0.000870142	-0.00145082	0.00155687
 124	0.000403375	5.19597e-05	0.00175637
 125	0.000214683	0.000142053	0.00124664
 126	0.00019943	-0.000253086	0.0017103
 127	-0.000538249	-0.000786009	0.00126443
 128	-0.000637062	-0.00182832	0.00154076
 129	-0.000347674	-0.000857674	0.00165764
 130	-0.00141739	-0.00276143	0.000418445
 131	-0.000370359	-0.00281819	0.00295387
 132	-0.00109917	-0.00191901	0.0010511
 133	0.000418384	-0.00138008	-0.00106167
 134	0.000558463	-0.000560915	-0.000402949
 135	-0.00174565	-0.00236985	-0.00067628
 136	0.00133251	-0.00250116	-0.0031376
 137	0.000322284	0.000978721	-0.00110126
 138	0.000662551	-0.00106975	-0.000764088
 139	0.000267614	0.00212265	-0.00106143
 140	-0.000767058	0.00394843	-0.00229311
 141	-0.00184026	0.00543463	-0.00292891
 142	-0.00147657	0.00392198	-0.00105905
 143	0.00038996	0.00367789	-0.00408705
 144	0.000301673	0.0015891	-9.72713e-05
 145	0.00139228	-0.000170164	0.000626257
 146	0.00126472	-0.000386446	-0.000343327
 147	0.0021169	-0.000267383	0.000135423
 148	0.00173069	0.000127612	0.00165649
 149	0.000967311	0.000696905	-0.00108166
 150	0.00130812	-0.000354746	-0.000132098
 151	0.000707412	6.51226e-06	-0.000671066
 152	0.000650253	0.000496116	-0.000799419
 153	0.000676201	0.000765025	-0.0010497
 154	0.000791792	0.000309659	-0.000828996
 155	0.000354823	0.000608911	-0.000543017
 156	0.000558333	-0.00127378	1.2762e-05
 157	-0.000861556	-0.000527359	0.00145829
 158	0.000116432	-0.000219113	0.000653126
 159	0.00283954	0.000101541	0.00530104
 160	-0.0061596	-0.00175604	0.00334718
 161	-3.38724e-05	0.000410616	-8.04955e-05
 162	0.00015862	-0.000687946	0.00147311
 163	0.000453699	-0.000432104	-1.80929e-05
 164	0.000139225	0.000304438	-0.000807101
 165	-0.000364841	0.000674836	-0.00246389
 166	0.000646323	0.00176599	4.41556e-05
 167	0.000268188	-0.000963622	-0.000541703
 168	0.00111728	-0.00172386	0.000579781
 169	-0.00166488	-0.000802455	0.000334631
 170	6.97725e-05	-0.000534139	-0.00363204

Bonds

   1	6	1	2
   2	7	1	3
   3	7	1	4
   4	3	2	5
   5	2	2	6
   6	5	5	7
   7	4	7	8
   8	1	7	12
   9	7	8	9
  10	7	8	10
  11	7	8	11
  12	6	13	14
  13	7	13	15
  14	7	13	16
  15	3	14	17
  16	2	14	18
  17	5	17	19
  18	4	19	20
  19	1	19	24
  20	7	20	21
  21	7	20	22
  22	7	20	23
  23	6	1	14
  24	6	25	26
  25	7	25	27
  26	7	25	28
  27	3	26	29
  28	2	26	30
  29	5	29	31
  30	4	31	32
  31	1	31	36
  32	7	32	33
  33	7	32	34
  34	7	32	35
  35	6	13	26
  36	6	37	38
  37	7	37	39
  38	7	37	40
  39	3	38	41
  40	2	38	42
  41	5	41	43
  42	4	43	44
  43	1	43	48
  44	7	44	45
  45	7	44	46
  46	7	44	47
  47	6	25	38
  48	6	49	50
  49	7	49	51
  50	7	49	52
  51	3	50	53
  52	2	50	54
  53	5	53	55
  54	4	55	56
  55	1	55	60
  56	7	56	57
  57	7	56	58
  58	7	56	59
  59	6	37	50
  60	6	61	62
  61	7	61	63
  62	7	61	64
  63	3	62	65
  64	2	62	66
  65	5	65	67
  66	4	67	68
  67	1	67	72
  68	7	68	69
  69	7	68	70
  70	7	68	71
  71	6	49	62
  72	6	73	74
  73	7	73	75
  74	7	73	76
  75	3	74	77
  76	2	74	78
  77	5	77	79
  78	4	79	80
  79	1	79	84
  80	7	80	81
  81	7	80	82
  82	7	80	83
  83	6	61	74
  84	6	85	86
  85	7	85	87
  86	7	85	88
  87	3	86	89
  88	2	86	90
  89	5	89	91
  90	4	91	92
  91	1	91	96
  92	7	92	93
  93	7	92	94
  94	7	92	95
  95	6	73	86
  96	6	97	98
  97	7	97	99
  98	7	97	100
  99	3	98	101
 100	2	98	102
 101	5	101	103
 102	4	103	104
 103	1	103	108
 104	7	104	105
 105	7	104	106
 106	7	104	107
 107	6	85	98
 108	6	109	110
 109	7	109	111
 110	7	109	112
 111	3	110	113
 112	2	110	114
 113	5	113	115
 114	4	115	116
 115	1	115	120
 116	7	116	117
 117	7	116	118
 118	7	116	119
 119	6	97	110
 120	6	121	122
 121	7	121	123
 122	7	121	124
 123	3	122	125
 124	2	122	126
 125	5	125	127
 126	4	127	128
 127	1	127	132
 128	7	128	129
 129	7	128	130
 130	7	128	131
 131	6	109	122
 132	6	133	134
 133	7	133	135
 134	7	133	136
 135	3	134	137
 136	2	134	138
 137	5	137	139
 138	4	139	140
 139	1	139	144
 140	7	140	141
 141	7	140	142
 142	7	140	143
 143	6	121	134
 144	6	145	146
 145	7	145	147
 146	7	145	148
 147	3	146	149
 148	2	146	150
 149	5	149	151
 150	4	151	152
 151	1	151	156
 152	7	152	153
 153	7	152	154
 154	7	152	155
 155	6	133	146
 156	6	157	158
 157	7	157	159
 158	7	157	160
 159	3	158	161
 160	2	158	162
 161	5	161	163
 162	4	163	164
 163	1	163	168
 164	7	164	165
 165	7	164	166
 166	7	164	167
 167	6	145	158
 168	2	2	169
 169	7	157	170

Angles

   1	5	2	1	3
   2	5	2	1	4
   3	9	3	1	4
   4	3	1	2	5
   5	1	1	2	6
   6	7	5	2	6
   7	6	2	5	7
   8	4	5	7	8
   9	11	5	7	12
  10	8	8	7	12
  11	2	7	8	9
  12	2	7	8	10
  13	2	7	8	11
  14	9	9	8	10
  15	9	9	8	11
  16	9	10	8	11
  17	5	14	13	15
  18	5	14	13	16
  19	9	15	13	16
  20	3	13	14	17
  21	1	13	14	18
  22	7	17	14	18
  23	6	14	17	19
  24	4	17	19	20
  25	11	17	19	24
  26	8	20	19	24
  27	2	19	20	21
  28	2	19	20	22
  29	2	19	20	23
  30	9	21	20	22
  31	9	21	20	23
  32	9	22	20	23
  33	12	2	1	14
  34	5	3	1	14
  35	5	4	1	14
  36	12	1	14	13
  37	3	1	14	17
  38	1	1	14	18
  39	5	26	25	27
  40	5	26	25	28
  41	9	27	25	28
  42	3	25	26	29
  43	1	25	26	30
  44	7	29	26	30
  45	6	26	29	31
  46	4	29	31	32
  47	11	29	31	36
  48	8	32	31	36
  49	2	31	32	33
  50	2	31	32	34
  51	2	31	32	35
  52	9	33	32	34
  53	9	33	32	35
  54	9	34	32	35
  55	12	14	13	26
  56	5	15	13	26
  57	5	16	13	26
  58	12	13	26	25
  59	3	13	26	29
  60	1	13	26	30
  61	5	38	37	39
  62	5	38	37	40
  63	9	39	37	40
  64	3	37	38	41
  65	1	37	38	42
  66	7	41	38	42
  67	6	38	41	43
  68	4	41	43	44
  69	11	41	43	48
  70	8	44	43	48
  71	2	43	44	45
  72	2	43	44	46
  73	2	43	44	47
  74	9	45	44	46
  75	9	45	44	47
  76	9	46	44	47
  77	12	26	25	38
  78	5	27	25	38
  79	5	28	25	38
  80	12	25	38	37
  81	3	25	38	41
  82	1	25	38	42
  83	5	50	49	51
  84	5	50	49	52
  85	9	51	49	52
  86	3	49	50	53
  87	1	49	50	54
  88	7	53	50	54
  89	6	50	53	55
  90	4	53	55	56
  91	11	53	55	60
  92	8	56	55	60
  93	2	55	56	57
  94	2	55	56	58
  95	2	55	56	59
  96	9	57	56	58
  97	9	57	56	59
  98	9	58	56	59
  99	12	38	37	50
 100	5	39	37	50
 101	5	40	37	50
 102	12	37	50	49
 103	3	37	50	53
 104	1	37	50	54
 105	5	62	61	63
 106	5	62	61	64
 107	9	63	61	64
 108	3	61	62	65
 109	1	61	62	66
 110	7	65	62	66
 111	6	62	65	67
 112	4	65	67	68
 113	11	65	67	72
 114	8	68	67	72
 115	2	67	68	69
 116	2	67	68	70
 117	2	67	68	71
 118	9	69	68	70
 119	9	69	68	71
 120	9	70	68	71
 121	12	50	49	62
 122	5	51	49	62
 123	5	52	49	62
 124	12	49	62	61
 125	3	49	62	65
 126	1	49	62	66
 127	5	74	73	75
 128	5	74	73	76
 129	9	75	73	76
 130	3	73	74	77
 131	1	73	74	78
 132	7	77	74	78
 133	6	74	77	79
 134	4	77	79	80
 135	11	77	79	84
 136	8	80	79	84
 137	2	79	80	81
 138	2	79	80	82
 139	2	79	80	83
 140	9	81	80	82
 141	9	81	80	83
 142	9	82	80	83
 143	12	62	61	74
 144	5	63	61	74
 145	5	64	61	74
 146	12	61	74	73
 147	3	61	74	77
 148	1	61	74	78
 149	5	86	85	87
 150	5	86	85	88
 151	9	87	85	88
 152	3	85	86	89
 153	1	85	86	90
 154	7	89	86	90
 155	6	86	89	91
 156	4	89	91	92
 157	11	89	91	96
 158	8	92	91	96
 159	2	91	92	93
 160	2	91	92	94
 161	2	91	92	95
 162	9	93	92	94
 163	9	93	92	95
 164	9	94	92	95
 165	12	74	73	86
 166	5	75	73	86
 167	5	76	73	86
 168	12	73	86	85
 169	3	73	86	89
 170	1	73	86	90
 171	5	98	97	99
 172	5	98	97	100
 173	9	99	97	100
 174	3	97	98	101
 175	1	97	98	102
 176	7	101	98	102
 177	6	98	101	103
 178	4	101	103	104
 179	11	101	103	108
 180	8	104	103	108
 181	2	103	104	105
 182	2	103	104	106
 183	2	103	104	107
 184	9	105	104	106
 185	9	105	104	107
 186	9	106	104	107
 187	12	86	85	98
 188	5	87	85	98
 189	5	88	85	98
 190	12	85	98	97
 191	3	85	98	101
 192	1	85	98	102
 193	5	110	109	111
 194	5	110	109	112
 195	9	111	109	112
 196	3	109	110	113
 197	1	109	110	114
 198	7	113	110	114
 199	6	110	113	115
 200	4	113	115	116
 201	11	113	115	120
 202	8	116	115	120
 203	2	115	116	117
 204	2	115	116	118
 205	2	115	116	119
 206	9	117	116	118
 207	9	117	116	119
 208	9	118	116	119
 209	12	98	97	110
 210	5	99	97	110
 211	5	100	97	110
 212	12	97	110	109
 213	3	97	110	113
 214	1	97	110	114
 215	5	122	121	123
 216	5	122	121	124
 217	9	123	121	124
 218	3	121	122	125
 219	1	121	122	126
 220	7	125	122	126
 221	6	122	125	127
 222	4	125	127	128
 223	11	125	127	132
 224	8	128	127	132
 225	2	127	128	129
 226	2	127	128	130
 227	2	127	128	131
 228	9	129	128	130
 229	9	129	128	131
 230	9	130	128	131
 231	12	110	109	122
 232	5	111	109	122
 233	5	112	109	122
 234	12	109	122	121
 235	3	109	122	125
 236	1	109	122	126
 237	5	134	133	135
 238	5	134	133	136
 239	9	135	133	136
 240	3	133	134	137
 241	1	133	134	138
 242	7	137	134	138
 243	6	134	137	139
 244	4	137	139	140
 245	11	137	139	144
 246	8	140	139	144
 247	2	139	140	141
 248	2	139	140	142
 249	2	139	140	143
 250	9	141	140	142
 251	9	141	140	143
 252	9	142	140	143
 253	12	122	121	134
 254	5	123	121	134
 255	5	124	121	134
 256	12	121	134	133
 257	3	121	134	137
 258	1	121	134	138
 259	5	146	145	147
 260	5	146	145	148
 261	9	147	145	148
 262	3	145	146	149
 263	1	145	146	150
 264	7	149	146	150
 265	6	146	149	151
 266	4	149	151	152
 267	11	149	151	156
 268	8	152	151	156
 269	2	151	152	153
 270	2	151	152	154
 271	2	151	152	155
 272	9	153	152	154
 273	9	153	152	155
 274	9	154	152	155
 275	12	134	133	146
 276	5	135	133	146
 277	5	136	133	146
 278	12	133	146	145
 279	3	133	146	149
 280	1	133	146	150
 281	5	158	157	159
 282	5	158	157	160
 283	9	159	157	160
 284	3	157	158	161
 285	1	157	158	162
 286	7	161	158	162
 287	6	158	161	163
 288	4	161	163	164
 289	11	161	163	168
 290	8	164	163	168
 291	2	163	164	165
 292	2	163	164	166
 293	2	163	164	167
 294	9	165	164	166
 295	9	165	164	167
 296	9	166	164	167
 297	12	146	145	158
 298	5	147	145	158
 299	5	148	145	158
 300	12	145	158	157
 301	3	145	158	161
 302	1	145	158	162
 303	1	1	2	169
 304	7	5	2	169
 305	10	6	2	169
 306	5	158	157	170
 307	9	159	157	170
 308	9	160	157	170

Dihedrals

   1	8	3	1	2	5
   2	5	3	1	2	6
   3	8	4	1	2	5
   4	5	4	1	2	6
   5	7	1	2	5	7
   6	2	6	2	5	7
   7	4	2	5	7	8
   8	6	2	5	7	12
   9	1	5	7	8	9
  10	1	5	7	8	10
  11	1	5	7	8	11
  12	3	12	7	8	9
  13	3	12	7	8	10
  14	3	12	7	8	11
  15	8	15	13	14	17
  16	5	15	13	14	18
  17	8	16	13	14	17
  18	5	16	13	14	18
  19	7	13	14	17	19
  20	2	18	14	17	19
  21	4	14	17	19	20
  22	6	14	17	19	24
  23	1	17	19	20	21
  24	1	17	19	20	22
  25	1	17	19	20	23
  26	3	24	19	20	21
  27	3	24	19	20	22
  28	3	24	19	20	23
  29	5	5	2	1	14
  30	5	6	2	1	14
  31	9	1	14	13	15
  32	9	1	14	13	16
  33	7	1	14	17	19
  34	10	2	1	14	13
  35	5	2	1	14	17
  36	5	2	1	14	18
  37	9	3	1	14	13
  38	8	3	1	14	17
  39	5	3	1	14	18
  40	9	4	1	14	13
  41	8	4	1	14	17
  42	5	4	1	14	18
  43	8	27	25	26	29
  44	5	27	25	26	30
  45	8	28	25	26	29
  46	5	28	25	26	30
  47	7	25	26	29	31
  48	2	30	26	29	31
  49	4	26	29	31	32
  50	6	26	29	31	36
  51	1	29	31	32	33
  52	1	29	31	32	34
  53	1	29	31	32	35
  54	3	36	31	32	33
  55	3	36	31	32	34
  56	3	36	31	32	35
  57	5	17	14	13	26
  58	5	18	14	13	26
  59	10	1	14	13	26
  60	9	13	26	25	27
  61	9	13	26	25	28
  62	7	13	26	29	31
  63	10	14	13	26	25
  64	5	14	13	26	29
  65	5	14	13	26	30
  66	9	15	13	26	25
  67	8	15	13	26	29
  68	5	15	13	26	30
  69	9	16	13	26	25
  70	8	16	13	26	29
  71	5	16	13	26	30
  72	8	39	37	38	41
  73	5	39	37	38	42
  74	8	40	37	38	41
  75	5	40	37	38	42
  76	7	37	38	41	43
  77	2	42	38	41	43
  78	4	38	41	43	44
  79	6	38	41	43	48
  80	1	41	43	44	45
  81	1	41	43	44	46
  82	1	41	43	44	47
  83	3	48	43	44	45
  84	3	48	43	44	46
  85	3	48	43	44	47
  86	5	29	26	25	38
  87	5	30	26	25	38
  88	10	13	26	25	38
  89	9	25	38	37	39
  90	9	25	38	37	40
  91	7	25	38	41	43
  92	10	26	25	38	37
  93	5	26	25	38	41
  94	5	26	25	38	42
  95	9	27	25	38	37
  96	8	27	25	38	41
  97	5	27	25	38	42
  98	9	28	25	38	37
  99	8	28	25	38	41
 100	5	28	25	38	42
 101	8	51	49	50	53
 102	5	51	49	50	54
 103	8	52	49	50	53
 104	5	52	49	50	54
 105	7	49	50	53	55
 106	2	54	50	53	55
 107	4	50	53	55	56
 108	6	50	53	55	60
 109	1	53	55	56	57
 110	1	53	55	56	58
 111	1	53	55	56	59
 112	3	60	55	56	57
 113	3	60	55	56	58
 114	3	60	55	56	59
 115	5	41	38	37	50
 116	5	42	38	37	50
 117	10	25	38	37	50
 118	9	37	50	49	51
 119	9	37	50	49	52
 120	7	37	50	53	55
 121	10	38	37	50	49
 122	5	38	37	50	53
 123	5	38	37	50	54
 124	9	39	37	50	49
 125	8	39	37	50	53
 126	5	39	37	50	54
 127	9	40	37	50	49
 128	8	40	37	50	53
 129	5	40	37	50	54
 130	8	63	61	62	65
 131	5	63	61	62	66
 132	8	64	61	62	65
 133	5	64	61	62	66
 134	7	61	62	65	67
 135	2	66	62	65	67
 136	4	62	65	67	68
 137	6	62	65	67	72
 138	1	65	67	68	69
 139	1	65	67	68	70
 140	1	65	67	68	71
 141	3	72	67	68	69
 142	3	72	67	68	70
 143	3	72	67	68	71
 144	5	53	50	49	62
 145	5	54	50	49	62
 146	10	37	50	49	62
 147	9	49	62	61	63
 148	9	49	62	61	64
 149	7	49	62	65	67
 150	10	50	49	62	61
 151	5	50	49	62	65
 152	5	50	49	62	66
 153	9	51	49	62	61
 154	8	51	49	62	65
 155	5	51	49	62	66
 156	9	52	49	62	61
 157	8	52	49	62	65
 158	5	52	49	62	66
 159	8	75	73	74	77
 160	5	75	73	74	78
 161	8	76	73	74	77
 162	5	76	73	74	78
 163	7	73	74	77	79
 164	2	78	74	77	79
 165	4	74	77	79	80
 166	6	74	77	79	84
 167	1	77	79	80	81
 168	1	77	79	80	82
 169	1	77	79	80	83
 170	3	84	79	80	81
 171	3	84	79	80	82
 172	3	84	79	80	83
 173	5	65	62	61	74
 174	5	66	62	61	74
 175	10	49	62	61	74
 176	9	61	74	73	75
 177	9	61	74	73	76
 178	7	61	74	77	79
 179	10	62	61	74	73
 180	5	62	61	74	77
 181	5	62	61	74	78
 182	9	63	61	74	73
 183	8	63	61	74	77
 184	5	63	61	74	78
 185	9	64	61	74	73
 186	8	64	61	74	77
 187	5	64	61	74	78
 188	8	87	85	86	89
 189	5	87	85	86	90
 190	8	88	85	86	89
 191	5	88	85	86	90
 192	7	85	86	89	91
 193	2	90	86	89	91
 194	4	86	89	91	92
 195	6	86	89	91	96
 196	1	89	91	92	93
 197	1	89	91	92	94
 198	1	89	91	92	95
 199	3	96	91	92	93
 200	3	96	91	92	94
 201	3	96	91	92	95
 202	5	77	74	73	86
 203	5	78	74	73	86
 204	10	61	74	73	86
 205	9	73	86	85	87
 206	9	73	86	85	88
 207	7	73	86	89	91
 208	10	74	73	86	85
 209	5	74	73	86	89
 210	5	74	73	86	90
 211	9	75	73	86	85
 212	8	75	73	86	89
 213	5	75	73	86	90
 214	9	76	73	86	85
 215	8	76	73	86	89
 216	5	76	73	86	90
 217	8	99	97	98	101
 218	5	99	97	98	102
 219	8	100	97	98	101
 220	5	100	97	98	102
 221	7	97	98	101	103
 222	2	102	98	101	103
 223	4	98	101	103	104
 224	6	98	101	103	108
 225	1	101	103	104	105
 226	1	101	103	104	106
 227	1	101	103	104	107
 228	3	108	103	104	105
 229	3	108	103	104	106
 230	3	108	103	104	107
 231	5	89	86	85	98
 232	5	90	86	85	98
 233	10	73	86	85	98
 234	9	85	98	97	99
 235	9	85	98	97	100
 236	7	85	98	101	103
 237	10	86	85	98	97
 238	5	86	85	98	101
 239	5	86	85	98	102
 240	9	87	85	98	97
 241	8	87	85	98	101
 242	5	87	85	98	102
 243	9	88	85	98	97
 244	8	88	85	98	101
 245	5	88	85	98	102
 246	8	111	109	110	113
 247	5	111	109	110	114
 248	8	112	109	110	113
 249	5	112	109	110	114
 250	7	109	110	113	115
 251	2	114	110	113	115
 252	4	110	113	115	116
 253	6	110	113	115	120
 254	1	113	115	116	117
 255	1	113	115	116	118
 256	1	113	115	116	119
 257	3	120	115	116	117
 258	3	120	115	116	118
 259	3	120	115	116	119
 260	5	101	98	97	110
 261	5	102	98	97	110
 262	10	85	98	97	110
 263	9	97	110	109	111
 264	9	97	110	109	112
 265	7	97	110	113	115
 266	10	98	97	110	109
 267	5	98	97	110	113
 268	5	98	97	110	114
 269	9	99	97	110	109
 270	8	99	97	110	113
 271	5	99	97	110	114
 272	9	100	97	110	109
 273	8	100	97	110	113
 274	5	100	97	110	114
 275	8	123	121	122	125
 276	5	123	121	122	126
 277	8	124	121	122	125
 278	5	124	121	122	126
 279	7	121	122	125	127
 280	2	126	122	125	127
 281	4	122	125	127	128
 282	6	122	125	127	132
 283	1	125	127	128	129
 284	1	125	127	128	130
 285	1	125	127	128	131
 286	3	132	127	128	129
 287	3	132	127	128	130
 288	3	132	127	128	131
 289	5	113	110	109	122
 290	5	114	110	109	122
 291	10	97	110	109	122
 292	9	109	122	121	123
 293	9	109	122	121	124
 294	7	109	122	125	127
 295	10	110	109	122	121
 296	5	110	109	122	125
 297	5	110	109	122	126
 298	9	111	109	122	121
 299	8	111	109	122	125
 300	5	111	109	122	126
 301	9	112	109	122	121
 302	8	112	109	122	125
 303	5	112	109	122	126
 304	8	135	133	134	137
 305	5	135	133	134	138
 306	8	136	133	134	137
 307	5	136	133	134	138
 308	7	133	134	137	139
 309	2	138	134	137	139
 310	4	134	137	139	140
 311	6	134	137	139	144
 312	1	137	139	140	141
 313	1	137	139	140	142
 314	1	137	139	140	143
 315	3	144	139	140	141
 316	3	144	139	140	142