pySIMM System Object

590 atoms
589 bonds
1078 angles
1412 dihedrals
49 impropers

6 atom types
7 bond types
12 angle types
10 dihedral types
1 improper types

-119.722504 119.722504 xlo xhi
-119.722504 119.722504 ylo yhi
-119.722504 119.722504 zlo zhi

Masses

   1	12.01	# c3
   2	1.008	# hc
   3	16.0	# os
   4	1.008	# h1
   5	12.01	# c
   6	16.0	# o

Pair Coeffs

   1	0.1094	3.3996695084235347	# c3
   2	0.0157	2.649532787749369	# hc
   3	0.17	3.0000123434657784	# os
   4	0.0157	2.471353044121301	# h1
   5	0.086	3.3996695084235347	# c
   6	0.21	2.959921901149463	# o

Bond Coeffs

   1	637.7	1.2183	# c,o
   2	330.6	1.0969	# c3,h1
   3	308.6	1.4316	# c3,os
   4	313.0	1.5241	# c,c3
   5	390.8	1.3584	# c,os
   6	300.9	1.5375	# c3,c3
   7	330.6	1.0969	# c3,hc

Angle Coeffs

   1	46.39	109.56	# c3,c3,h1
   2	46.93	108.77	# c,c3,hc
   3	68.0	107.97	# c3,c3,os
   4	68.89	110.72	# c3,c,os
   5	46.34	109.8	# c3,c3,hc
   6	63.28	115.98	# c,os,c3
   7	50.8	109.78	# h1,c3,os
   8	67.4	123.2	# c3,c,o
   9	39.4	107.58	# hc,c3,hc
  10	39.24	108.46	# h1,c3,h1
  11	75.32	123.25	# o,c,os
  12	62.86	111.51	# c3,c3,c3

Dihedral Coeffs

   1	1	0.0	2	180	# X,c,c3,X
   2	1	0.3833333333333333	3	0	# X,c3,os,X
   3	3	0.8	1	0	0.0	2	0	0.08	3	180	# hc,c3,c,o
   4	3	2.7	2	180	0.0	1	0	1.15	3	0	# c3,c,os,c3
   5	1	0.15555555555555556	3	0	# X,c3,c3,X
   6	2	2.7	2	180	1.4	1	180	# o,c,os,c3
   7	2	0.383	3	0	0.8	1	180	# c3,c3,os,c
   8	2	0.0	3	0	0.25	1	0	# hc,c3,c3,os
   9	1	0.16	3	0	# hc,c3,c3,c3
  10	3	0.18	3	0	0.25	2	180	0.2	1	180	# c3,c3,c3,c3

Improper Coeffs

   1	10.5	-1	2	# c,X,X,o

Atoms

   1	1	1	-0.003445	-14.1248	9.17893	0.756391
   2	1	1	0.299845	-15.6201	9.50349	0.525523
   3	1	2	0.023286	-13.9711	8.10861	0.577072
   4	1	2	-0.011958	-13.5012	9.70314	0.0246485
   5	1	3	-0.518063	-15.8823	9.61499	-0.885261
   6	1	4	0.011666	-15.9041	10.4334	1.03555
   7	1	5	0.843192	-15.5105	10.7662	-1.50556
   8	1	1	-0.399874	-15.835	10.7174	-2.9781
   9	1	2	0.119224	-15.4211	11.6036	-3.46869
  10	1	2	0.109051	-16.921	10.697	-3.10798
  11	1	2	0.118031	-15.4029	9.81554	-3.42097
  12	1	6	-0.590955	-14.9826	11.718	-0.963204
  13	1	1	-0.003445	-14.4344	8.75529	3.26171
  14	1	1	0.299845	-13.6314	9.51944	2.18378
  15	1	2	0.023286	-14.5338	7.70249	2.9717
  16	1	2	-0.011958	-15.4576	9.15342	3.29275
  17	1	3	-0.518063	-13.7972	10.9306	2.42366
  18	1	4	0.011666	-12.5766	9.24245	2.25966
  19	1	5	0.843192	-12.9692	11.8098	1.79416
  20	1	1	-0.399874	-13.3525	13.2304	2.12687
  21	1	2	0.119224	-13.4736	13.3324	3.20924
  22	1	2	0.109051	-14.2993	13.4679	1.6308
  23	1	2	0.118031	-12.5718	13.911	1.77311
  24	1	6	-0.590955	-11.9726	11.515	1.16253
  25	1	1	-0.003445	-12.4065	8.24375	4.8592
  26	1	1	0.299845	-13.8335	8.84343	4.68529
  27	1	2	0.023286	-11.6843	8.86092	4.31514
  28	1	2	-0.011958	-12.1173	8.33026	5.91345
  29	1	3	-0.518063	-14.7606	8.13314	5.52893
  30	1	4	0.011666	-13.8094	9.90226	4.97556
  31	1	5	0.843192	-14.7743	8.3734	6.8644
  32	1	1	-0.399874	-15.8233	7.52716	7.5424
  33	1	2	0.119224	-15.6663	7.55189	8.62524
  34	1	2	0.109051	-15.7531	6.496	7.18169
  35	1	2	0.118031	-16.8131	7.9263	7.30116
  36	1	6	-0.590955	-14.0628	9.16558	7.44825
  37	1	1	-0.003445	-11.0402	6.04707	5.0466
  38	1	1	0.299845	-12.2719	6.75949	4.42475
  39	1	2	0.023286	-11.0358	5.00384	4.72612
  40	1	2	-0.011958	-11.176	5.99508	6.13542
  41	1	3	-0.518063	-12.1546	6.70939	2.98841
  42	1	4	0.011666	-13.1743	6.22517	4.7491
  43	1	5	0.843192	-12.3955	5.53586	2.34773
  44	1	1	-0.399874	-12.1233	5.64685	0.870323
  45	1	2	0.119224	-11.5446	6.55094	0.655691
  46	1	2	0.109051	-13.0744	5.68935	0.335942
  47	1	2	0.118031	-11.5626	4.76684	0.54278
  48	1	6	-0.590955	-12.8358	4.53349	2.87449
  49	1	1	-0.003445	-8.50193	5.74402	4.50619
  50	1	1	0.299845	-9.68377	6.73306	4.72117
  51	1	2	0.023286	-8.53632	4.99456	5.30245
  52	1	2	-0.011958	-7.55172	6.27	4.65509
  53	1	3	-0.518063	-9.39173	7.56129	5.86631
  54	1	4	0.011666	-9.79235	7.35342	3.83155
  55	1	5	0.843192	-8.49477	8.57384	5.76603
  56	1	1	-0.399874	-8.33739	9.28022	7.08882
  57	1	2	0.119224	-7.95941	8.57118	7.83105
  58	1	2	0.109051	-9.3112	9.65905	7.41473
  59	1	2	0.118031	-7.63367	10.111	6.97643
  60	1	6	-0.590955	-7.90721	8.90379	4.75711
  61	1	1	-0.003445	-8.37634	5.96957	1.88004
  62	1	1	0.299845	-8.42678	5.03438	3.11636
  63	1	2	0.023286	-8.27409	5.34543	0.985816
  64	1	2	-0.011958	-9.33877	6.48301	1.78149
  65	1	3	-0.518063	-9.54649	4.14301	2.92642
  66	1	4	0.011666	-7.5087	4.43863	3.089
  67	1	5	0.843192	-9.57965	2.97074	3.61684
  68	1	1	-0.399874	-10.7971	2.149	3.2818
  69	1	2	0.119224	-10.5592	1.08699	3.39624
  70	1	2	0.109051	-11.1179	2.3534	2.2559
  71	1	2	0.118031	-11.6074	2.42008	3.96539
  72	1	6	-0.590955	-8.73563	2.59805	4.40494
  73	1	1	-0.003445	-7.08062	7.83503	0.583124
  74	1	1	0.299845	-7.2317	7.02268	1.90037
  75	1	2	0.023286	-6.93716	7.14988	-0.257713
  76	1	2	-0.011958	-6.17005	8.44639	0.63911
  77	1	3	-0.518063	-5.96155	6.42233	2.25592
  78	1	4	0.011666	-7.46967	7.74143	2.68718
  79	1	5	0.843192	-5.32903	5.51077	1.46632
  80	1	1	-0.399874	-3.98568	5.13178	2.03896
  81	1	2	0.119224	-4.08143	4.96675	3.11536
  82	1	2	0.109051	-3.2785	5.94732	1.86436
  83	1	2	0.118031	-3.63093	4.21784	1.55415
  84	1	6	-0.590955	-5.72699	5.09339	0.398639
  85	1	1	-0.003445	-8.16628	9.34267	-1.17389
  86	1	1	0.299845	-8.28232	8.75179	0.249737
  87	1	2	0.023286	-7.2191	9.89192	-1.24032
  88	1	2	-0.011958	-8.0948	8.5318	-1.90913
  89	1	3	-0.518063	-8.2905	9.86778	1.15789
  90	1	4	0.011666	-9.2054	8.16548	0.302564
  91	1	5	0.843192	-9.24918	9.94303	2.11456
  92	1	1	-0.399874	-9.1188	11.2117	2.91844
  93	1	2	0.119224	-9.25923	12.0685	2.25305
  94	1	2	0.109051	-8.11941	11.2534	3.36294
  95	1	2	0.118031	-9.87741	11.2213	3.70569
  96	1	6	-0.590955	-10.1211	9.11579	2.29009
  97	1	1	-0.003445	-10.7665	9.69399	-1.43362
  98	1	1	0.299845	-9.33947	10.2934	-1.54668
  99	1	2	0.023286	-11.4714	10.506	-1.65326
 100	1	2	-0.011958	-10.9731	9.40237	-0.396821
 101	1	3	-0.518063	-9.17798	10.7216	-2.91287
 102	1	4	0.011666	-9.30777	11.1683	-0.883495
 103	1	5	0.843192	-8.24052	11.6606	-3.20361
 104	1	1	-0.399874	-8.21247	11.938	-4.68593
 105	1	2	0.119224	-9.21706	12.2145	-5.01933
 106	1	2	0.109051	-7.88981	11.0365	-5.2153
 107	1	2	0.118031	-7.51565	12.7576	-4.88808
 108	1	6	-0.590955	-7.53168	12.2311	-2.3997
 109	1	1	-0.003445	-12.5936	8.23525	-2.43526
 110	1	1	0.299845	-11.0633	8.49894	-2.37846
 111	1	2	0.023286	-13.1103	9.19095	-2.58551
 112	1	2	-0.011958	-12.9095	7.86408	-1.45513
 113	1	3	-0.518063	-10.3813	7.35624	-1.82055
 114	1	4	0.011666	-10.6862	8.74372	-3.37879
 115	1	5	0.843192	-9.98804	6.33566	-2.62613
 116	1	1	-0.399874	-9.14582	5.34921	-1.85745
 117	1	2	0.119224	-8.15782	5.77013	-1.66128
 118	1	2	0.109051	-9.03847	4.43284	-2.4403
 119	1	2	0.118031	-9.64066	5.10655	-0.914736
 120	1	6	-0.590955	-10.1216	6.31925	-3.83326
 121	1	1	-0.003445	-12.7852	7.69445	-4.97737
 122	1	1	0.299845	-13.0939	7.25172	-3.52394
 123	1	2	0.023286	-13.1654	8.71354	-5.11979
 124	1	2	-0.011958	-11.7046	7.74786	-5.14406
 125	1	3	-0.518063	-14.5318	7.18918	-3.4437
 126	1	4	0.011666	-12.6577	6.26331	-3.34219
 127	1	5	0.843192	-15.123	6.41543	-2.50023
 128	1	1	-0.399874	-16.6239	6.48424	-2.62267
 129	1	2	0.119224	-16.9196	6.11907	-3.61087
 130	1	2	0.109051	-16.9485	7.52305	-2.50779
 131	1	2	0.118031	-17.0802	5.86478	-1.84449
 132	1	6	-0.590955	-14.5463	5.69279	-1.71428
 133	1	1	-0.003445	-13.0897	5.25665	-5.82847
 134	1	1	0.299845	-13.4199	6.75531	-6.04349
 135	1	2	0.023286	-12.0014	5.1419	-5.78955
 136	1	2	-0.011958	-13.4751	4.92118	-4.858
 137	1	3	-0.518063	-12.9213	7.11517	-7.34735
 138	1	4	0.011666	-14.5115	6.8711	-6.01778
 139	1	5	0.843192	-13.4174	8.22053	-7.95692
 140	1	1	-0.399874	-12.7888	8.40838	-9.31543
 141	1	2	0.119224	-13.1869	9.31704	-9.77795
 142	1	2	0.109051	-13.0215	7.54176	-9.94236
 143	1	2	0.118031	-11.7039	8.4924	-9.2032
 144	1	6	-0.590955	-14.2752	8.95254	-7.50462
 145	1	1	-0.003445	-13.3877	2.84037	-6.70254
 146	1	1	0.299845	-13.7047	4.34787	-6.92401
 147	1	2	0.023286	-13.6218	2.58221	-5.66602
 148	1	2	-0.011958	-14.0818	2.23362	-7.2968
 149	1	3	-0.518063	-15.1344	4.53455	-6.8542
 150	1	4	0.011666	-13.3384	4.66483	-7.90937
 151	1	5	0.843192	-15.893	4.20066	-7.92972
 152	1	1	-0.399874	-17.3497	4.48926	-7.66389
 153	1	2	0.119224	-17.4612	5.54004	-7.37955
 154	1	2	0.109051	-17.703	3.85226	-6.84763
 155	1	2	0.118031	-17.9299	4.28841	-8.57018
 156	1	6	-0.590955	-15.4729	3.76199	-8.98121
 157	1	1	-0.003445	-11.2287	1.53591	-6.00146
 158	1	1	0.299845	-11.9488	2.38178	-7.08856
 159	1	2	0.023286	-11.8209	0.633845	-5.80019
 160	1	2	-0.011958	-10.2914	1.16328	-6.42234
 161	1	3	-0.518063	-11.1404	3.5158	-7.46341
 162	1	4	0.011666	-12.0641	1.74339	-7.97465
 163	1	5	0.843192	-10.0415	3.33043	-8.24243
 164	1	1	-0.399874	-9.41962	4.65196	-8.62364
 165	1	2	0.119224	-8.33029	4.5656	-8.56259
 166	1	2	0.109051	-9.76985	5.4441	-7.95386
 167	1	2	0.118031	-9.71016	4.89298	-9.65013
 168	1	6	-0.590955	-9.63353	2.25836	-8.6386
 169	1	1	-0.003445	-9.6772	1.76995	-3.94681
 170	1	1	0.299845	-10.9562	2.28179	-4.66615
 171	1	2	0.023286	-9.73434	0.678981	-3.85173
 172	1	2	-0.011958	-9.64358	2.16254	-2.92351
 173	1	3	-0.518063	-12.0954	2.03093	-3.8151
 174	1	4	0.011666	-10.8594	3.35693	-4.86091
 175	1	5	0.843192	-12.3541	2.85575	-2.76746
 176	1	1	-0.399874	-13.5802	2.40063	-2.0182
 177	1	2	0.119224	-14.4317	2.37629	-2.70404
 178	1	2	0.109051	-13.7884	3.10109	-1.20185
 179	1	2	0.118031	-13.4082	1.39885	-1.61468
 180	1	6	-0.590955	-11.7099	3.83817	-2.46703
 181	1	1	-0.003445	-7.09498	1.71561	-3.90639
 182	1	1	0.299845	-8.36586	2.16784	-4.67577
 183	1	2	0.023286	-6.21758	2.24962	-4.29039
 184	1	2	-0.011958	-7.20189	2.02942	-2.8614
 185	1	3	-0.518063	-8.34308	3.60285	-4.77898
 186	1	4	0.011666	-8.36184	1.74149	-5.68356
 187	1	5	0.843192	-7.50538	4.18201	-5.67691
 188	1	1	-0.399874	-7.56021	5.68484	-5.5928
 189	1	2	0.119224	-6.82011	6.11668	-6.27256
 190	1	2	0.109051	-7.35064	5.99718	-4.5655
 191	1	2	0.118031	-8.56298	6.02189	-5.86957
 192	1	6	-0.590955	-6.82714	3.58479	-6.48821
 193	1	1	-0.003445	-5.54211	-0.17746	-3.12558
 194	1	1	0.299845	-6.78665	0.194832	-3.97129
 195	1	2	0.023286	-4.72926	0.524814	-3.35013
 196	1	2	-0.011958	-5.1715	-1.16518	-3.42276
 197	1	3	-0.518063	-6.48422	-0.173002	-5.33054
 198	1	4	0.011666	-7.64059	-0.381842	-3.59495
 199	1	5	0.843192	-7.47081	-0.670035	-6.12149
 200	1	1	-0.399874	-6.96223	-0.965422	-7.50974
 201	1	2	0.119224	-6.06286	-1.58482	-7.44301
 202	1	2	0.109051	-6.71788	-0.0218754	-8.00887
 203	1	2	0.118031	-7.73675	-1.49153	-8.07638
 204	1	6	-0.590955	-8.61851	-0.857159	-5.76464
 205	1	1	-0.003445	-4.61439	-0.400105	-0.692456
 206	1	1	0.299845	-5.84072	-0.141805	-1.60463
 207	1	2	0.023286	-4.18493	-1.38551	-0.907824
 208	1	2	-0.011958	-3.82647	0.330474	-0.918528
 209	1	3	-0.518063	-6.92225	-1.03986	-1.25999
 210	1	4	0.011666	-6.17981	0.872333	-1.37327
 211	1	5	0.843192	-6.80956	-2.39528	-1.37701
 212	1	1	-0.399874	-8.05224	-3.06884	-0.854025
 213	1	2	0.119224	-8.18472	-2.80101	0.198649
 214	1	2	0.109051	-7.93912	-4.15418	-0.943381
 215	1	2	0.118031	-8.91779	-2.73521	-1.43306
 216	1	6	-0.590955	-5.89081	-2.99154	-1.89812
 217	1	1	-0.003445	-5.14376	1.17155	1.30765
 218	1	1	0.299845	-5.00737	-0.293538	0.805941
 219	1	2	0.023286	-5.23928	1.856	0.457075
 220	1	2	-0.011958	-4.21811	1.47812	1.81103
 221	1	3	-0.518063	-4.01911	-0.986225	1.5975
 222	1	4	0.011666	-5.97725	-0.782352	0.945824
 223	1	5	0.843192	-4.16552	-2.33467	1.73313
 224	1	1	-0.399874	-2.99769	-2.94939	2.46017
 225	1	2	0.119224	-2.07703	-2.75001	1.90398
 226	1	2	0.109051	-3.14715	-4.03041	2.54623
 227	1	2	0.118031	-2.91603	-2.51319	3.45526
 228	1	6	-0.590955	-5.1349	-2.97168	1.36858
 229	1	1	-0.003445	-6.25906	0.532611	3.554
 230	1	1	0.299845	-6.36242	1.37543	2.2578
 231	1	2	0.023286	-7.22735	0.52268	4.06821
 232	1	2	-0.011958	-6.08381	-0.503732	3.25735
 233	1	3	-0.518063	-7.57908	0.939169	1.60674
 234	1	4	0.011666	-6.44798	2.43601	2.52222
 235	1	5	0.843192	-8.11202	1.65142	0.580519
 236	1	1	-0.399874	-9.37176	1.00433	0.0589793
 237	1	2	0.119224	-9.96445	1.75213	-0.477268
 238	1	2	0.109051	-9.95228	0.598439	0.891884
 239	1	2	0.118031	-9.10508	0.18884	-0.617593
 240	1	6	-0.590955	-7.65679	2.67476	0.120264
 241	1	1	-0.003445	-4.33097	-0.14053	5.18268
 242	1	1	0.299845	-5.15717	1.00141	4.54601
 243	1	2	0.023286	-3.69753	-0.594816	4.41355
 244	1	2	-0.011958	-3.64564	0.322008	5.90473
 245	1	3	-0.518063	-5.76062	1.69762	5.65111
 246	1	4	0.011666	-4.44131	1.65587	4.03333
 247	1	5	0.843192	-6.0454	3.0175	5.53449
 248	1	1	-0.399874	-6.63487	3.54797	6.81863
 249	1	2	0.119224	-6.58148	4.64062	6.82041
 250	1	2	0.109051	-6.07811	3.14811	7.67142
 251	1	2	0.118031	-7.67783	3.22288	6.88583
 252	1	6	-0.590955	-5.69998	3.72313	4.60726
 253	1	1	-0.003445	-4.39452	-1.95891	7.03767
 254	1	1	0.299845	-5.16659	-1.23544	5.89996
 255	1	2	0.023286	-4.14785	-1.22955	7.81949
 256	1	2	-0.011958	-5.06288	-2.68871	7.51094
 257	1	3	-0.518063	-5.56452	-2.20519	4.90866
 258	1	4	0.011666	-6.05324	-0.759574	6.33913
 259	1	5	0.843192	-6.64624	-2.99199	5.15265
 260	1	1	-0.399874	-6.94963	-3.88071	3.97273
 261	1	2	0.119224	-7.72049	-4.60667	4.2492
 262	1	2	0.109051	-6.04159	-4.40511	3.65937
 263	1	2	0.118031	-7.30531	-3.26346	3.14188
 264	1	6	-0.590955	-7.30538	-2.97849	6.17213
 265	1	1	-0.003445	-2.60843	-3.74516	7.5864
 266	1	1	0.299845	-3.10388	-2.68118	6.5742
 267	1	2	0.023286	-3.37995	-4.51493	7.70073
 268	1	2	-0.011958	-1.75086	-4.2698	7.14825
 269	1	3	-0.518063	-2.07246	-1.68923	6.38936
 270	1	4	0.011666	-3.31464	-3.19089	5.62599
 271	1	5	0.843192	-0.967192	-1.99892	5.66238
 272	1	1	-0.399874	0.000335721	-0.844167	5.64297
 273	1	2	0.119224	0.93521	-1.16245	5.17023
 274	1	2	0.109051	0.198301	-0.508875	6.66486
 275	1	2	0.118031	-0.428364	-0.0152921	5.07238
 276	1	6	-0.590955	-0.769764	-3.06097	5.10893
 277	1	1	-0.003445	-1.11107	-4.06068	9.6407
 278	1	1	0.299845	-2.1922	-3.17257	8.97018
 279	1	2	0.023286	-0.168616	-3.90385	9.10096
 280	1	2	-0.011958	-1.37171	-5.11617	9.49617
 281	1	3	-0.518063	-3.34609	-2.95019	9.81711
 282	1	4	0.011666	-1.72242	-2.19455	8.80808
 283	1	5	0.843192	-4.09835	-3.97038	10.3134
 284	1	1	-0.399874	-5.23239	-3.43648	11.1508
 285	1	2	0.119224	-4.81893	-2.94623	12.0384
 286	1	2	0.109051	-5.8843	-4.262	11.4539
 287	1	2	0.118031	-5.80431	-2.70864	10.5673
 288	1	6	-0.590955	-3.8946	-5.15278	10.128
 289	1	1	-0.003445	0.394796	-4.46561	11.7238
 290	1	1	0.299845	-0.880098	-3.79312	11.1484
 291	1	2	0.023286	1.24604	-3.82923	11.4693
 292	1	2	-0.011958	0.346421	-4.46582	12.8188
 293	1	3	-0.518063	-0.711375	-2.36954	11.3162
 294	1	4	0.011666	-1.75386	-4.17107	11.6928
 295	1	5	0.843192	-1.37931	-1.74473	12.3213
 296	1	1	-0.399874	-0.985151	-0.290019	12.399
 297	1	2	0.119224	-1.29749	0.222291	11.4846
 298	1	2	0.109051	0.0986932	-0.218248	12.5045
 299	1	2	0.118031	-1.46565	0.170223	13.2682
 300	1	6	-0.590955	-2.1964	-2.25671	13.0589
 301	1	1	-0.003445	2.08136	-6.4453	11.6069
 302	1	1	0.299845	0.696514	-5.888	11.1749
 303	1	2	0.023286	2.04763	-6.80391	12.6408
 304	1	2	-0.011958	2.81915	-5.63401	11.6208
 305	1	3	-0.518063	-0.372371	-6.81243	11.468
 306	1	4	0.011666	0.742847	-5.79903	10.0859
 307	1	5	0.843192	-0.682388	-7.19216	12.7397
 308	1	1	-0.399874	-1.81234	-8.18966	12.7485
 309	1	2	0.119224	-1.9675	-8.54995	13.77
 310	1	2	0.109051	-1.55067	-9.03128	12.099
 311	1	2	0.118031	-2.72177	-7.71017	12.3751
 312	1	6	-0.590955	-0.160677	-6.77189	13.7534
 313	1	1	-0.003445	3.72299	-7.162	9.68713
 314	1	1	0.299845	2.5805	-7.57329	10.6601
 315	1	2	0.023286	4.54059	-6.70266	10.2572
 316	1	2	-0.011958	4.15183	-8.07863	9.2623
 317	1	3	-0.518063	3.11905	-8.63532	11.4654
 318	1	4	0.011666	1.74329	-7.96358	10.0681
 319	1	5	0.843192	2.26877	-9.57166	11.9582
 320	1	1	-0.399874	3.01339	-10.577	12.7982
 321	1	2	0.119224	2.32256	-11.3614	13.1223
 322	1	2	0.109051	3.437	-10.0696	13.6701
 323	1	2	0.118031	3.82156	-11.0142	12.2041
 324	1	6	-0.590955	1.07734	-9.63527	11.7291
 325	1	1	-0.003445	3.33447	-4.73852	8.8888
 326	1	1	0.299845	3.32981	-6.23353	8.49969
 327	1	2	0.023286	2.57946	-4.56104	9.65471
 328	1	2	-0.011958	4.30263	-4.48848	9.33991
 329	1	3	-0.518063	2.01318	-6.56424	8.01369
 330	1	4	0.011666	4.0687	-6.36526	7.69784
 331	1	5	0.843192	1.84693	-7.7277	7.32561
 332	1	1	-0.399874	0.397128	-7.94806	6.97604
 333	1	2	0.119224	0.067326	-7.16469	6.28738
 334	1	2	0.109051	-0.208199	-7.91139	7.88788
 335	1	2	0.118031	0.285122	-8.92869	6.50162
 336	1	6	-0.590955	2.73344	-8.51015	7.05196
 337	1	1	-0.003445	2.71407	-2.35536	8.20755
 338	1	1	0.299845	3.04797	-3.7872	7.70483
 339	1	2	0.023286	2.26143	-1.79932	7.38524
 340	1	2	-0.011958	1.90824	-2.44001	8.94814
 341	1	3	-0.518063	4.2061	-3.79319	6.84575
 342	1	4	0.011666	2.17592	-4.16767	7.15636
 343	1	5	0.843192	4.11341	-3.2686	5.59363
 344	1	1	-0.399874	5.42051	-3.39351	4.85074
 345	1	2	0.119224	6.07803	-2.56713	5.1358
 346	1	2	0.109051	5.22973	-3.36159	3.77329
 347	1	2	0.118031	5.89923	-4.34415	5.10687
 348	1	6	-0.590955	3.14323	-2.69359	5.14368
 349	1	1	-0.003445	4.75877	-0.713729	7.87473
 350	1	1	0.299845	3.91802	-1.58322	8.8385
 351	1	2	0.023286	5.56032	-0.247709	8.45208
 352	1	2	-0.011958	5.28137	-1.38602	7.18635
 353	1	3	-0.518063	3.46929	-0.722266	9.90098
 354	1	4	0.011666	4.61922	-2.3112	9.26345
 355	1	5	0.843192	3.23981	-1.28589	11.1168
 356	1	1	-0.399874	2.92708	-0.237829	12.1536
 357	1	2	0.119224	2.24167	0.504383	11.7337
 358	1	2	0.109051	3.85494	0.25917	12.4477
 359	1	2	0.118031	2.47753	-0.716499	13.0298
 360	1	6	-0.590955	3.34817	-2.46963	11.3693
 361	1	1	-0.003445	4.03809	1.82687	7.56687
 362	1	1	0.299845	3.96656	0.351369	7.06449
 363	1	2	0.023286	3.48066	1.88425	8.50893
 364	1	2	-0.011958	3.4628	2.45234	6.87392
 365	1	3	-0.518063	4.42181	0.235243	5.70529
 366	1	4	0.011666	2.9055	0.0884414	7.08525
 367	1	5	0.843192	3.61385	0.630703	4.69003
 368	1	1	-0.399874	4.32134	0.460066	3.36958
 369	1	2	0.119224	5.29101	0.966297	3.40912
 370	1	2	0.109051	3.7097	0.886198	2.56825
 371	1	2	0.118031	4.47895	-0.607492	3.18818
 372	1	6	-0.590955	2.52311	1.15008	4.81607
 373	1	1	-0.003445	6.45179	2.25012	6.61499
 374	1	1	0.299845	5.42873	2.50962	7.75153
 375	1	2	0.023286	6.90796	1.26022	6.74495
 376	1	2	-0.011958	5.92401	2.22827	5.65473
 377	1	3	-0.518063	6.0333	2.07512	8.98194
 378	1	4	0.011666	5.25784	3.5934	7.79924
 379	1	5	0.843192	5.58259	2.54606	10.1699
 380	1	1	-0.399874	6.40266	1.99392	11.3108
 381	1	2	0.119224	6.98379	1.12946	10.9706
 382	1	2	0.109051	5.73749	1.69204	12.1234
 383	1	2	0.118031	7.08632	2.76899	11.667
 384	1	6	-0.590955	4.66542	3.3273	10.3155
 385	1	1	-0.003445	8.73131	2.91745	5.57691
 386	1	1	0.299845	7.54763	3.3429	6.48047
 387	1	2	0.023286	9.59147	3.55683	5.81478
 388	1	2	-0.011958	9.03755	1.89693	5.83417
 389	1	3	-0.518063	8.0713	3.8081	7.74294
 390	1	4	0.011666	7.07016	4.21537	6.01581
 391	1	5	0.843192	8.81199	3.0072	8.55633
 392	1	1	-0.399874	9.38493	3.81703	9.69188
 393	1	2	0.119224	9.97434	4.64013	9.27601
 394	1	2	0.109051	10.0268	3.18024	10.3087
 395	1	2	0.118031	8.57029	4.22974	10.2926
 396	1	6	-0.590955	9.0373	1.82554	8.39219
 397	1	1	-0.003445	9.34881	4.04847	3.36013
 398	1	1	0.299845	8.42314	3.01626	4.05933
 399	1	2	0.023286	9.03566	5.05548	3.66442
 400	1	2	-0.011958	10.381	3.93547	3.71537
 401	1	3	-0.518063	8.4871	1.71145	3.43395
 402	1	4	0.011666	7.39363	3.37598	3.93558
 403	1	5	0.843192	9.6481	1.00289	3.37739
 404	1	1	-0.399874	9.45914	-0.275253	2.60186
 405	1	2	0.119224	8.62812	-0.843133	3.02988
 406	1	2	0.109051	10.3768	-0.871832	2.64541
 407	1	2	0.118031	9.2309	-0.0290219	1.55955
 408	1	6	-0.590955	10.7245	1.38371	3.7904
 409	1	1	-0.003445	10.156	5.14585	1.23018
 410	1	1	0.299845	9.35721	3.9613	1.8219
 411	1	2	0.023286	9.54547	6.05137	1.33545
 412	1	2	-0.011958	11.0584	5.32398	1.8301
 413	1	3	-0.518063	7.98904	4.03493	1.37538
 414	1	4	0.011666	9.82862	3.01279	1.53598
 415	1	5	0.843192	7.61864	3.33018	0.274503
 416	1	1	-0.399874	6.17299	3.58366	-0.0729592
 417	1	2	0.119224	5.53265	3.04595	0.631504
 418	1	2	0.109051	5.97864	3.23793	-1.09341
 419	1	2	0.118031	5.96867	4.65744	-0.00719783
 420	1	6	-0.590955	8.33495	2.55439	-0.327655
 421	1	1	-0.003445	11.8425	4.03879	-0.38909
 422	1	1	0.299845	10.5771	4.935	-0.24576
 423	1	2	0.023286	12.7287	4.67486	-0.511618
 424	1	2	-0.011958	12.0028	3.46448	0.53258
 425	1	3	-0.518063	10.8576	6.23281	-0.810779
 426	1	4	0.011666	9.75161	4.47934	-0.800426
 427	1	5	0.843192	9.80109	7.02091	-1.15163
 428	1	1	-0.399874	10.248	8.39101	-1.60203
 429	1	2	0.119224	11.3326	8.49116	-1.49276
 430	1	2	0.109051	9.75019	9.14842	-0.988039
 431	1	2	0.118031	9.97271	8.52895	-2.6514
 432	1	6	-0.590955	8.63058	6.70542	-1.05507
 433	1	1	-0.003445	13.0753	2.36993	-1.97755
 434	1	1	0.299845	11.7318	3.04278	-1.57249
 435	1	2	0.023286	13.915	3.0393	-1.75054
 436	1	2	-0.011958	13.0931	2.22866	-3.06593
 437	1	3	-0.518063	11.2536	3.77526	-2.71472
 438	1	4	0.011666	10.9988	2.27456	-1.29113
 439	1	5	0.843192	10.5735	3.09501	-3.6716
 440	1	1	-0.399874	10.2309	3.99383	-4.83087
 441	1	2	0.119224	9.31243	3.63341	-5.30358
 442	1	2	0.109051	11.0554	3.96921	-5.54936
 443	1	2	0.118031	10.0869	5.01816	-4.47394
 444	1	6	-0.590955	10.3016	1.91279	-3.63825
 445	1	1	-0.003445	14.5362	0.258845	-1.98192
 446	1	1	0.299845	13.3204	0.990173	-1.32336
 447	1	2	0.023286	15.074	0.948733	-2.64475
 448	1	2	-0.011958	15.2623	-0.0373504	-1.21307
 449	1	3	-0.518063	13.5742	1.22057	0.0775534
 450	1	4	0.011666	12.4105	0.38561	-1.43628
 451	1	5	0.843192	13.4779	0.167675	0.932951
 452	1	1	-0.399874	13.8171	0.565144	2.34921
 453	1	2	0.119224	12.9345	0.424089	2.97846
 454	1	2	0.109051	14.1245	1.61486	2.39124
 455	1	2	0.118031	14.6275	-0.0702293	2.71712
 456	1	6	-0.590955	13.1774	-0.962567	0.610046
 457	1	1	-0.003445	15.2896	-1.62347	-3.6259
 458	1	1	0.299845	14.1285	-1.006	-2.7827
 459	1	2	0.023286	16.1587	-0.952265	-3.64536
 460	1	2	-0.011958	14.9871	-1.74421	-4.67411
 461	1	3	-0.518063	13.0148	-0.683256	-3.63817
 462	1	4	0.011666	13.7799	-1.73975	-2.04412
 463	1	5	0.843192	12.3151	-1.71533	-4.18749
 464	1	1	-0.399874	11.0581	-1.23395	-4.86313
 465	1	2	0.119224	10.5875	-0.47585	-4.23248
 466	1	2	0.109051	10.3674	-2.07401	-4.98241
 467	1	2	0.118031	11.2993	-0.799256	-5.83646
 468	1	6	-0.590955	12.615	-2.89139	-4.10304
 469	1	1	-0.003445	16.4039	-3.95424	-4.03938
 470	1	1	0.299845	15.7	-2.99383	-3.04173
 471	1	2	0.023286	17.3266	-3.47672	-4.38253
 472	1	2	-0.011958	15.7625	-4.10203	-4.91695
 473	1	3	-0.518063	16.5997	-2.69404	-1.95748
 474	1	4	0.011666	14.7864	-3.48866	-2.6947
 475	1	5	0.843192	16.2702	-3.06158	-0.692066
 476	1	1	-0.399874	17.2543	-2.49128	0.300177
 477	1	2	0.119224	17.5917	-3.28834	0.968378
 478	1	2	0.109051	16.7527	-1.70921	0.877967
 479	1	2	0.118031	18.1148	-2.06068	-0.222593
 480	1	6	-0.590955	15.2821	-3.68435	-0.366249
 481	1	1	-0.003445	17.4149	-6.45622	-4.19634
 482	1	1	0.299845	16.7378	-5.31927	-3.36972
 483	1	2	0.023286	17.2051	-7.39938	-3.67467
 484	1	2	-0.011958	18.5003	-6.3322	-4.08916
 485	1	3	-0.518063	15.5958	-5.80275	-2.63343
 486	1	4	0.011666	17.4807	-5.08016	-2.59865
 487	1	5	0.843192	14.4361	-6.16657	-3.23634
 488	1	1	-0.399874	13.3182	-6.26824	-2.22569
 489	1	2	0.119224	13.6874	-5.99193	-1.23055
 490	1	2	0.109051	12.924	-7.28712	-2.20147
 491	1	2	0.118031	12.5299	-5.56355	-2.50989
 492	1	6	-0.590955	14.3032	-6.38428	-4.42446
 493	1	1	-0.003445	16.6237	-8.07788	-6.01788
 494	1	1	0.299845	17.0832	-6.63066	-5.71368
 495	1	2	0.023286	17.4207	-8.7539	-5.68252
 496	1	2	-0.011958	15.7525	-8.33905	-5.40514
 497	1	3	-0.518063	18.3112	-6.52317	-6.4541
 498	1	4	0.011666	16.3327	-5.91424	-6.06854
 499	1	5	0.843192	18.8934	-5.33335	-6.71705
 500	1	1	-0.399874	20.2451	-5.54788	-7.34989
 501	1	2	0.119224	20.1064	-5.9143	-8.37161
 502	1	2	0.109051	20.7923	-6.30382	-6.77637
 503	1	2	0.118031	20.8048	-4.60839	-7.35517
 504	1	6	-0.590955	18.4391	-4.24629	-6.42812
 505	1	1	-0.003445	14.7944	-8.14121	-7.80035
 506	1	1	0.299845	16.3041	-8.3374	-7.52112
 507	1	2	0.023286	14.477	-7.16721	-7.40632
 508	1	2	-0.011958	14.2397	-8.89478	-7.22513
 509	1	3	-0.518063	16.6385	-9.71461	-7.80671
 510	1	4	0.011666	16.8826	-7.66688	-8.17101
 511	1	5	0.843192	17.9553	-10.0553	-7.90785
 512	1	1	-0.399874	18.1367	-11.5538	-7.84775
 513	1	2	0.119224	17.3452	-11.9941	-7.23326
 514	1	2	0.109051	19.1089	-11.7765	-7.3944
 515	1	2	0.118031	18.0934	-11.9698	-8.85737
 516	1	6	-0.590955	18.89	-9.28022	-7.89819
 517	1	1	-0.003445	13.1968	-9.18185	-9.53854
 518	1	1	0.299845	14.4088	-8.24365	-9.29987
 519	1	2	0.023286	13.4923	-10.2154	-9.31679
 520	1	2	-0.011958	12.4115	-8.9213	-8.82265
 521	1	3	-0.518063	13.9871	-6.9497	-9.77745
 522	1	4	0.011666	15.2568	-8.62805	-9.88217
 523	1	5	0.843192	14.8263	-6.20599	-10.5401
 524	1	1	-0.399874	14.0671	-5.09313	-11.2258
 525	1	2	0.119224	13.8896	-5.38374	-12.2667
 526	1	2	0.109051	14.6532	-4.17033	-11.1949
 527	1	2	0.118031	13.1013	-4.93353	-10.7351
 528	1	6	-0.590955	15.9871	-6.47364	-10.7738
 529	1	1	-0.003445	11.4176	-9.95049	-11.3258
 530	1	1	0.299845	12.6771	-9.09768	-11.0027
 531	1	2	0.023286	11.7344	-10.9952	-11.4329
 532	1	2	-0.011958	11.0326	-9.64836	-12.3062
 533	1	3	-0.518063	13.7907	-9.57444	-11.7861
 534	1	4	0.011666	12.4487	-8.05469	-11.2569
 535	1	5	0.843192	13.8137	-9.49159	-13.1407
 536	1	1	-0.399874	15.0945	-10.0816	-13.6799
 537	1	2	0.119224	14.8563	-10.787	-14.4809
 538	1	2	0.109051	15.635	-10.604	-12.8831
 539	1	2	0.118031	15.7214	-9.27328	-14.0674
 540	1	6	-0.590955	12.9272	-9.06102	-13.8475
 541	1	1	-0.003445	8.87656	-10.3366	-10.9511
 542	1	1	0.299845	10.2345	-9.92061	-10.3182
 543	1	2	0.023286	8.08076	-10.128	-10.226
 544	1	2	-0.011958	8.65012	-9.72196	-11.8318
 545	1	3	-0.518063	10.1059	-8.6809	-9.58279
 546	1	4	0.011666	10.474	-10.6736	-9.55903
 547	1	5	0.843192	9.73927	-7.50283	-10.1497
 548	1	1	-0.399874	9.72488	-6.4068	-9.1098
 549	1	2	0.119224	10.6893	-6.38708	-8.59193
 550	1	2	0.109051	8.93219	-6.60524	-8.38151
 551	1	2	0.118031	9.54738	-5.4422	-9.59529
 552	1	6	-0.590955	9.49299	-7.32523	-11.3227
 553	1	1	-0.003445	7.43741	-12.4802	-11.2879
 554	1	1	0.299845	8.85635	-11.8388	-11.3504
 555	1	2	0.023286	7.34391	-13.259	-12.0545
 556	1	2	-0.011958	6.6866	-11.7167	-11.5318
 557	1	3	-0.518063	9.36989	-11.9572	-12.69
 558	1	4	0.011666	9.5113	-12.374	-10.6516
 559	1	5	0.843192	10.2093	-12.9865	-12.9759
 560	1	1	-0.399874	10.6523	-12.959	-14.4171
 561	1	2	0.119224	10.3369	-12.0234	-14.8912
 562	1	2	0.109051	10.2023	-13.8058	-14.9434
 563	1	2	0.118031	11.7431	-13.0349	-14.4561
 564	1	6	-0.590955	10.6348	-13.787	-12.167
 565	1	1	-0.003445	5.6161	-13.2094	-9.57317
 566	1	1	0.299845	7.13368	-13.1153	-9.90087
 567	1	2	0.023286	5.10071	-12.3224	-9.95976
 568	1	2	-0.011958	5.48413	-13.1584	-8.48518
 569	1	3	-0.518063	7.80576	-12.2891	-8.92652
 570	1	4	0.011666	7.58719	-14.1145	-9.87727
 571	1	5	0.843192	8.13741	-12.7753	-7.70711
 572	1	1	-0.399874	9.21012	-11.9022	-7.09768
 573	1	2	0.119224	8.87618	-10.8601	-7.07075
 574	1	2	0.109051	10.1104	-11.9736	-7.7163
 575	1	2	0.118031	9.44134	-12.2507	-6.08675
 576	1	6	-0.590955	7.79662	-13.8517	-7.26393
 577	1	1	-0.003445	5.35592	-15.79	-9.37652
 578	1	1	0.299845	4.87144	-14.4896	-10.0528
 579	1	2	0.023286	5.48635	-15.6507	-8.29641
 580	1	2	-0.011958	4.61066	-16.5842	-9.52252
 581	1	3	-0.518063	4.94963	-14.7188	-11.4738
 582	1	4	0.011666	3.8162	-14.3738	-9.77237
 583	1	5	0.843192	4.143	-14.0035	-12.2982
 584	1	1	-0.399874	3.98488	-14.7063	-13.6265
 585	1	2	0.119224	3.58434	-15.7094	-13.444
 586	1	2	0.109051	4.9529	-14.7919	-14.1277
 587	1	2	0.118031	3.28254	-14.1481	-14.2539
 588	1	6	-0.590955	3.49657	-13.0297	-11.9715
 589	1	4	0	-16.2292	8.69439	0.946916
 590	1	2	0	6.3058	-16.1371	-9.80202

Velocities

   1	0.00057502	0.000155987	-0.000444944
   2	0.000498712	-8.26426e-06	-0.000151005
   3	0.000380723	0.000123101	-0.000627798
   4	0.000870134	6.50526e-05	-0.000101804
   5	0.000825631	2.87903e-05	-0.000575049
   6	3.84891e-05	-0.000143683	-7.16186e-05
   7	0.000317601	-2.44327e-05	-0.000389602
   8	-0.000321084	6.403e-05	-0.00049847
   9	-0.000838578	-0.000215881	-0.000443386
  10	-0.000206538	-0.000432319	0.000150032
  11	-0.00037981	0.00011488	-0.000127813
  12	0.000144581	0.000379085	-0.000898062
  13	6.22205e-06	-0.000467908	-9.82634e-05
  14	0.000128495	-0.000575934	-1.54491e-05
  15	-8.02307e-05	-0.000440327	-9.75906e-06
  16	-9.55969e-05	-0.000566953	-9.04308e-05
  17	0.000546842	-0.00062993	0.000365498
  18	3.59932e-05	-0.000751622	1.57099e-05
  19	0.000440912	-0.000583738	0.000164569
  20	0.000274783	-0.000713686	-0.000216016
  21	0.000305663	-0.000432545	-0.000216565
  22	0.000166887	-0.000964097	-0.000203319
  23	0.000189132	-0.000522333	-0.000490478
  24	0.000243185	-0.000724376	-1.82773e-05
  25	-0.000105297	-0.000319736	-0.000102533
  26	-4.93383e-05	-0.000304541	-2.76037e-05
  27	-9.27913e-05	-0.000240538	5.08668e-05
  28	-3.55593e-05	-0.000451909	-5.34843e-05
  29	0.000101713	-0.000298024	7.56632e-05
  30	-5.89032e-05	-0.000439726	-0.000104143
  31	0.000268978	0.000112889	0.000161791
  32	0.00055631	0.000118504	0.000536598
  33	0.000271077	0.00119439	0.000659751
  34	0.00131948	-0.000167496	0.00147128
  35	0.000387897	-0.000623072	-9.63489e-05
  36	0.000230841	0.000528356	-0.000209779
  37	-0.000109837	-0.000289809	-0.000205095
  38	-0.000120056	-0.000281879	-0.000220376
  39	-6.56202e-05	-0.000231989	-0.000410399
  40	-0.000203777	-0.000480417	-0.000245211
  41	0.000189605	4.81902e-05	-0.000187924
  42	-1.94508e-05	-0.000310188	-0.000458484
  43	6.06648e-05	0.000187046	-0.000496057
  44	0.000246101	0.000492682	-0.000438938
  45	0.000481909	0.000419402	-0.000140601
  46	0.0003022	0.000906226	-0.000475586
  47	2.58997e-05	0.000436228	-0.000651637
  48	-0.000327851	0.000189336	-0.000814884
  49	-1.72146e-05	7.80652e-05	-2.32214e-05
  50	-0.000197604	-9.83435e-05	-2.85701e-05
  51	8.81097e-05	4.48791e-05	-7.0669e-05
  52	-0.000110539	0.000238347	2.8759e-05
  53	-0.000319308	-9.28097e-05	1.75017e-05
  54	-0.000169814	-9.52148e-05	7.3408e-06
  55	-0.000620687	0.000174833	-0.000109039
  56	-0.000414734	0.000135749	-0.000122276
  57	-0.000424661	9.72421e-05	-0.000160982
  58	-0.000323033	0.000297039	-1.98167e-05
  59	-0.000299925	2.79724e-05	-0.000212868
  60	-0.000846746	0.000314719	-0.000196474