pySIMM System Object

542 atoms
541 bonds
990 angles
1296 dihedrals
45 impropers

6 atom types
7 bond types
12 angle types
10 dihedral types
1 improper types

-116.299970 116.299970 xlo xhi
-116.299970 116.299970 ylo yhi
-116.299970 116.299970 zlo zhi

Masses

   1	12.01	# c3
   2	1.008	# hc
   3	16.0	# os
   4	1.008	# h1
   5	12.01	# c
   6	16.0	# o

Pair Coeffs

   1	0.1094	3.3996695084235347	# c3
   2	0.0157	2.649532787749369	# hc
   3	0.17	3.0000123434657784	# os
   4	0.0157	2.471353044121301	# h1
   5	0.086	3.3996695084235347	# c
   6	0.21	2.959921901149463	# o

Bond Coeffs

   1	637.7	1.2183	# c,o
   2	330.6	1.0969	# c3,h1
   3	308.6	1.4316	# c3,os
   4	313.0	1.5241	# c,c3
   5	390.8	1.3584	# c,os
   6	300.9	1.5375	# c3,c3
   7	330.6	1.0969	# c3,hc

Angle Coeffs

   1	46.39	109.56	# c3,c3,h1
   2	46.93	108.77	# c,c3,hc
   3	68.0	107.97	# c3,c3,os
   4	68.89	110.72	# c3,c,os
   5	46.34	109.8	# c3,c3,hc
   6	63.28	115.98	# c,os,c3
   7	50.8	109.78	# h1,c3,os
   8	67.4	123.2	# c3,c,o
   9	39.4	107.58	# hc,c3,hc
  10	39.24	108.46	# h1,c3,h1
  11	75.32	123.25	# o,c,os
  12	62.86	111.51	# c3,c3,c3

Dihedral Coeffs

   1	1	0.0	2	180	# X,c,c3,X
   2	1	0.3833333333333333	3	0	# X,c3,os,X
   3	3	0.8	1	0	0.0	2	0	0.08	3	180	# hc,c3,c,o
   4	3	2.7	2	180	0.0	1	0	1.15	3	0	# c3,c,os,c3
   5	1	0.15555555555555556	3	0	# X,c3,c3,X
   6	2	2.7	2	180	1.4	1	180	# o,c,os,c3
   7	2	0.383	3	0	0.8	1	180	# c3,c3,os,c
   8	2	0.0	3	0	0.25	1	0	# hc,c3,c3,os
   9	1	0.16	3	0	# hc,c3,c3,c3
  10	3	0.18	3	0	0.25	2	180	0.2	1	180	# c3,c3,c3,c3

Improper Coeffs

   1	10.5	-1	2	# c,X,X,o

Atoms

   1	1	1	-0.003445	3.29008	-10.5165	-10.5915
   2	1	1	0.299845	3.90001	-11.6846	-11.4039
   3	1	2	0.023286	4.02771	-10.1821	-9.85225
   4	1	2	-0.011958	3.10163	-9.66136	-11.2475
   5	1	3	-0.518063	5.04725	-11.2226	-12.1427
   6	1	4	0.011666	3.15748	-12.1142	-12.0886
   7	1	5	0.843192	4.83245	-10.5	-13.2742
   8	1	1	-0.399874	6.13144	-10.1029	-13.9307
   9	1	2	0.119224	5.92158	-9.46689	-14.7964
  10	1	2	0.109051	6.66649	-11.0005	-14.2541
  11	1	2	0.118031	6.75527	-9.55253	-13.2226
  12	1	6	-0.590955	3.74232	-10.1959	-13.7157
  13	1	1	-0.003445	2.22801	-11.894	-8.71549
  14	1	1	0.299845	1.97551	-10.88	-9.85568
  15	1	2	0.023286	3.04733	-11.5365	-8.0804
  16	1	2	-0.011958	2.57355	-12.8405	-9.15154
  17	1	3	-0.518063	1.04488	-11.471	-10.7867
  18	1	4	0.011666	1.55647	-9.96576	-9.42452
  19	1	5	0.843192	0.46259	-10.6809	-11.7308
  20	1	1	-0.399874	-0.401759	-11.5012	-12.6569
  21	1	2	0.119224	-1.25775	-11.8944	-12.101
  22	1	2	0.109051	0.184189	-12.3341	-13.0587
  23	1	2	0.118031	-0.749862	-10.8699	-13.481
  24	1	6	-0.590955	0.558822	-9.47181	-11.8019
  25	1	1	-0.003445	0.420673	-10.9893	-7.03291
  26	1	1	0.299845	0.988463	-12.1906	-7.83842
  27	1	2	0.023286	0.00197892	-10.2565	-7.72696
  28	1	2	-0.011958	-0.435195	-11.3441	-6.44707
  29	1	3	-0.518063	1.39781	-13.2268	-6.92545
  30	1	4	0.011666	0.197407	-12.5762	-8.49537
  31	1	5	0.843192	0.454994	-13.9983	-6.32673
  32	1	1	-0.399874	1.10322	-15.0355	-5.44458
  33	1	2	0.119224	0.334593	-15.7041	-5.04472
  34	1	2	0.109051	1.62909	-14.5382	-4.624
  35	1	2	0.118031	1.82144	-15.6103	-6.03733
  36	1	6	-0.590955	-0.743905	-13.9161	-6.5028
  37	1	1	-0.003445	0.73209	-9.52609	-4.92357
  38	1	1	0.299845	1.43026	-10.3053	-6.07145
  39	1	2	0.023286	1.49145	-9.06634	-4.28941
  40	1	2	-0.011958	0.226113	-10.2438	-4.26401
  41	1	3	-0.518063	2.24415	-9.37884	-6.82153
  42	1	4	0.011666	2.06106	-11.0833	-5.62271
  43	1	5	0.843192	3.41046	-8.94323	-6.27216
  44	1	1	-0.399874	4.05602	-7.87408	-7.11512
  45	1	2	0.119224	3.84231	-8.05604	-8.17104
  46	1	2	0.109051	5.13815	-7.88708	-6.95328
  47	1	2	0.118031	3.66088	-6.89799	-6.82923
  48	1	6	-0.590955	3.8958	-9.36805	-5.24165
  49	1	1	-0.003445	-0.378374	-7.1883	-4.55107
  50	1	1	0.299845	-0.290103	-8.47073	-5.42759
  51	1	2	0.023286	-0.427116	-7.47904	-3.49467
  52	1	2	-0.011958	-1.33206	-6.6852	-4.75095
  53	1	3	-0.518063	-1.56805	-9.13907	-5.40927
  54	1	4	0.011666	-0.0359182	-8.18571	-6.45138
  55	1	5	0.843192	-2.56338	-8.73438	-6.23767
  56	1	1	-0.399874	-3.77167	-9.62394	-6.09119
  57	1	2	0.119224	-4.26475	-9.40372	-5.1404
  58	1	2	0.109051	-3.45498	-10.6723	-6.10071
  59	1	2	0.118031	-4.461	-9.43953	-6.92105
  60	1	6	-0.590955	-2.49578	-7.82746	-7.04082
  61	1	1	-0.003445	0.987483	-5.67762	-6.22507
  62	1	1	0.299845	0.764116	-6.14254	-4.7589
  63	1	2	0.023286	1.74943	-4.88981	-6.22952
  64	1	2	-0.011958	1.4051	-6.50565	-6.80754
  65	1	3	-0.518063	2.02286	-6.67114	-4.29477
  66	1	4	0.011666	0.518833	-5.25006	-4.16791
  67	1	5	0.843192	2.26456	-6.73861	-2.95809
  68	1	1	-0.399874	3.61013	-7.35632	-2.67416
  69	1	2	0.119224	3.98396	-6.9998	-1.70947
  70	1	2	0.109051	4.31435	-7.09359	-3.46684
  71	1	2	0.118031	3.50614	-8.44537	-2.6534
  72	1	6	-0.590955	1.51982	-6.33646	-2.08646
  73	1	1	-0.003445	-0.00315057	-4.44146	-8.2948
  74	1	1	0.299845	-0.285124	-5.16072	-6.94663
  75	1	2	0.023286	0.765918	-3.67525	-8.14856
  76	1	2	-0.011958	-0.909199	-3.91595	-8.62463
  77	1	3	-0.518063	-1.06767	-4.32935	-6.05952
  78	1	4	0.011666	-0.900442	-6.03287	-7.17493
  79	1	5	0.843192	-0.648781	-3.10827	-5.63065
  80	1	1	-0.399874	-1.62983	-2.53681	-4.63894
  81	1	2	0.119224	-1.42223	-2.96486	-3.65331
  82	1	2	0.109051	-2.65176	-2.79284	-4.93642
  83	1	2	0.118031	-1.51542	-1.44979	-4.59897
  84	1	6	-0.590955	0.371	-2.54246	-5.96681
  85	1	1	-0.003445	1.00506	-4.60656	-10.6442
  86	1	1	0.299845	0.471429	-5.38912	-9.42362
  87	1	2	0.023286	0.222933	-3.90898	-10.9671
  88	1	2	-0.011958	1.85553	-3.98264	-10.3457
  89	1	3	-0.518063	-0.652185	-6.15318	-9.89801
  90	1	4	0.011666	1.28086	-6.02479	-9.04673
  91	1	5	0.843192	-0.747541	-7.46848	-9.58479
  92	1	1	-0.399874	-1.93718	-8.09914	-10.2643
  93	1	2	0.119224	-1.8749	-7.90638	-11.34
  94	1	2	0.109051	-2.85446	-7.65512	-9.86578
  95	1	2	0.118031	-1.93138	-9.17654	-10.0802
  96	1	6	-0.590955	0.0538676	-8.07748	-8.90464
  97	1	1	-0.003445	2.445	-6.63401	-11.5307
  98	1	1	0.299845	1.4027	-5.5245	-11.8377
  99	1	2	0.023286	2.50194	-7.27342	-12.4208
 100	1	2	-0.011958	2.08107	-7.28644	-10.7279
 101	1	3	-0.518063	1.94607	-4.71379	-12.8977
 102	1	4	0.011666	0.499796	-6.03367	-12.2001
 103	1	5	0.843192	1.10052	-3.95982	-13.6468
 104	1	1	-0.399874	1.86664	-3.16562	-14.6739
 105	1	2	0.119224	2.36908	-3.85672	-15.3568
 106	1	2	0.109051	2.61318	-2.5448	-14.1693
 107	1	2	0.118031	1.17072	-2.53136	-15.2322
 108	1	6	-0.590955	-0.108357	-3.92433	-13.5373
 109	1	1	-0.003445	4.86189	-7.33236	-11.1743
 110	1	1	0.299845	3.8734	-6.1361	-11.188
 111	1	2	0.023286	4.7106	-7.9165	-12.0895
 112	1	2	-0.011958	4.5809	-7.98676	-10.3458
 113	1	3	-0.518063	3.80867	-5.54368	-9.87582
 114	1	4	0.011666	4.17676	-5.40681	-11.9488
 115	1	5	0.843192	4.63922	-4.51557	-9.56616
 116	1	1	-0.399874	4.28219	-3.94697	-8.21468
 117	1	2	0.119224	3.21693	-3.709	-8.17522
 118	1	2	0.109051	4.8632	-3.04112	-8.0355
 119	1	2	0.118031	4.51387	-4.68691	-7.44507
 120	1	6	-0.590955	5.42502	-4.00518	-10.3408
 121	1	1	-0.003445	6.88677	-6.22878	-12.3224
 122	1	1	0.299845	6.37417	-6.99506	-11.0777
 123	1	2	0.023286	6.58821	-6.78433	-13.2202
 124	1	2	-0.011958	6.40066	-5.24937	-12.3946
 125	1	3	-0.518063	7.11613	-8.23223	-11.0532
 126	1	4	0.011666	6.57915	-6.41542	-10.1706
 127	1	5	0.843192	7.1206	-9.01873	-9.94804
 128	1	1	-0.399874	7.97296	-10.2437	-10.1664
 129	1	2	0.119224	9.00441	-9.93266	-10.3565
 130	1	2	0.109051	7.59788	-10.8006	-11.0306
 131	1	2	0.118031	7.93381	-10.8763	-9.2741
 132	1	6	-0.590955	6.571	-8.76441	-8.89711
 133	1	1	-0.003445	8.94221	-5.09624	-11.2195
 134	1	1	0.299845	8.42575	-6.03332	-12.3375
 135	1	2	0.023286	8.32477	-4.19164	-11.2045
 136	1	2	-0.011958	8.81509	-5.59003	-10.2489
 137	1	3	-0.518063	8.79794	-5.46551	-13.608
 138	1	4	0.011666	8.92327	-7.00359	-12.2114
 139	1	5	0.843192	8.99007	-6.30396	-14.6583
 140	1	1	-0.399874	9.39075	-5.52984	-15.8881
 141	1	2	0.119224	9.52671	-6.22171	-16.7252
 142	1	2	0.109051	10.327	-4.99774	-15.6902
 143	1	2	0.118031	8.60695	-4.80539	-16.1276
 144	1	6	-0.590955	8.88694	-7.5151	-14.6278
 145	1	1	-0.003445	11.0489	-3.92271	-10.2241
 146	1	1	0.299845	10.4344	-4.71752	-11.4118
 147	1	2	0.023286	10.8825	-4.47217	-9.29369
 148	1	2	-0.011958	12.1398	-3.91552	-10.3417
 149	1	3	-0.518063	11.1726	-5.9461	-11.5725
 150	1	4	0.011666	10.5198	-4.12275	-12.3308
 151	1	5	0.843192	12.331	-5.91544	-12.281
 152	1	1	-0.399874	12.9037	-7.30292	-12.4246
 153	1	2	0.119224	12.1249	-7.97403	-12.8011
 154	1	2	0.109051	13.249	-7.6566	-11.449
 155	1	2	0.118031	13.7404	-7.27749	-13.13
 156	1	6	-0.590955	12.8107	-4.93278	-12.81
 157	1	1	-0.003445	9.93217	-2.03347	-8.75359
 158	1	1	0.299845	10.606	-2.4338	-10.0962
 159	1	2	0.023286	10.6674	-2.13698	-7.94503
 160	1	2	-0.011958	9.70845	-0.962878	-8.79479
 161	1	3	-0.518063	9.76376	-2.06918	-11.2075
 162	1	4	0.011666	11.5334	-1.84976	-10.1659
 163	1	5	0.843192	9.74524	-0.776771	-11.6273
 164	1	1	-0.399874	8.96109	-0.652433	-12.9091
 165	1	2	0.119224	8.9829	0.388912	-13.2458
 166	1	2	0.109051	7.92946	-0.969395	-12.7416
 167	1	2	0.118031	9.41843	-1.29593	-13.6672
 168	1	6	-0.590955	10.3657	0.137254	-11.1246
 169	1	1	-0.003445	7.72882	-2.03208	-7.41504
 170	1	1	0.299845	8.65181	-2.82768	-8.37717
 171	1	2	0.023286	8.32776	-1.69679	-6.55977
 172	1	2	-0.011958	6.95893	-2.69389	-7.00296
 173	1	3	-0.518063	9.09901	-4.02076	-7.69561
 174	1	4	0.011666	8.09652	-3.08904	-9.28513
 175	1	5	0.843192	8.26159	-5.076	-7.52875
 176	1	1	-0.399874	8.96017	-6.20705	-6.81748
 177	1	2	0.119224	9.81578	-6.53338	-7.41591
 178	1	2	0.109051	8.26281	-7.04179	-6.68557
 179	1	2	0.118031	9.31258	-5.85885	-5.84202
 180	1	6	-0.590955	7.12156	-5.14626	-7.93495
 181	1	1	-0.003445	5.9927	-0.159152	-7.12039
 182	1	1	0.299845	7.03416	-0.808051	-8.07081
 183	1	2	0.023286	5.34693	0.529641	-7.67956
 184	1	2	-0.011958	5.33149	-0.943641	-6.73042
 185	1	3	-0.518063	6.35243	-1.24324	-9.25958
 186	1	4	0.011666	7.79258	-0.0714602	-8.35154
 187	1	5	0.843192	6.02989	-0.316593	-10.2006
 188	1	1	-0.399874	5.23638	-0.926232	-11.3286
 189	1	2	0.119224	4.98306	-0.150286	-12.0577
 190	1	2	0.109051	4.32184	-1.36956	-10.924
 191	1	2	0.118031	5.82838	-1.71374	-11.8036
 192	1	6	-0.590955	6.3493	0.855226	-10.1689
 193	1	1	-0.003445	5.60336	0.99409	-4.85203
 194	1	1	0.299845	6.63013	0.618282	-5.94277
 195	1	2	0.023286	4.68564	1.36283	-5.32833
 196	1	2	-0.011958	5.98551	1.83552	-4.26141
 197	1	3	-0.518063	7.16993	1.85425	-6.43984
 198	1	4	0.011666	7.4172	0.0187849	-5.47412
 199	1	5	0.843192	8.48898	1.91814	-6.75443
 200	1	1	-0.399874	8.84555	3.27495	-7.30326
 201	1	2	0.119224	8.87111	3.99751	-6.48276
 202	1	2	0.109051	8.08904	3.58042	-8.03374
 203	1	2	0.118031	9.82458	3.22184	-7.78929
 204	1	6	-0.590955	9.27489	0.994139	-6.65861
 205	1	1	-0.003445	4.42736	0.273098	-2.6795
 206	1	1	0.299845	5.24177	-0.187799	-3.91413
 207	1	2	0.023286	4.99598	1.0348	-2.1323
 208	1	2	-0.011958	3.50335	0.765459	-3.00975
 209	1	3	-0.518063	6.39801	-0.938613	-3.46359
 210	1	4	0.011666	4.61441	-0.877832	-4.49116
 211	1	5	0.843192	7.3878	-0.3601	-2.72111
 212	1	1	-0.399874	8.30088	-1.41192	-2.14419
 213	1	2	0.119224	7.73987	-1.98398	-1.39846
 214	1	2	0.109051	9.15175	-0.923571	-1.65804
 215	1	2	0.118031	8.65113	-2.07941	-2.93556
 216	1	6	-0.590955	7.55675	0.83215	-2.57579
 217	1	1	-0.003445	2.88759	-1.74998	-2.2609
 218	1	1	0.299845	4.07995	-0.909126	-1.739
 219	1	2	0.023286	2.76786	-1.60256	-3.33944
 220	1	2	-0.011958	1.95258	-1.37509	-1.82812
 221	1	3	-0.518063	3.75809	-0.370719	-0.43936
 222	1	4	0.011666	4.95035	-1.56914	-1.65004
 223	1	5	0.843192	4.79548	-0.0560618	0.385848
 224	1	1	-0.399874	4.3181	0.689405	1.6083
 225	1	2	0.119224	5.10882	0.691372	2.36624
 226	1	2	0.109051	3.42199	0.213462	2.01234
 227	1	2	0.118031	4.07901	1.71859	1.32389
 228	1	6	-0.590955	5.95527	-0.367207	0.19537
 229	1	1	-0.003445	3.2086	-3.60062	-0.467632
 230	1	1	0.299845	3.04473	-3.27028	-1.97344
 231	1	2	0.023286	3.38554	-4.67898	-0.367984
 232	1	2	-0.011958	4.12604	-3.11315	-0.120136
 233	1	3	-0.518063	4.24808	-3.77773	-2.60178
 234	1	4	0.011666	2.17662	-3.80558	-2.37312
 235	1	5	0.843192	4.34425	-3.87979	-3.95378
 236	1	1	-0.399874	5.69938	-4.40453	-4.36499
 237	1	2	0.119224	5.82484	-4.28057	-5.4446
 238	1	2	0.109051	5.77771	-5.46421	-4.11021
 239	1	2	0.118031	6.47965	-3.84886	-3.83733
 240	1	6	-0.590955	3.48849	-3.55897	-4.74988
 241	1	1	-0.003445	2.42114	-3.02164	1.95748
 242	1	1	0.299845	2.02974	-3.19121	0.46584
 243	1	2	0.023286	2.84116	-2.01954	2.09839
 244	1	2	-0.011958	1.50258	-3.04457	2.5587
 245	1	3	-0.518063	1.01852	-4.21285	0.465135
 246	1	4	0.011666	1.60126	-2.23302	0.149258
 247	1	5	0.843192	0.0559092	-4.20477	-0.491569
 248	1	1	-0.399874	-0.961798	-5.28278	-0.215532
 249	1	2	0.119224	-1.67809	-5.32836	-1.0405
 250	1	2	0.109051	-1.47999	-5.05518	0.721137
 251	1	2	0.118031	-0.444957	-6.2428	-0.120571
 252	1	6	-0.590955	-0.0736679	-3.35739	-1.3543
 253	1	1	-0.003445	3.21856	-4.49761	3.96646
 254	1	1	0.299845	3.42964	-4.07606	2.48533
 255	1	2	0.023286	2.18198	-4.84036	4.06893
 256	1	2	-0.011958	3.84666	-5.37368	4.16577
 257	1	3	-0.518063	4.73591	-3.50193	2.29165
 258	1	4	0.011666	3.32202	-4.98396	1.87841
 259	1	5	0.843192	5.83185	-4.29857	2.28285
 260	1	1	-0.399874	7.05033	-3.50586	1.8823
 261	1	2	0.119224	7.92572	-4.16173	1.86124
 262	1	2	0.109051	7.20865	-2.69159	2.5963
 263	1	2	0.118031	6.88463	-3.07551	0.889234
 264	1	6	-0.590955	5.8301	-5.49849	2.4696
 265	1	1	-0.003445	3.437	-3.89426	6.51994
 266	1	1	0.299845	3.5267	-3.41482	5.03643
 267	1	2	0.023286	4.4101	-4.3056	6.81319
 268	1	2	-0.011958	3.28666	-3.01965	7.16658
 269	1	3	-0.518063	2.59469	-2.33257	4.85465
 270	1	4	0.011666	4.55276	-3.06892	4.85691
 271	1	5	0.843192	3.02593	-1.05789	5.05357
 272	1	1	-0.399874	1.94468	-0.0646993	4.71334
 273	1	2	0.119224	2.3799	0.936826	4.64461
 274	1	2	0.109051	1.18185	-0.0811782	5.49615
 275	1	2	0.118031	1.47859	-0.334329	3.76066
 276	1	6	-0.590955	4.16546	-0.738616	5.32822
 277	1	1	-0.003445	1.78354	-4.94763	8.26746
 278	1	1	0.299845	2.31567	-4.9378	6.80111
 279	1	2	0.023286	1.16803	-4.05104	8.4092
 280	1	2	-0.011958	2.62275	-4.85266	8.96759
 281	1	3	-0.518063	2.74597	-6.24933	6.35413
 282	1	4	0.011666	1.45358	-4.65152	6.18618
 283	1	5	0.843192	3.72416	-6.96061	6.97939
 284	1	1	-0.399874	4.01198	-8.23625	6.2279
 285	1	2	0.119224	3.07446	-8.77466	6.05561
 286	1	2	0.109051	4.69224	-8.86389	6.81197
 287	1	2	0.118031	4.46938	-7.98989	5.26447
 288	1	6	-0.590955	4.29145	-6.63277	8.00225
 289	1	1	-0.003445	0.0285255	-6.11028	9.8758
 290	1	1	0.299845	0.944931	-6.21124	8.62444
 291	1	2	0.023286	-0.904885	-5.61627	9.58258
 292	1	2	-0.011958	-0.256396	-7.1192	10.1995
 293	1	3	-0.518063	0.0825699	-6.48735	7.50304
 294	1	4	0.011666	1.65935	-7.0258	8.79487
 295	1	5	0.843192	0.027641	-7.75533	7.01997
 296	1	1	-0.399874	-0.859225	-7.81771	5.80274
 297	1	2	0.119224	-0.445578	-7.16592	5.02709
 298	1	2	0.109051	-1.86395	-7.4805	6.06954
 299	1	2	0.118031	-0.898802	-8.84903	5.4384
 300	1	6	-0.590955	0.665922	-8.70278	7.43214
 301	1	1	-0.003445	-0.308502	-5.20296	12.2928
 302	1	1	0.299845	0.633331	-5.31729	11.0591
 303	1	2	0.023286	-0.347323	-6.15694	12.8304
 304	1	2	-0.011958	-1.33865	-5.02594	11.9576
 305	1	3	-0.518063	1.95186	-5.80417	11.3839
 306	1	4	0.011666	0.775664	-4.30726	10.6788
 307	1	5	0.843192	2.1815	-7.0526	11.871
 308	1	1	-0.399874	3.65842	-7.34982	11.851
 309	1	2	0.119224	3.86125	-8.24602	12.4447
 310	1	2	0.109051	4.21469	-6.49807	12.2539
 311	1	2	0.118031	3.96347	-7.51613	10.8119
 312	1	6	-0.590955	1.33716	-7.85149	12.2184
 313	1	1	-0.003445	-0.634982	-2.70809	13.0563
 314	1	1	0.299845	0.113691	-4.06582	13.262
 315	1	2	0.023286	-1.7174	-2.88635	13.0999
 316	1	2	-0.011958	-0.421767	-2.05001	13.9067
 317	1	3	-0.518063	-0.181562	-4.52181	14.5974
 318	1	4	0.011666	1.19776	-3.92066	13.1719
 319	1	5	0.843192	0.479411	-3.94658	15.6373
 320	1	1	-0.399874	0.00133724	-4.48954	16.9616
 321	1	2	0.119224	0.337441	-3.82508	17.7642
 322	1	2	0.109051	0.415818	-5.49092	17.1104
 323	1	2	0.118031	-1.09147	-4.54435	16.9624
 324	1	6	-0.590955	1.35208	-3.10764	15.5358
 325	1	1	-0.003445	-1.19421	-2.27721	10.5668
 326	1	1	0.299845	-0.302547	-1.89935	11.7719
 327	1	2	0.023286	-1.14199	-3.34795	10.3661
 328	1	2	-0.011958	-2.23746	-2.07134	10.8361
 329	1	3	-0.518063	1.0803	-2.08838	11.4142
 330	1	4	0.011666	-0.504367	-0.840001	11.9765
 331	1	5	0.843192	2.01333	-1.25792	11.9529
 332	1	1	-0.399874	3.39888	-1.65427	11.5064
 333	1	2	0.119224	3.40781	-1.8118	10.4238
 334	1	2	0.109051	3.68807	-2.58151	12.0109
 335	1	2	0.118031	4.10326	-0.858046	11.7686
 336	1	6	-0.590955	1.76976	-0.244604	12.5739
 337	1	1	-0.003445	-1.52358	-2.09787	8.02653
 338	1	1	0.299845	-0.826525	-1.50099	9.27974
 339	1	2	0.023286	-1.11515	-1.63622	7.12207
 340	1	2	-0.011958	-1.20944	-3.14739	7.95929
 341	1	3	-0.518063	-1.18244	-0.125233	9.50543
 342	1	4	0.011666	0.257232	-1.57744	9.12194
 343	1	5	0.843192	-0.73741	0.840829	8.65855
 344	1	1	-0.399874	-1.18361	2.2092	9.11145
 345	1	2	0.119224	-0.365455	2.68459	9.66094
 346	1	2	0.109051	-2.05556	2.12284	9.76882
 347	1	2	0.118031	-1.44809	2.81306	8.23834
 348	1	6	-0.590955	-0.12215	0.641861	7.63022
 349	1	1	-0.003445	-3.65927	-0.700749	7.46126
 350	1	1	0.299845	-3.08184	-2.02024	8.02803
 351	1	2	0.023286	-4.71432	-0.652516	7.72437
 352	1	2	-0.011958	-3.22015	0.141216	8.00321
 353	1	3	-0.518063	-3.59989	-3.10753	7.23734
 354	1	4	0.011666	-3.45753	-2.11965	9.0527
 355	1	5	0.843192	-3.60894	-4.35378	7.78011
 356	1	1	-0.399874	-4.05495	-5.38094	6.77102
 357	1	2	0.119224	-4.99997	-5.06232	6.3189
 358	1	2	0.109051	-4.18551	-6.34959	7.26466
 359	1	2	0.118031	-3.29409	-5.4607	5.98934
 360	1	6	-0.590955	-3.27574	-4.62134	8.91869
 361	1	1	-0.003445	-4.62292	-0.844563	4.98071
 362	1	1	0.299845	-3.42992	-0.513333	5.93438
 363	1	2	0.023286	-4.73485	-1.93386	4.95926
 364	1	2	-0.011958	-4.31668	-0.58358	3.95977
 365	1	3	-0.518063	-2.97605	0.83711	5.72304
 366	1	4	0.011666	-2.61782	-1.19274	5.65123
 367	1	5	0.843192	-2.06866	1.08341	4.7427
 368	1	1	-0.399874	-1.79995	2.56246	4.62341
 369	1	2	0.119224	-2.74679	3.1092	4.67767
 370	1	2	0.109051	-1.31188	2.76507	3.66471
 371	1	2	0.118031	-1.15007	2.87354	5.44645
 372	1	6	-0.590955	-1.5681	0.248105	4.01512
 373	1	1	-0.003445	-5.97553	1.36337	5.35841
 374	1	1	0.299845	-6.02203	-0.186487	5.23286
 375	1	2	0.023286	-5.27712	1.66049	6.14362
 376	1	2	-0.011958	-5.53816	1.74817	4.42941
 377	1	3	-0.518063	-6.64805	-0.746842	6.40279
 378	1	4	0.011666	-6.65566	-0.415133	4.36578
 379	1	5	0.843192	-7.11363	-2.02083	6.40085
 380	1	1	-0.399874	-7.66587	-2.38889	7.75712
 381	1	2	0.119224	-7.38143	-3.41852	7.99325
 382	1	2	0.109051	-8.75606	-2.3007	7.73471
 383	1	2	0.118031	-7.2617	-1.71612	8.52059
 384	1	6	-0.590955	-7.05388	-2.7967	5.46905
 385	1	1	-0.003445	-7.25298	3.62223	5.64374
 386	1	1	0.299845	-7.35203	2.0703	5.58134
 387	1	2	0.023286	-8.20165	4.01535	6.03354
 388	1	2	-0.011958	-6.48528	3.88908	6.38087
 389	1	3	-0.518063	-8.04552	1.63653	6.78242
 390	1	4	0.011666	-7.99776	1.81393	4.73255
 391	1	5	0.843192	-7.47894	1.65703	8.02464
 392	1	1	-0.399874	-8.50052	1.31443	9.08238
 393	1	2	0.119224	-9.31363	2.04489	9.03825
 394	1	2	0.109051	-8.02916	1.35284	10.0703
 395	1	2	0.118031	-8.90081	0.314112	8.89878
 396	1	6	-0.590955	-6.32143	1.90735	8.29435
 397	1	1	-0.003445	-8.20326	4.83127	3.51953
 398	1	1	0.299845	-6.94368	4.32451	4.28261
 399	1	2	0.023286	-9.02789	4.13063	3.69886
 400	1	2	-0.011958	-8.55862	5.77612	3.94577
 401	1	3	-0.518063	-6.03643	5.43629	4.47528
 402	1	4	0.011666	-6.43367	3.59713	3.64139
 403	1	5	0.843192	-6.3286	6.45967	5.32925
 404	1	1	-0.399874	-5.28439	7.54358	5.24469
 405	1	2	0.119224	-5.08852	7.77587	4.19392
 406	1	2	0.109051	-4.36176	7.19879	5.72
 407	1	2	0.118031	-5.65197	8.43967	5.75645
 408	1	6	-0.590955	-7.32572	6.55045	6.01679
 409	1	1	-0.003445	-8.05299	6.4976	1.53714
 410	1	1	0.299845	-7.96732	5.00079	1.98165
 411	1	2	0.023286	-8.93435	6.96452	1.99625
 412	1	2	-0.011958	-7.18728	7.01226	1.96622
 413	1	3	-0.518063	-8.94387	4.19253	1.28139
 414	1	4	0.011666	-6.96537	4.63771	1.71652
 415	1	5	0.843192	-8.86931	2.83496	1.39939
 416	1	1	-0.399874	-10.0182	2.14888	0.700374
 417	1	2	0.119224	-9.86849	1.06449	0.739796
 418	1	2	0.109051	-10.0617	2.47673	-0.342472
 419	1	2	0.118031	-10.9552	2.40644	1.20358
 420	1	6	-0.590955	-8.05066	2.23462	2.0715
 421	1	1	-0.003445	-7.75494	8.21671	-0.431175
 422	1	1	0.299845	-8.10824	6.754	0.0005903
 423	1	2	0.023286	-7.90866	8.31674	-1.51384
 424	1	2	-0.011958	-8.50426	8.86064	0.0389894
 425	1	3	-0.518063	-9.50064	6.58311	-0.349629
 426	1	4	0.011666	-7.45967	6.03633	-0.518543
 427	1	5	0.843192	-9.86157	6.01077	-1.52403
 428	1	1	-0.399874	-11.3675	6.00943	-1.67804
 429	1	2	0.119224	-11.8334	5.75527	-0.720482
 430	1	2	0.109051	-11.663	5.27608	-2.43536
 431	1	2	0.118031	-11.6995	7.00671	-1.98181
 432	1	6	-0.590955	-9.09715	5.54531	-2.34413
 433	1	1	-0.003445	-6.1467	10.3061	-0.277682
 434	1	1	0.299845	-6.33329	8.77079	-0.0838016
 435	1	2	0.023286	-6.18385	10.5445	-1.35006
 436	1	2	-0.011958	-5.13005	10.5632	0.0354121
 437	1	3	-0.518063	-5.34647	8.20591	-0.967135
 438	1	4	0.011666	-6.09388	8.56091	0.964558
 439	1	5	0.843192	-4.59423	7.15276	-0.569409
 440	1	1	-0.399874	-3.45966	6.9229	-1.54166
 441	1	2	0.119224	-3.85793	6.52429	-2.47916
 442	1	2	0.109051	-2.73825	6.22079	-1.11172
 443	1	2	0.118031	-2.96054	7.87672	-1.74562
 444	1	6	-0.590955	-4.72755	6.56282	0.484144
 445	1	1	-0.003445	-6.68479	12.5798	0.961067
 446	1	1	0.299845	-7.1827	11.1833	0.474658
 447	1	2	0.023286	-6.0891	13.0675	0.178064
 448	1	2	-0.011958	-7.55892	13.2222	1.13204
 449	1	3	-0.518063	-8.23314	11.386	-0.48642
 450	1	4	0.011666	-7.54636	10.6201	1.34386
 451	1	5	0.843192	-9.52372	11.4231	-0.0819639
 452	1	1	-0.399874	-10.4303	11.4882	-1.28397
 453	1	2	0.119224	-10.2479	10.6096	-1.91113
 454	1	2	0.109051	-10.2039	12.3913	-1.85905
 455	1	2	0.118031	-11.4743	11.5012	-0.957445
 456	1	6	-0.590955	-9.90748	11.2465	1.05591
 457	1	1	-0.003445	-5.67983	13.8678	3.01405
 458	1	1	0.299845	-5.87259	12.5015	2.28283
 459	1	2	0.023286	-6.09584	14.6866	2.4115
 460	1	2	-0.011958	-4.61321	14.0967	3.12507
 461	1	3	-0.518063	-4.57925	11.9692	1.96339
 462	1	4	0.011666	-6.39963	11.8066	2.95002
 463	1	5	0.843192	-3.81303	11.4871	2.97189
 464	1	1	-0.399874	-2.48173	11.0189	2.44809
 465	1	2	0.119224	-2.11887	11.7275	1.69664
 466	1	2	0.109051	-2.60672	10.0335	1.99023
 467	1	2	0.118031	-1.76731	10.9629	3.27468
 468	1	6	-0.590955	-4.17412	11.3595	4.12419
 469	1	1	-0.003445	-6.08321	15.1418	5.23979
 470	1	1	0.299845	-6.36032	13.8538	4.40734
 471	1	2	0.023286	-7.00801	15.7287	5.30846
 472	1	2	-0.011958	-5.38681	15.7831	4.68471
 473	1	3	-0.518063	-7.75183	13.7118	4.06653
 474	1	4	0.011666	-6.02276	12.9711	4.9629
 475	1	5	0.843192	-8.65337	13.3153	4.99206
 476	1	1	-0.399874	-9.90983	12.845	4.3002
 477	1	2	0.119224	-10.5477	12.3138	5.01214
 478	1	2	0.109051	-9.63225	12.1599	3.49135
 479	1	2	0.118031	-10.4436	13.697	3.87085
 480	1	6	-0.590955	-8.44591	13.2307	6.1844
 481	1	1	-0.003445	-5.09233	16.3036	7.30338
 482	1	1	0.299845	-5.54085	14.9375	6.69627
 483	1	2	0.023286	-6.00749	16.8614	7.53702
 484	1	2	-0.011958	-4.59972	16.8915	6.51754
 485	1	3	-0.518063	-4.52618	13.9117	6.82702
 486	1	4	0.011666	-6.38276	14.5895	7.30704
 487	1	5	0.843192	-3.37246	13.8547	6.111
 488	1	1	-0.399874	-2.50944	12.6971	6.56921
 489	1	2	0.119224	-2.25093	12.0673	5.71394
 490	1	2	0.109051	-3.05358	12.0897	7.30143
 491	1	2	0.118031	-1.59807	13.085	7.03309
 492	1	6	-0.590955	-3.07162	14.598	5.19864
 493	1	1	-0.003445	-4.78013	17.03	9.79479
 494	1	1	0.299845	-4.17387	16.2902	8.56606
 495	1	2	0.023286	-3.96302	17.3817	10.4404
 496	1	2	-0.011958	-5.27305	17.9436	9.43872
 497	1	3	-0.518063	-3.03311	17.1161	8.24682
 498	1	4	0.011666	-3.87395	15.2687	8.82952
 499	1	5	0.843192	-1.79279	16.7561	8.65913
 500	1	1	-0.399874	-0.890262	17.9681	8.72095
 501	1	2	0.119224	-1.00458	18.5694	7.81383
 502	1	2	0.109051	0.151609	17.6525	8.83268
 503	1	2	0.118031	-1.18308	18.5721	9.58615
 504	1	6	-0.590955	-1.47921	15.6567	9.06885
 505	1	1	-0.003445	-6.6516	17.1855	11.5175
 506	1	1	0.299845	-5.75353	16.2247	10.6894
 507	1	2	0.023286	-7.07847	17.9471	10.8515
 508	1	2	-0.011958	-6.01984	17.7179	12.2389
 509	1	3	-0.518063	-4.9341	15.5186	11.6377
 510	1	4	0.011666	-6.37111	15.5602	10.0717
 511	1	5	0.843192	-4.62999	14.2146	11.4305
 512	1	1	-0.399874	-3.47557	13.8007	12.3099
 513	1	2	0.119224	-2.54731	14.0015	11.7643
 514	1	2	0.109051	-3.54523	12.734	12.5425
 515	1	2	0.118031	-3.47832	14.3855	13.2354
 516	1	6	-0.590955	-5.16862	13.4923	10.6184
 517	1	1	-0.003445	-8.76758	17.4398	13.0206
 518	1	1	0.299845	-7.82396	16.4701	12.2373
 519	1	2	0.023286	-9.34063	17.9929	12.2719
 520	1	2	-0.011958	-9.4976	16.8643	13.6013
 521	1	3	-0.518063	-8.5512	15.8666	11.1538
 522	1	4	0.011666	-7.42529	15.6989	12.9096
 523	1	5	0.843192	-9.57173	15.0017	11.3658
 524	1	1	-0.399874	-10.087	14.5024	10.0393
 525	1	2	0.119224	-11.0842	14.0726	10.1664
 526	1	2	0.109051	-9.39736	13.7426	9.65638
 527	1	2	0.118031	-10.1282	15.3325	9.32685
 528	1	6	-0.590955	-10.0147	14.6706	12.4463
 529	1	1	-0.003445	-7.39769	17.6785	15.1885
 530	1	1	0.299845	-8.05097	18.4213	13.9972
 531	1	2	0.023286	-8.13788	17.4799	15.9753
 532	1	2	-0.011958	-6.59428	18.2828	15.6283
 533	1	3	-0.518063	-8.95675	19.3742	14.6015
 534	1	4	0.011666	-7.27501	18.9754	13.4564
 535	1	5	0.843192	-9.6711	20.2708	13.8684
 536	1	1	-0.399874	-10.2896	21.3198	14.7623
 537	1	2	0.119224	-10.6203	22.1646	14.149
 538	1	2	0.109051	-9.54086	21.6671	15.482
 539	1	2	0.118031	-11.1408	20.8951	15.3015
 540	1	6	-0.590955	-9.71817	20.3268	12.6565
 541	1	4	0	4.21754	-12.4763	-10.7145
 542	1	2	0	-6.96471	16.717	14.889

Velocities

   1	0.000244609	0.00104938	0.00014133
   2	0.000765851	0.00101299	0.000430424
   3	0.000344585	0.00139232	-0.000166652
   4	-0.00042039	0.00105491	0.00019211
   5	-0.000287271	0.000835249	-0.000797901
   6	0.000651359	0.00033955	0.0015829
   7	-0.000403457	0.000274153	-0.000885813
   8	0.000179236	-0.00068578	-0.000562864
   9	0.001753	-0.000521344	-0.00113275
  10	-0.000145713	-0.00136843	0.000180044
  11	0.000352001	-0.00112802	-5.73947e-05
  12	-0.000260397	0.000672717	-0.000979006
  13	0.000872083	-1.39616e-05	0.000110359
  14	0.000660187	0.000347791	0.000492365
  15	0.000813722	-0.000302204	0.000375497
  16	0.000787166	0.000176782	-0.000266518
  17	0.000715079	0.00038093	0.000568356
  18	0.000439606	0.000191342	0.00085127
  19	0.000376643	0.000409205	0.000918635
  20	0.000231299	0.000490611	0.000938151
  21	0.000579276	-5.07921e-05	0.00113072
  22	0.000351858	0.000826722	0.000357925
  23	-0.000314822	0.000713199	0.00134977
  24	0.000115957	0.00041945	0.00107229
  25	0.000403388	-0.000542005	-0.000100038
  26	0.000651987	-0.000319802	-0.000126884
  27	0.000587527	-0.000473828	-0.00022752
  28	0.000152075	-0.000602369	-0.000447283
  29	0.000281051	-0.000575365	-4.39973e-05
  30	0.000848926	-0.00028803	-0.0004738
  31	9.55815e-07	-0.000452079	-0.000293949
  32	-0.000392595	1.09334e-05	0.000538006
  33	-0.000495587	0.000358112	0.000836958
  34	-0.000517471	0.00043262	0.000316921
  35	-0.000355523	-0.00042997	0.00109379
  36	9.12064e-05	-0.000629441	-0.000947851
  37	-7.53265e-05	-0.000617108	3.50359e-06
  38	0.00014976	-0.000583645	0.000182328
  39	-0.000246205	-0.000578619	0.000150578
  40	-0.000173595	-0.000630934	-9.42611e-05
  41	0.000172083	-0.000580165	0.000288488
  42	6.87657e-05	-0.00062249	0.00020463
  43	-0.00013751	-0.000139659	0.000604503
  44	-0.00038045	7.51144e-05	0.000664864
  45	-0.000392544	8.67071e-05	0.000659475
  46	-0.000359779	0.000390906	0.000614859
  47	-0.000688677	-6.27735e-05	0.000741065
  48	-0.000204508	8.57721e-05	0.000734282
  49	-0.000185416	-0.000464658	-0.00047078
  50	8.10642e-06	-0.000646467	-0.000222524
  51	-0.000352082	-0.000303477	-0.00043496
  52	-0.00016118	-0.000494151	-0.000676721
  53	3.19985e-05	-0.000691462	-0.000328111
  54	0.000111581	-0.000744485	-0.000201986
  55	-0.000206115	-0.000145969	0.000249607
  56	-0.000285181	-1.11603e-05	0.000327522
  57	0.000316788	-0.000558719	0.000770351
  58	-0.000506943	-7.27222e-05	-0.0005508
  59	-0.000731792	0.000698432	0.000858823
  60	-0.000449036	0.000423441	0.000866683
  61	-0.000351258	-0.000123358	-0.000355551
  62	-0.000243078	-0.000413367	-0.000434033
  63	-7.01508e-05	-0.000397406	-0.000280652
  64	-0.000698999	-0.000105536	-0.000617789
  65	-0.000240384	-0.000450929	-0.000381405
  66	-0.000271333	-0.000492941	-0.000333603
  67	-0.000375898	-0.000206245	-0.000320342
  68	-0.000504878	-0.000260418	0.000239156
  69	-0.000579009	0.00042818	1.69939e-05
  70	-0.000289502	-0.00100849	0.000139393
  71	-0.000784612	-0.000220227	0.00120069
  72	-0.000565666	-0.000147719	-0.000524825
  73	3.29851e-05	0.000506996	-0.000170443
  74	-0.000232125	0.000558755	-0.000137156
  75	2.31156e-05	0.000502202	-1.5551e-05
  76	0.000122449	0.000599526	-0.000279226
  77	2.85402e-05	0.000804433	-6.3795e-05
  78	-0.000632426	0.000848285	-0.000184163
  79	0.00075291	0.000267131	0.000807755
  80	0.000234383	0.0010082	-5.33745e-05
  81	-0.00127741	0.000688906	0.000132816
  82	0.000293112	0.00206982	-0.00116617
  83	0.00118945	0.000905926	0.000277458
  84	0.00155748	-0.000579562	0.00183955
  85	0.000121619	7.10022e-05	-0.000429017
  86	5.09264e-05	0.000375803	-0.000200362
  87	0.000257159	0.000174488	-0.000505131
  88	0.000215087	-4.77636e-06	-0.000529547
  89	6.78466e-05	0.000187726	2.95443e-06
  90	6.93285e-05	0.000425965	-0.000174364
  91	-5.57048e-05	0.000348814	0.000743604
  92	-0.000112044	-2.40356e-05	0.001177
  93	-0.000142875	-0.000656744	0.00107006
  94	-0.000111894	0.00017247	0.000942936
  95	-0.000101704	8.43601e-05	0.00181714
  96	-3.13751e-05	0.000627645	0.000969512
  97	-6.18701e-05	-0.000201739	-0.000565935
  98	1.4209e-05	-4.30272e-05	-0.000470513
  99	8.08834e-05	-4.74216e-05	-0.000674666
 100	-0.000206422	-0.000302378	-0.000707073
 101	0.000112621	-8.21857e-05	-0.00049559
 102	-6.65584e-05	6.20535e-05	-0.000451243
 103	0.000334321	8.11969e-05	-0.000546959
 104	0.000449456	0.000227789	-0.000332167
 105	0.000782509	0.000316628	-0.000222119
 106	0.000268888	0.000302138	-9.30989e-05
 107	0.000551174	0.000147463	-0.000489905
 108	0.000283868	0.000280685	-0.000620812