pySIMM System Object

290 atoms
289 bonds
528 angles
687 dihedrals
24 impropers

6 atom types
7 bond types
12 angle types
10 dihedral types
1 improper types

-93.685272 93.685272 xlo xhi
-93.685272 93.685272 ylo yhi
-93.685272 93.685272 zlo zhi

Masses

   1	12.01	# c3
   2	1.008	# hc
   3	16.0	# os
   4	1.008	# h1
   5	12.01	# c
   6	16.0	# o

Pair Coeffs

   1	0.1094	3.3996695084235347	# c3
   2	0.0157	2.649532787749369	# hc
   3	0.17	3.0000123434657784	# os
   4	0.0157	2.471353044121301	# h1
   5	0.086	3.3996695084235347	# c
   6	0.21	2.959921901149463	# o

Bond Coeffs

   1	637.7	1.2183	# c,o
   2	330.6	1.0969	# c3,h1
   3	308.6	1.4316	# c3,os
   4	313.0	1.5241	# c,c3
   5	390.8	1.3584	# c,os
   6	300.9	1.5375	# c3,c3
   7	330.6	1.0969	# c3,hc

Angle Coeffs

   1	46.39	109.56	# c3,c3,h1
   2	46.93	108.77	# c,c3,hc
   3	68.0	107.97	# c3,c3,os
   4	68.89	110.72	# c3,c,os
   5	46.34	109.8	# c3,c3,hc
   6	63.28	115.98	# c,os,c3
   7	50.8	109.78	# h1,c3,os
   8	67.4	123.2	# c3,c,o
   9	39.4	107.58	# hc,c3,hc
  10	39.24	108.46	# h1,c3,h1
  11	75.32	123.25	# o,c,os
  12	62.86	111.51	# c3,c3,c3

Dihedral Coeffs

   1	1	0.0	2	180	# X,c,c3,X
   2	1	0.3833333333333333	3	0	# X,c3,os,X
   3	3	0.8	1	0	0.0	2	0	0.08	3	180	# hc,c3,c,o
   4	3	2.7	2	180	0.0	1	0	1.15	3	0	# c3,c,os,c3
   5	1	0.15555555555555556	3	0	# X,c3,c3,X
   6	2	2.7	2	180	1.4	1	180	# o,c,os,c3
   7	2	0.383	3	0	0.8	1	180	# c3,c3,os,c
   8	2	0.0	3	0	0.25	1	0	# hc,c3,c3,os
   9	1	0.16	3	0	# hc,c3,c3,c3
  10	3	0.18	3	0	0.25	2	180	0.2	1	180	# c3,c3,c3,c3

Improper Coeffs

   1	10.5	-1	2	# c,X,X,o

Atoms

   1	1	1	-0.003445	-4.98963	-0.865194	8.10287
   2	1	1	0.299845	-5.37778	0.0469924	9.29126
   3	1	2	0.023286	-5.54665	-0.543048	7.21497
   4	1	2	-0.011958	-3.93181	-0.729	7.85739
   5	1	3	-0.518063	-4.91208	1.38384	9.04276
   6	1	4	0.011666	-4.96266	-0.33595	10.2326
   7	1	5	0.843192	-3.59752	1.65308	9.25448
   8	1	1	-0.399874	-3.266	3.08771	8.92111
   9	1	2	0.119224	-4.18195	3.6504	8.71168
  10	1	2	0.109051	-2.61621	3.10915	8.04144
  11	1	2	0.118031	-2.75007	3.53893	9.77391
  12	1	6	-0.590955	-2.7792	0.861626	9.67849
  13	1	1	-0.003445	-6.77849	-2.61843	8.63208
  14	1	1	0.299845	-5.27644	-2.36872	8.35793
  15	1	2	0.023286	-7.37468	-2.11796	7.86079
  16	1	2	-0.011958	-7.04812	-2.13288	9.57899
  17	1	3	-0.518063	-4.52248	-2.81641	9.5035
  18	1	4	0.011666	-4.98724	-2.92752	7.46578
  19	1	5	0.843192	-3.16833	-2.93218	9.40105
  20	1	1	-0.399874	-2.5541	-3.32511	10.7231
  21	1	2	0.119224	-2.69823	-4.39672	10.8871
  22	1	2	0.109051	-3.03359	-2.76477	11.5321
  23	1	2	0.118031	-1.48442	-3.09149	10.706
  24	1	6	-0.590955	-2.52174	-2.79462	8.38069
  25	1	1	-0.003445	-7.02237	-4.96664	7.44668
  26	1	1	0.299845	-7.20691	-4.10334	8.73
  27	1	2	0.023286	-5.96811	-4.99014	7.17605
  28	1	2	-0.011958	-7.27395	-6.00608	7.69097
  29	1	3	-0.518063	-8.61004	-4.04754	9.04057
  30	1	4	0.011666	-6.65259	-4.56515	9.55813
  31	1	5	0.843192	-9.22659	-5.11934	9.5923
  32	1	1	-0.399874	-10.7149	-4.88547	9.63565
  33	1	2	0.119224	-11.2194	-5.79384	9.97762
  34	1	2	0.109051	-11.064	-4.62383	8.63092
  35	1	2	0.118031	-10.9299	-4.05579	10.3154
  36	1	6	-0.590955	-8.68071	-6.14295	9.94992
  37	1	1	-0.003445	-8.07936	-5.5973	5.1359
  38	1	1	0.299845	-7.89001	-4.51827	6.23674
  39	1	2	0.023286	-8.60575	-5.15797	4.28281
  40	1	2	-0.011958	-8.76844	-6.36118	5.5219
  41	1	3	-0.518063	-7.31105	-3.34568	5.62796
  42	1	4	0.011666	-8.88872	-4.28218	6.62284
  43	1	5	0.843192	-8.14981	-2.51782	4.94707
  44	1	1	-0.399874	-7.40501	-1.38227	4.29325
  45	1	2	0.119224	-6.8235	-0.846097	5.0465
  46	1	2	0.109051	-8.12641	-0.702785	3.82733
  47	1	2	0.118031	-6.73443	-1.78656	3.52858
  48	1	6	-0.590955	-9.36013	-2.62061	4.91514
  49	1	1	-0.003445	-6.6708	-6.52493	3.1393
  50	1	1	0.299845	-6.76301	-6.27412	4.67135
  51	1	2	0.023286	-7.62813	-6.92751	2.78498
  52	1	2	-0.011958	-5.94242	-7.32526	2.95913
  53	1	3	-0.518063	-6.7571	-7.568	5.30815
  54	1	4	0.011666	-5.90689	-5.67343	4.99364
  55	1	5	0.843192	-5.59389	-8.10682	5.74692
  56	1	1	-0.399874	-5.81439	-9.50961	6.25677
  57	1	2	0.119224	-4.85507	-9.94481	6.55329
  58	1	2	0.109051	-6.26223	-10.1122	5.46021
  59	1	2	0.118031	-6.49386	-9.48431	7.11432
  60	1	6	-0.590955	-4.51307	-7.55515	5.74051
  61	1	1	-0.003445	-4.93667	-4.59562	2.65013
  62	1	1	0.299845	-6.2572	-5.30992	2.25306
  63	1	2	0.023286	-4.72966	-3.82038	1.90287
  64	1	2	-0.011958	-5.09906	-4.05894	3.59251
  65	1	3	-0.518063	-7.29626	-4.30489	2.22781
  66	1	4	0.011666	-6.1129	-5.68324	1.23083
  67	1	5	0.843192	-8.37638	-4.50813	1.42183
  68	1	1	-0.399874	-9.31584	-3.32613	1.43851
  69	1	2	0.119224	-8.76497	-2.41918	1.17207
  70	1	2	0.109051	-9.74881	-3.21164	2.43554
  71	1	2	0.118031	-10.1195	-3.49256	0.713544
  72	1	6	-0.590955	-8.5623	-5.49513	0.739118
  73	1	1	-0.003445	-2.32007	-4.76859	2.82802
  74	1	1	0.299845	-3.68669	-5.52133	2.79121
  75	1	2	0.023286	-2.22657	-4.1241	1.94732
  76	1	2	-0.011958	-1.49544	-5.49256	2.77874
  77	1	3	-0.518063	-3.62797	-6.52511	1.75372
  78	1	4	0.011666	-3.79389	-6.06083	3.73874
  79	1	5	0.843192	-3.44256	-6.19798	0.447816
  80	1	1	-0.399874	-3.17532	-7.43539	-0.369567
  81	1	2	0.119224	-2.96034	-7.14961	-1.40388
  82	1	2	0.109051	-4.04819	-8.09371	-0.333671
  83	1	2	0.118031	-2.31187	-7.95813	0.0547896
  84	1	6	-0.590955	-3.45056	-5.07298	-0.0105497
  85	1	1	-0.003445	-1.07331	-2.7901	3.98823
  86	1	1	0.299845	-2.15927	-3.8921	4.08323
  87	1	2	0.023286	-0.0929363	-3.27053	4.08007
  88	1	2	-0.011958	-1.08754	-2.30992	3.00393
  89	1	3	-0.518063	-1.80836	-4.74144	5.19287
  90	1	4	0.011666	-3.11812	-3.39766	4.22867
  91	1	5	0.843192	-2.74366	-4.99756	6.1403
  92	1	1	-0.399874	-2.19571	-5.86213	7.25008
  93	1	2	0.119224	-2.27548	-6.91184	6.95411
  94	1	2	0.109051	-2.77374	-5.69023	8.16203
  95	1	2	0.118031	-1.14497	-5.61205	7.42559
  96	1	6	-0.590955	-3.86728	-4.53763	6.12362
  97	1	1	-0.003445	-2.64421	-0.975475	5.04331
  98	1	1	0.299845	-1.29044	-1.73496	5.11638
  99	1	2	0.023286	-2.67602	-0.317366	5.91974
 100	1	2	-0.011958	-3.50439	-1.64235	5.16906
 101	1	3	-0.518063	-0.326038	-0.663035	5.14872
 102	1	4	0.011666	-1.24863	-2.25968	6.0791
 103	1	5	0.843192	0.99954	-0.856431	5.34715
 104	1	1	-0.399874	1.61909	0.429616	5.84182
 105	1	2	0.119224	2.70758	0.380758	5.74723
 106	1	2	0.109051	1.34713	0.5542	6.89575
 107	1	2	0.118031	1.2295	1.27958	5.27336
 108	1	6	-0.590955	1.6102	-1.89464	5.20851
 109	1	1	-0.003445	-3.94179	0.944383	3.9859
 110	1	1	0.299845	-2.81702	-0.0997944	3.77096
 111	1	2	0.023286	-3.78346	1.4622	4.94063
 112	1	2	-0.011958	-4.89599	0.41126	4.08277
 113	1	3	-0.518063	-3.21427	-0.936682	2.65897
 114	1	4	0.011666	-1.874	0.42446	3.57211
 115	1	5	0.843192	-2.7434	-0.647008	1.41082
 116	1	1	-0.399874	-3.57287	-1.31036	0.339329
 117	1	2	0.119224	-4.53761	-1.62201	0.751536
 118	1	2	0.109051	-3.04624	-2.17937	-0.0660027
 119	1	2	0.118031	-3.7598	-0.581678	-0.456628
 120	1	6	-0.590955	-1.8797	0.176292	1.17158
 121	1	1	-0.003445	-3.15209	3.23736	3.10027
 122	1	1	0.299845	-4.04364	2.00375	2.86073
 123	1	2	0.023286	-3.50699	3.75637	3.99815
 124	1	2	-0.011958	-2.12341	2.91846	3.31458
 125	1	3	-0.518063	-5.40068	2.46239	2.79274
 126	1	4	0.011666	-3.75936	1.56627	1.90501
 127	1	5	0.843192	-6.23268	1.89878	1.87947
 128	1	1	-0.399874	-7.62329	2.47124	1.98798
 129	1	2	0.119224	-7.65295	3.23588	2.77197
 130	1	2	0.109051	-8.32399	1.66845	2.23365
 131	1	2	0.118031	-7.89441	2.92785	1.0315
 132	1	6	-0.590955	-5.92892	1.01653	1.09874
 133	1	1	-0.003445	-2.30964	3.60386	0.71531
 134	1	1	0.299845	-3.15794	4.1876	1.87132
 135	1	2	0.023286	-1.35094	3.27145	1.1321
 136	1	2	-0.011958	-2.78358	2.68908	0.340022
 137	1	3	-0.518063	-2.60044	5.45825	2.25452
 138	1	4	0.011666	-4.18592	4.33619	1.51993
 139	1	5	0.843192	-3.37438	6.295	2.99789
 140	1	1	-0.399874	-2.63359	7.56754	3.3197
 141	1	2	0.119224	-1.66425	7.31914	3.76163
 142	1	2	0.109051	-3.2228	8.161	4.02671
 143	1	2	0.118031	-2.47998	8.13436	2.39733
 144	1	6	-0.590955	-4.49418	6.05567	3.40327
 145	1	1	-0.003445	-0.562708	4.6321	-0.797406
 146	1	1	0.299845	-2.07043	4.58056	-0.474339
 147	1	2	0.023286	-5.47678e-06	4.67225	0.142483
 148	1	2	-0.011958	-0.285738	3.69623	-1.30101
 149	1	3	-0.518063	-2.71702	4.0434	-1.64812
 150	1	4	0.011666	-2.43846	5.59002	-0.247915
 151	1	5	0.843192	-4.07387	3.98392	-1.69198
 152	1	1	-0.399874	-4.54539	3.08621	-2.81087
 153	1	2	0.119224	-3.70985	2.48805	-3.18935
 154	1	2	0.109051	-4.96153	3.69125	-3.6208
 155	1	2	0.118031	-5.31433	2.4139	-2.41553
 156	1	6	-0.590955	-4.8211	4.46134	-0.862244
 157	1	1	-0.003445	1.19517	5.58931	-2.42985
 158	1	1	0.299845	-0.128589	5.8414	-1.64884
 159	1	2	0.023286	1.02583	4.78949	-3.16153
 160	1	2	-0.011958	1.41657	6.48565	-3.02222
 161	1	3	-0.518063	0.0284581	6.94677	-0.73532
 162	1	4	0.011666	-0.921029	6.05966	-2.37677
 163	1	5	0.843192	0.0600906	8.21751	-1.21313
 164	1	1	-0.399874	0.267341	9.20463	-0.0903256
 165	1	2	0.119224	1.08628	8.85917	0.548669
 166	1	2	0.109051	-0.649609	9.27366	0.502166
 167	1	2	0.118031	0.514186	10.1854	-0.509205
 168	1	6	-0.590955	-0.0757607	8.53782	-2.37624
 169	1	1	-0.003445	3.69867	5.16186	-2.52075
 170	1	1	0.299845	2.45374	5.23414	-1.58844
 171	1	2	0.023286	3.51591	5.76486	-3.41851
 172	1	2	-0.011958	3.84187	4.13623	-2.88735
 173	1	3	-0.518063	2.25287	3.93092	-0.99668
 174	1	4	0.011666	2.5728	6.01373	-0.826063
 175	1	5	0.843192	2.52805	3.73133	0.3212
 176	1	1	-0.399874	2.00973	2.38816	0.785875
 177	1	2	0.119224	1.45911	2.52179	1.72261
 178	1	2	0.109051	2.8487	1.70535	0.945906
 179	1	2	0.118031	1.33408	1.96182	0.0363235
 180	1	6	-0.590955	2.97156	4.56803	1.08009
 181	1	1	-0.003445	5.67014	4.71516	-0.902287
 182	1	1	0.299845	5.01426	5.6913	-1.9144
 183	1	2	0.023286	5.63953	5.16052	0.0991794
 184	1	2	-0.011958	5.08765	3.78695	-0.839665
 185	1	3	-0.518063	4.72001	6.9653	-1.32326
 186	1	4	0.011666	5.69558	5.85655	-2.75339
 187	1	5	0.843192	5.70933	7.88216	-1.19182
 188	1	1	-0.399874	5.1245	9.19367	-0.731204
 189	1	2	0.119224	4.35216	9.00234	0.0202925
 190	1	2	0.109051	4.673	9.69728	-1.59193
 191	1	2	0.118031	5.91495	9.81682	-0.303543
 192	1	6	-0.590955	6.86262	7.73618	-1.54201
 193	1	1	-0.003445	7.20135	3.56972	-2.64328
 194	1	1	0.299845	7.1274	4.33966	-1.29058
 195	1	2	0.023286	6.54474	4.04415	-3.37591
 196	1	2	-0.011958	6.79796	2.55691	-2.52126
 197	1	3	-0.518063	7.65813	3.49307	-0.245028
 198	1	4	0.011666	7.72886	5.25312	-1.37836
 199	1	5	0.843192	8.0235	4.07282	0.9318
 200	1	1	-0.399874	8.46444	3.04441	1.94627
 201	1	2	0.119224	7.80797	2.17062	1.89702
 202	1	2	0.109051	8.40964	3.48633	2.94724
 203	1	2	0.118031	9.49363	2.74519	1.73174
 204	1	6	-0.590955	7.98665	5.26194	1.17367
 205	1	1	-0.003445	8.68173	3.03752	-4.72395
 206	1	1	0.299845	8.63208	3.53936	-3.24994
 207	1	2	0.023286	9.71653	2.79249	-4.99493
 208	1	2	-0.011958	8.10973	2.10897	-4.76657
 209	1	3	-0.518063	9.5016	2.75707	-2.39496
 210	1	4	0.011666	9.02027	4.56464	-3.24261
 211	1	5	0.843192	9.30982	1.4251	-2.17491
 212	1	1	-0.399874	10.1803	0.925364	-1.04663
 213	1	2	0.119224	10.7068	0.0225417	-1.36931
 214	1	2	0.109051	9.53892	0.69271	-0.190618
 215	1	2	0.118031	10.9041	1.69389	-0.758297
 216	1	6	-0.590955	8.56896	0.692473	-2.79907
 217	1	1	-0.003445	8.13495	3.50059	-7.26033
 218	1	1	0.299845	8.08636	4.00914	-5.78919
 219	1	2	0.023286	9.18423	3.35982	-7.54739
 220	1	2	-0.011958	7.76961	4.31079	-7.90606
 221	1	3	-0.518063	8.83556	5.24229	-5.82744
 222	1	4	0.011666	7.03637	4.20767	-5.55002
 223	1	5	0.843192	8.31179	6.35852	-5.25963
 224	1	1	-0.399874	9.03033	7.59627	-5.74361
 225	1	2	0.119224	8.61837	8.4774	-5.24108
 226	1	2	0.109051	8.88117	7.69017	-6.82465
 227	1	2	0.118031	10.1012	7.51419	-5.53652
 228	1	6	-0.590955	7.30751	6.376	-4.57787
 229	1	1	-0.003445	5.80877	2.30409	-7.26858
 230	1	1	0.299845	7.31864	2.21988	-7.61754
 231	1	2	0.023286	5.70168	2.59545	-6.21715
 232	1	2	-0.011958	5.34946	3.1043	-7.86436
 233	1	3	-0.518063	7.84814	1.08338	-6.92214
 234	1	4	0.011666	7.40143	2.0511	-8.69942
 235	1	5	0.843192	9.03866	0.547567	-7.28141
 236	1	1	-0.399874	9.38851	-0.588155	-6.3568
 237	1	2	0.119224	8.60804	-1.35232	-6.42139
 238	1	2	0.109051	9.43409	-0.213329	-5.32849
 239	1	2	0.118031	10.3541	-1.01227	-6.64548
 240	1	6	-0.590955	9.73837	0.935355	-8.19422
 241	1	1	-0.003445	4.54578	0.702887	-8.93585
 242	1	1	0.299845	5.04731	0.956664	-7.48776
 243	1	2	0.023286	3.83484	1.4878	-9.22199
 244	1	2	-0.011958	5.39267	0.79166	-9.62914
 245	1	3	-0.518063	3.95928	0.822684	-6.54918
 246	1	4	0.011666	5.73204	0.137359	-7.2485
 247	1	5	0.843192	2.92875	1.70642	-6.47808
 248	1	1	-0.399874	1.91232	1.2544	-5.45792
 249	1	2	0.119224	1.98309	1.88691	-4.56875
 250	1	2	0.109051	2.10384	0.212172	-5.17838
 251	1	2	0.118031	0.911804	1.32838	-5.89443
 252	1	6	-0.590955	2.83368	2.73896	-7.10986
 253	1	1	-0.003445	4.85632	-1.88734	-8.94853
 254	1	1	0.299845	3.87606	-0.692679	-9.12112
 255	1	2	0.023286	5.87368	-1.52765	-9.13957
 256	1	2	-0.011958	4.86545	-2.15398	-7.88433
 257	1	3	-0.518063	3.28974	-0.717496	-10.4343
 258	1	4	0.011666	3.10685	-0.799227	-8.34691
 259	1	5	0.843192	1.94004	-0.854312	-10.5364
 260	1	1	-0.399874	1.51128	-0.955602	-11.9758
 261	1	2	0.119224	1.3923	-2.01286	-12.2287
 262	1	2	0.109051	2.27009	-0.505199	-12.6228
 263	1	2	0.118031	0.559433	-0.430194	-12.0987
 264	1	6	-0.590955	1.15906	-0.960764	-9.61129
 265	1	1	-0.003445	5.33295	-3.18218	-11.1645
 266	1	1	0.299845	4.6399	-3.20592	-9.77268
 267	1	2	0.023286	4.58412	-2.9859	-11.9433
 268	1	2	-0.011958	6.02025	-2.3317	-11.2376
 269	1	3	-0.518063	3.2689	-3.582	-10.0241
 270	1	4	0.011666	5.09853	-4.00812	-9.18272
 271	1	5	0.843192	2.41884	-3.86086	-9.00576
 272	1	1	-0.399874	1.2571	-4.66717	-9.54057
 273	1	2	0.119224	0.705837	-5.10814	-8.70501
 274	1	2	0.109051	1.64397	-5.4676	-10.1812
 275	1	2	0.118031	0.59662	-4.02363	-10.1284
 276	1	6	-0.590955	2.65954	-3.70802	-7.82652
 277	1	1	-0.003445	5.18764	-5.62899	-12.0155
 278	1	1	0.299845	6.11073	-4.48158	-11.5409
 279	1	2	0.023286	4.35357	-5.78857	-11.322
 280	1	2	-0.011958	5.74603	-6.57211	-12.0919
 281	1	3	-0.518063	6.92906	-5.04235	-10.4859
 282	1	4	0.011666	6.77143	-4.23561	-12.3822
 283	1	5	0.843192	7.82224	-4.30711	-9.77067
 284	1	1	-0.399874	8.74266	-5.19542	-8.97061
 285	1	2	0.119224	8.36587	-6.2232	-8.95689
 286	1	2	0.109051	8.81925	-4.81621	-7.94715
 287	1	2	0.118031	9.72938	-5.18026	-9.44362
 288	1	6	-0.590955	7.86039	-3.09643	-9.7047
 289	1	4	0	-6.47004	0.0669558	9.38809
 290	1	2	0	4.77409	-5.41039	-13.0083

Velocities

   1	0.000132115	0.000284664	-0.00085464
   2	0.000158845	0.00023213	-0.000722558
   3	0.000434674	0.000882162	-0.000678416
   4	0.000307081	-0.000352555	-0.000989047
   5	0.00124426	-0.000138417	0.000669492
   6	-0.00077472	-0.000654297	-0.00104609
   7	0.00111378	-0.000310367	0.00050396
   8	0.000126692	-0.00010039	-3.50149e-05
   9	-0.000667524	-0.000843324	0.000526096
  10	-0.000848423	0.000498724	-0.00102551
  11	0.000511632	0.00120116	-0.000691584
  12	0.00155511	-0.000221368	-0.000338939
  13	-0.000788759	0.000891198	-5.59727e-05
  14	-0.000783036	0.000437334	-0.000824098
  15	-0.00130765	0.00122499	0.000556402
  16	0.000161563	0.000729898	0.000301845
  17	-0.000654793	0.000342048	-0.000999983
  18	-0.00116525	4.66084e-05	-0.000870948
  19	-0.000614309	0.00102748	-0.000777173
  20	-0.00094556	0.000151526	-0.000868552
  21	-0.00242855	0.000341162	-0.000898977
  22	-9.30036e-05	0.000697278	-0.000730459
  23	-0.000619926	-0.00137008	-0.000883794
  24	-0.000401079	0.00165496	-0.000545325
  25	-0.00180397	0.000667528	0.000219523
  26	-0.00127929	0.000813713	0.000146314
  27	-0.00172219	0.000233829	0.000466038
  28	-0.00219992	0.000722285	0.000144352
  29	-0.00123462	0.000305823	0.00114836
  30	-0.000854139	0.000793873	-9.17445e-05
  31	-0.000706373	-0.000955691	-0.000420005
  32	-0.000732039	-0.00141864	0.00172127
  33	2.36899e-05	-0.00151514	0.00256809
  34	-0.00229842	-0.00167173	0.0022391
  35	-2.75256e-06	-0.00146818	0.00195604
  36	-0.000347674	-0.00169919	-0.00312646
  37	-0.000330423	0.00125544	-0.000520637
  38	-0.00122441	0.000944261	-2.45903e-05
  39	0.00106161	0.00171528	-0.00109766
  40	-0.00122447	0.00142521	-0.00184015
  41	-0.000320656	0.000872937	0.000855125
  42	-0.00139321	0.00116968	-0.000523934
  43	0.00105102	0.000449281	-0.00119918
  44	0.00252707	0.000163171	8.3915e-05
  45	0.00205981	-0.000641803	0.00102689
  46	0.00358136	0.000889711	-0.000466357
  47	0.00315379	-2.57259e-05	0.000701941
  48	0.00107376	0.000396483	-0.00362662
  49	0.00114451	-0.000202973	0.00117588
  50	5.56094e-05	0.000873351	0.000999973
  51	0.0014373	-0.000579494	0.000812171
  52	0.00137542	-0.000171034	0.00201927
  53	4.90106e-05	0.00163983	0.00268662
  54	-0.000258166	0.00119904	0.00111059
  55	0.00109828	-0.000708872	-0.00273312
  56	0.000330173	0.000429393	0.000234397
  57	6.00402e-05	0.000579791	0.00132471
  58	0.000168953	-0.00109081	0.00147306
  59	0.0002184	0.00246089	9.75324e-05
  60	0.00242974	-0.00322784	-0.00882415
  61	0.00110082	-0.000501071	0.000475928
  62	0.00136804	-0.000636296	0.000624296
  63	0.000598943	3.56355e-05	0.000888517
  64	0.00114137	-0.00112872	0.000818209
  65	0.00180577	-0.000243078	0.000369169
  66	0.00138591	-0.000919144	0.000738338
  67	0.00174635	-0.000393255	0.000575348
  68	0.00150981	-0.000476244	0.000744724
  69	0.0014557	-9.68107e-05	0.00206385
  70	0.000616107	-0.00161307	0.000407644
  71	0.0021626	-0.000166199	1.1771e-06
  72	0.00133237	-0.000728308	0.00139067
  73	0.000364763	0.00137932	-0.000525316
  74	0.00135063	-3.7363e-05	-0.000523309
  75	-0.000646705	0.00165023	-0.000475838
  76	0.00124211	0.00241047	-0.000785667
  77	0.00144976	0.000211439	-0.000817759
  78	0.00215745	-0.000354861	-0.000665199
  79	-0.000446687	0.000133997	-0.00107173
  80	-0.00185409	-1.13985e-05	-0.00141216
  81	-0.0021803	-0.000195409	-0.0015373
  82	-0.00230968	0.000594295	-0.00100626
  83	-0.00204439	-0.000737783	-0.00189353
  84	-0.0017739	0.000126194	-0.00117052
  85	-0.000987429	0.00115095	0.00025348
  86	-0.000798815	0.00114351	-6.72262e-05
  87	-0.000967699	0.00114004	-0.000377981
  88	-0.00115219	0.00152356	0.000466434
  89	-0.000524384	0.00112835	-0.000158255
  90	-0.000844737	0.00106614	0.000254398
  91	-0.000536391	-0.000462378	-0.000584176
  92	0.000498614	0.000301233	-0.000547456
  93	0.00358213	0.000250734	-0.00130483
  94	-0.000819981	-0.00169204	-0.000994782
  95	-0.000348401	0.00311963	0.000660737
  96	-0.001145	-0.00189781	-0.000536497
  97	-0.000203191	0.0014181	0.00105063
  98	-0.000564137	0.00077372	0.000593227
  99	0.000651869	0.00199564	0.000689315
 100	-0.000258758	0.00158509	0.00193408
 101	0.000432136	-0.000215651	-0.000252302
 102	-0.000555125	0.000706971	0.0005692
 103	-0.000196582	-0.00239019	0.0028579
 104	0.00209371	-0.00144466	-0.00266037
 105	0.00199441	-0.00342122	-0.0036615
 106	0.0034057	0.00288619	-0.0028276
 107	0.00279489	-0.00311281	-0.00554627
 108	-0.00280999	-0.004921	0.0103137
 109	-0.00190044	-7.26758e-05	0.00032807
 110	-0.000994536	0.000789249	0.000752422
 111	-0.00308153	-0.000259468	0.000645875
 112	-0.0017019	-0.000638404	-0.000750867
 113	-0.000450869	8.7921e-05	0.00106185
 114	-0.00137083	0.00140806	0.000590649
 115	-0.000630385	-0.000103123	0.000914961
 116	0.00119111	-0.00265747	0.00103879
 117	0.000580011	-0.00182202	0.000211488
 118	0.00192936	-0.00352386	0.00387892
 119	0.00243525	-0.00452959	-0.000951957
 120	-0.00127156	0.000418042	0.000576489
 121	-0.000510901	-0.000516266	0.00120309
 122	-0.0013506	0.000180618	0.00058791
 123	-0.000157659	-0.000336029	0.00124337
 124	-0.00080207	-0.00146571	0.0011851
 125	-0.00113127	0.000774951	-0.000167846
 126	-0.00127452	0.000121812	0.000610172
 127	-0.00133973	-0.000785101	0.000946713
 128	-0.00108278	0.000130997	-0.000690488
 129	-0.00142067	0.000483032	-0.00106467
 130	-0.00183984	0.000667328	-0.00112116
 131	0.000152907	-0.000130605	-0.00116218
 132	-0.00170197	-0.00286455	0.00310351
 133	0.000139382	-0.00101622	0.00144342
 134	0.00047232	-0.000416891	0.00138557
 135	0.000209658	-0.00111828	0.0012631
 136	-0.000227615	-0.000890242	0.00162494
 137	0.00127174	-0.000781654	0.00149152
 138	0.000642363	0.000321592	0.00118708
 139	0.00116605	0.00014503	0.000344778
 140	0.00116835	0.000391552	-0.00050425
 141	0.0012606	0.000840155	-0.000450572
 142	0.00113409	0.000758787	-0.000839454
 143	0.000960019	-0.000109391	-0.000856315
 144	0.00063971	0.001044	-0.000617784
 145	-0.000344994	-0.000845729	0.000764753
 146	-0.000144748	-0.00123024	0.00127123
 147	9.78882e-05	-0.000824429	0.000512021
 148	-0.000522146	-0.000816773	0.000568319
 149	-2.61272e-06	-0.0011402	0.00122507
 150	-0.000261742	-0.00126469	0.00126364
 151	4.40318e-05	-0.000499387	0.000630737
 152	9.0271e-05	0.00191283	-0.00132071
 153	-0.000286435	0.0014882	-0.00144411
 154	0.00179379	0.00387612	-0.000737661
 155	-0.00126674	0.00229476	-0.0032857
 156	-2.88948e-05	-0.00104201	0.000864397
 157	-0.00230429	-0.000917972	-0.00130761
 158	-0.00136845	-0.000724516	0.000326871
 159	-0.00298571	-0.00157276	-0.000474857
 160	-0.00306788	-0.0014267	-0.00234374
 161	-0.00048718	-0.000707339	0.000223739
 162	-0.00222153	-0.000714154	0.00124966
 163	0.000126883	-0.000745913	-8.07546e-06
 164	7.36839e-05	-0.000302756	-0.000453078
 165	0.000505104	0.000524111	-0.000531996
 166	0.000186228	-0.000523298	-0.000186182
 167	-0.000669655	-0.000262216	-0.000945231
 168	0.000905014	-0.00105487	-0.000244501
 169	-0.00139739	0.000352491	-0.00156843
 170	-0.00160894	5.45163e-05	-0.00200839
 171	-0.00169034	-0.000263884	-0.00193347
 172	-0.000818506	0.000243816	-0.00108022
 173	-0.000677801	0.000111332	-0.00185458
 174	-0.0019646	0.000355426	-0.00224608
 175	0.000618478	0.000704739	-0.00209029
 176	0.00231274	0.000367544	-0.00136132
 177	0.00352727	1.44326e-05	-0.000622769
 178	0.00305621	0.00102524	-0.00262611
 179	0.00160423	-8.8017e-05	-0.000434455
 180	0.000402433	0.00133975	-0.00271608
 181	-0.000822405	0.00175323	-0.000815564
 182	-0.00164475	0.00108449	-0.00127494
 183	-0.00118985	0.00155875	-0.000744697
 184	-9.63236e-05	0.00131674	-0.00101636
 185	-0.00178963	0.00164221	-0.0021192
 186	-0.00166824	0.000772058	-0.00132313
 187	-0.000752208	0.000338466	0.000149082
 188	0.00180116	0.00102171	0.00181834
 189	0.00343579	0.00187647	0.00373127
 190	0.000315948	0.00211493	0.00316955
 191	0.00377636	-8.84294e-05	2.24204e-05
 192	-4.36434e-05	-0.00184197	0.00328669
 193	-2.90132e-05	0.000954448	0.000565756
 194	-0.000425803	0.00241208	-0.000362674
 195	-0.00113174	-0.000995874	0.000353569
 196	0.00125463	0.000673036	0.00252113
 197	-0.00011728	0.00249679	-0.000529526
 198	-0.000653265	0.00256081	-0.000762942
 199	0.00102735	0.00132606	-0.000418686
 200	0.000447876	-0.000534561	-0.0020177
 201	-0.000807206	0.000431089	-0.00312892
 202	0.00163826	-0.00215973	-0.00123347
 203	-0.000123626	-0.00176674	-0.00315958
 204	0.00162326	0.00104763	0.000883369
 205	0.000153599	0.00058595	0.000259525
 206	-8.98892e-05	0.00124433	0.000160686
 207	0.000681478	0.00285555	5.72634e-05
 208	0.00233897	-0.000728374	0.000425215
 209	0.000486422	0.0016252	9.10755e-05
 210	-0.000490642	0.00142645	-0.000236675
 211	0.00057906	0.00162804	0.000270175
 212	0.00150846	0.000733543	-0.000911093
 213	0.000261625	0.000328369	-0.00181261
 214	0.00225268	0.000853095	-0.000312807
 215	0.00256586	-6.42866e-05	-0.00141102
 216	-0.00074574	0.00190563	0.00134598
 217	-0.0014978	-0.00195979	0.00019002
 218	-0.00194046	-0.00125635	-5.38425e-05
 219	-0.00136158	-0.000928834	4.47252e-05
 220	-0.0025181	-0.00265286	-0.000125469
 221	-0.00313033	-0.000735748	-0.000846883
 222	-0.0020727	-0.00235135	0.000264065
 223	-0.00286357	-0.00103978	-0.00018626
 224	0.000175876	-0.00156823	0.00326251
 225	0.000983662	-0.00155459	0.00380603
 226	0.00276518	0.000253601	0.00309576
 227	-0.00047188	-0.00417474	0.00539408
 228	-0.003448	-0.000874235	-0.00102183
 229	-0.000208425	-0.00337494	0.000926275
 230	-0.000345668	-0.00275315	0.000609014
 231	-0.000284562	-0.00327256	0.000833708
 232	-0.000264369	-0.00359403	0.000773199
 233	0.000776294	-0.00247896	0.00041028
 234	-0.000458896	-0.00277257	0.000566732
 235	0.00115375	-0.00133501	-7.14299e-05
 236	0.00172603	-0.0017063	-0.000775562
 237	0.00189585	-0.00186403	-0.00126515
 238	0.00153757	-0.00223968	-0.000545881
 239	0.00188225	-0.00128524	-0.00107768
 240	0.000875744	-0.000574072	-9.71948e-05
 241	-0.000537477	-0.00106974	0.000414888
 242	-0.000318632	-0.00313352	0.000761806
 243	-0.000356533	-0.000762331	0.00109888
 244	-0.000441559	-0.000548956	0.000734397
 245	-0.000446088	-0.00276315	0.00082261
 246	-0.000313631	-0.00328467	0.000380611
 247	4.47649e-06	-0.00191551	-0.000313892
 248	-0.000809402	0.000775885	0.000143307
 249	0.000478523	0.00151652	-0.00045591
 250	-0.00318866	0.000623717	0.0011289
 251	-0.000654499	0.00282805	6.06028e-05
 252	0.000335868	-0.00349481	-0.00256379
 253	0.00017469	0.000332432	0.000505123
 254	-0.000581209	-0.000637335	-0.00134744
 255	0.000358136	0.000185257	0.000650072
 256	-0.000347628	0.00134314	0.000756703
 257	0.000427562	-0.000627521	-0.00220146
 258	-0.00144595	-0.00120772	-0.00224307
 259	0.000287953	7.81799e-05	-0.00328558
 260	-0.000342482	0.000366223	-0.00328949
 261	0.000552734	0.000401344	-0.00397409
 262	-0.00159365	0.00175814	-0.00376671
 263	-0.00122723	-0.000879355	-0.00234942
 264	-0.000188339	0.00110103	-0.00349857
 265	0.000680928	0.00173545	0.00144641
 266	0.000925729	0.000341421	0.00128075
 267	0.00085326	0.00261658	0.00179094
 268	0.00075297	0.00195336	0.00209535
 269	0.000706826	0.00031881	0.00209515
 270	0.00163398	0.000732701	0.00130431
 271	0.00224067	-0.00180831	0.00298808
 272	-0.00122557	0.0033596	0.00294809
 273	-0.00239054	0.00485167	0.00281761
 274	-0.00476734	0.00262398	0.00187628
 275	0.00103487	0.00662466	0.00413318
 276	0.00553128	-0.00663037	0.0029952
 277	-0.000868542	0.00350401	0.00114781
 278	0.000409036	0.00229257	0.00127457
 279	0.00176334	0.00202437	0.00334372
 280	-0.00180115	0.00359879	-0.00276299
 281	-0.000798676	0.0016229	0.00163995
 282	0.000948108	0.00180245	0.00155895
 283	0.0028693	0.000797773	-0.00179009
 284	-0.000736862	-0.000258825	0.00116494
 285	-0.00331247	0.000440617	0.00175187
 286	-0.00179498	0.00063043	0.00109336
 287	0.000466865	-0.00362577	0.00307727
 288	0.00858167	0.00122291	-0.00750299
 289	-0.00029517	0.0013542	-0.00073352
 290	-0.0045437	0.00619422	0.00276827

Bonds

   1	6	1	2
   2	7	1	3
   3	7	1	4
   4	3	2	5
   5	2	2	6
   6	5	5	7
   7	4	7	8
   8	1	7	12
   9	7	8	9
  10	7	8	10
  11	7	8	11
  12	6	13	14
  13	7	13	15
  14	7	13	16
  15	3	14	17
  16	2	14	18
  17	5	17	19
  18	4	19	20
  19	1	19	24
  20	7	20	21
  21	7	20	22
  22	7	20	23
  23	6	1	14
  24	6	25	26
  25	7	25	27
  26	7	25	28
  27	3	26	29
  28	2	26	30
  29	5	29	31
  30	4	31	32
  31	1	31	36
  32	7	32	33
  33	7	32	34
  34	7	32	35
  35	6	13	26
  36	6	37	38
  37	7	37	39
  38	7	37	40
  39	3	38	41
  40	2	38	42
  41	5	41	43
  42	4	43	44
  43	1	43	48
  44	7	44	45
  45	7	44	46
  46	7	44	47
  47	6	25	38
  48	6	49	50
  49	7	49	51
  50	7	49	52
  51	3	50	53
  52	2	50	54
  53	5	53	55
  54	4	55	56
  55	1	55	60
  56	7	56	57
  57	7	56	58
  58	7	56	59
  59	6	37	50
  60	6	61	62
  61	7	61	63
  62	7	61	64
  63	3	62	65
  64	2	62	66
  65	5	65	67
  66	4	67	68
  67	1	67	72
  68	7	68	69
  69	7	68	70
  70	7	68	71
  71	6	49	62
  72	6	73	74
  73	7	73	75
  74	7	73	76
  75	3	74	77
  76	2	74	78
  77	5	77	79
  78	4	79	80
  79	1	79	84
  80	7	80	81
  81	7	80	82
  82	7	80	83
  83	6	61	74
  84	6	85	86
  85	7	85	87
  86	7	85	88
  87	3	86	89
  88	2	86	90
  89	5	89	91
  90	4	91	92
  91	1	91	96
  92	7	92	93
  93	7	92	94
  94	7	92	95
  95	6	73	86
  96	6	97	98
  97	7	97	99
  98	7	97	100
  99	3	98	101
 100	2	98	102
 101	5	101	103
 102	4	103	104
 103	1	103	108
 104	7	104	105
 105	7	104	106
 106	7	104	107
 107	6	85	98
 108	6	109	110
 109	7	109	111
 110	7	109	112
 111	3	110	113
 112	2	110	114
 113	5	113	115
 114	4	115	116
 115	1	115	120
 116	7	116	117
 117	7	116	118
 118	7	116	119
 119	6	97	110
 120	6	121	122
 121	7	121	123
 122	7	121	124
 123	3	122	125
 124	2	122	126
 125	5	125	127
 126	4	127	128
 127	1	127	132
 128	7	128	129
 129	7	128	130
 130	7	128	131
 131	6	109	122
 132	6	133	134
 133	7	133	135
 134	7	133	136
 135	3	134	137
 136	2	134	138
 137	5	137	139
 138	4	139	140
 139	1	139	144
 140	7	140	141
 141	7	140	142
 142	7	140	143
 143	6	121	134
 144	6	145	146
 145	7	145	147
 146	7	145	148
 147	3	146	149
 148	2	146	150
 149	5	149	151
 150	4	151	152
 151	1	151	156
 152	7	152	153
 153	7	152	154
 154	7	152	155
 155	6	133	146
 156	6	157	158
 157	7	157	159
 158	7	157	160
 159	3	158	161
 160	2	158	162
 161	5	161	163
 162	4	163	164
 163	1	163	168
 164	7	164	165
 165	7	164	166
 166	7	164	167
 167	6	145	158
 168	6	169	170
 169	7	169	171
 170	7	169	172
 171	3	170	173
 172	2	170	174
 173	5	173	175
 174	4	175	176
 175	1	175	180
 176	7	176	177
 177	7	176	178
 178	7	176	179
 179	6	157	170
 180	6	181	182
 181	7	181	183
 182	7	181	184
 183	3	182	185
 184	2	182	186
 185	5	185	187
 186	4	187	188
 187	1	187	192
 188	7	188	189
 189	7	188	190
 190	7	188	191
 191	6	169	182
 192	6	193	194
 193	7	193	195
 194	7	193	196
 195	3	194	197
 196	2	194	198
 197	5	197	199
 198	4	199	200
 199	1	199	204
 200	7	200	201
 201	7	200	202
 202	7	200	203
 203	6	181	194
 204	6	205	206
 205	7	205	207
 206	7	205	208
 207	3	206	209
 208	2	206	210
 209	5	209	211
 210	4	211	212
 211	1	211	216
 212	7	212	213
 213	7	212	214
 214	7	212	215
 215	6	193	206
 216	6	217	218
 217	7	217	219
 218	7	217	220
 219	3	218	221
 220	2	218	222
 221	5	221	223
 222	4	223	224
 223	1	223	228
 224	7	224	225
 225	7	224	226
 226	7	224	227
 227	6	205	218
 228	6	229	230
 229	7	229	231
 230	7	229	232
 231	3	230	233
 232	2	230	234
 233	5	233	235
 234	4	235	236
 235	1	235	240
 236	7	236	237
 237	7	236	238
 238	7	236	239
 239	6	217	230
 240	6	241	242
 241	7	241	243
 242	7	241	244
 243	3	242	245
 244	2	242	246
 245	5	245	247
 246	4	247	248
 247	1	247	252
 248	7	248	249
 249	7	248	250
 250	7	248	251
 251	6	229	242
 252	6	253	254
 253	7	253	255
 254	7	253	256
 255	3	254	257
 256	2	254	258
 257	5	257	259
 258	4	259	260
 259	1	259	264
 260	7	260	261
 261	7	260	262
 262	7	260	263
 263	6	241	254
 264	6	265	266
 265	7	265	267
 266	7	265	268
 267	3	266	269
 268	2	266	270
 269	5	269	271
 270	4	271	272