pySIMM System Object

386 atoms
385 bonds
704 angles
919 dihedrals
32 impropers

6 atom types
7 bond types
12 angle types
10 dihedral types
1 improper types

-103.486240 103.486240 xlo xhi
-103.486240 103.486240 ylo yhi
-103.486240 103.486240 zlo zhi

Masses

   1	12.01	# c3
   2	1.008	# hc
   3	16.0	# os
   4	1.008	# h1
   5	12.01	# c
   6	16.0	# o

Pair Coeffs

   1	0.1094	3.3996695084235347	# c3
   2	0.0157	2.649532787749369	# hc
   3	0.17	3.0000123434657784	# os
   4	0.0157	2.471353044121301	# h1
   5	0.086	3.3996695084235347	# c
   6	0.21	2.959921901149463	# o

Bond Coeffs

   1	637.7	1.2183	# c,o
   2	330.6	1.0969	# c3,h1
   3	308.6	1.4316	# c3,os
   4	313.0	1.5241	# c,c3
   5	390.8	1.3584	# c,os
   6	300.9	1.5375	# c3,c3
   7	330.6	1.0969	# c3,hc

Angle Coeffs

   1	46.39	109.56	# c3,c3,h1
   2	46.93	108.77	# c,c3,hc
   3	68.0	107.97	# c3,c3,os
   4	68.89	110.72	# c3,c,os
   5	46.34	109.8	# c3,c3,hc
   6	63.28	115.98	# c,os,c3
   7	50.8	109.78	# h1,c3,os
   8	67.4	123.2	# c3,c,o
   9	39.4	107.58	# hc,c3,hc
  10	39.24	108.46	# h1,c3,h1
  11	75.32	123.25	# o,c,os
  12	62.86	111.51	# c3,c3,c3

Dihedral Coeffs

   1	1	0.0	2	180	# X,c,c3,X
   2	1	0.3833333333333333	3	0	# X,c3,os,X
   3	3	0.8	1	0	0.0	2	0	0.08	3	180	# hc,c3,c,o
   4	3	2.7	2	180	0.0	1	0	1.15	3	0	# c3,c,os,c3
   5	1	0.15555555555555556	3	0	# X,c3,c3,X
   6	2	2.7	2	180	1.4	1	180	# o,c,os,c3
   7	2	0.383	3	0	0.8	1	180	# c3,c3,os,c
   8	2	0.0	3	0	0.25	1	0	# hc,c3,c3,os
   9	1	0.16	3	0	# hc,c3,c3,c3
  10	3	0.18	3	0	0.25	2	180	0.2	1	180	# c3,c3,c3,c3

Improper Coeffs

   1	10.5	-1	2	# c,X,X,o

Atoms

   1	1	1	-0.003445	-6.70209	4.45301	9.49821
   2	1	1	0.299845	-7.93297	4.90908	10.3194
   3	1	2	0.023286	-7.00477	4.29621	8.45542
   4	1	2	-0.011958	-5.96139	5.25847	9.48383
   5	1	3	-0.518063	-8.65564	5.92226	9.59783
   6	1	4	0.011666	-7.62553	5.27113	11.3094
   7	1	5	0.843192	-8.167	7.18841	9.57652
   8	1	1	-0.399874	-9.05383	8.10113	8.76532
   9	1	2	0.119224	-9.73188	8.63139	9.44
  10	1	2	0.109051	-9.64228	7.52004	8.04962
  11	1	2	0.118031	-8.43227	8.82166	8.22406
  12	1	6	-0.590955	-7.15392	7.55832	10.1345
  13	1	1	-0.003445	-6.94687	1.9183	9.82686
  14	1	1	0.299845	-6.03409	3.15502	10.0278
  15	1	2	0.023286	-7.1881	1.8142	8.76234
  16	1	2	-0.011958	-7.90612	2.08626	10.3295
  17	1	3	-0.518063	-5.75791	3.27321	11.4371
  18	1	4	0.011666	-5.10076	2.99493	9.47524
  19	1	5	0.843192	-4.76918	4.10871	11.8555
  20	1	1	-0.399874	-4.65255	4.08692	13.3568
  21	1	2	0.119224	-4.34886	3.08706	13.6801
  22	1	2	0.109051	-5.62262	4.33492	13.7984
  23	1	2	0.118031	-3.90517	4.82319	13.6699
  24	1	6	-0.590955	-4.05171	4.78305	11.1469
  25	1	1	-0.003445	-5.01376	0.139948	9.75832
  26	1	1	0.299845	-6.37526	0.58377	10.3672
  27	1	2	0.023286	-4.24563	0.882001	10.0068
  28	1	2	-0.011958	-4.68641	-0.785773	10.245
  29	1	3	-0.518063	-7.4027	-0.392381	10.0952
  30	1	4	0.011666	-6.25408	0.683921	11.4535
  31	1	5	0.843192	-7.39067	-1.59462	10.7248
  32	1	1	-0.399874	-8.61178	-2.4038	10.3591
  33	1	2	0.119224	-8.41331	-3.46401	10.5433
  34	1	2	0.109051	-8.85905	-2.25206	9.30332
  35	1	2	0.118031	-9.45197	-2.07238	10.9766
  36	1	6	-0.590955	-6.5418	-1.974	11.5049
  37	1	1	-0.003445	-3.8962	-0.960623	7.69715
  38	1	1	0.299845	-5.05567	-0.0814376	8.22786
  39	1	2	0.023286	-4.03143	-1.1042	6.62088
  40	1	2	-0.011958	-3.98455	-1.96736	8.12837
  41	1	3	-0.518063	-4.95054	1.20739	7.59835
  42	1	4	0.011666	-6.00325	-0.574378	7.97598
  43	1	5	0.843192	-5.5756	1.42071	6.41612
  44	1	1	-0.399874	-5.2365	2.78444	5.87939
  45	1	2	0.119224	-5.74678	2.93663	4.92369
  46	1	2	0.109051	-4.15774	2.85843	5.73016
  47	1	2	0.118031	-5.54685	3.55067	6.59331
  48	1	6	-0.590955	-6.407	0.685303	5.92376
  49	1	1	-0.003445	-1.4692	-0.532345	6.84454
  50	1	1	0.299845	-2.49041	-0.37415	8.00969
  51	1	2	0.023286	-1.5798	-1.52972	6.40041
  52	1	2	-0.011958	-0.446437	-0.502858	7.23855
  53	1	3	-0.518063	-2.01835	-1.06987	9.18291
  54	1	4	0.011666	-2.58984	0.685598	8.25092
  55	1	5	0.843192	-1.01269	-0.536735	9.92267
  56	1	1	-0.399874	-0.744484	-1.36773	11.1521
  57	1	2	0.119224	-0.325662	-2.33208	10.8511
  58	1	2	0.109051	-1.6834	-1.53255	11.6902
  59	1	2	0.118031	-0.0360484	-0.840135	11.7988
  60	1	6	-0.590955	-0.429553	0.500451	9.68302
  61	1	1	-0.003445	-1.39431	2.01708	6.15994
  62	1	1	0.299845	-1.572	0.540981	5.71998
  63	1	2	0.023286	-1.57168	2.64109	5.28133
  64	1	2	-0.011958	-2.18309	2.28417	6.86683
  65	1	3	-0.518063	-2.85667	0.470793	5.06882
  66	1	4	0.011666	-0.782859	0.332866	4.98742
  67	1	5	0.843192	-3.00257	-0.326463	3.9769
  68	1	1	-0.399874	-4.40566	-0.24412	3.42869
  69	1	2	0.119224	-5.11023	-0.619084	4.17576
  70	1	2	0.109051	-4.48427	-0.853144	2.52313
  71	1	2	0.118031	-4.64695	0.797773	3.1952
  72	1	6	-0.590955	-2.12398	-0.998369	3.47612
  73	1	1	-0.003445	0.252232	3.88853	6.98426
  74	1	1	0.299845	-0.00449811	2.36707	6.76409
  75	1	2	0.023286	0.245475	4.41175	6.02289
  76	1	2	-0.011958	1.26108	4.02353	7.39632
  77	1	3	-0.518063	1.05808	1.8053	5.95333
  78	1	4	0.011666	0.0551082	1.88934	7.74545
  79	1	5	0.843192	1.2796	2.18549	4.66301
  80	1	1	-0.399874	2.44545	1.42933	4.07699
  81	1	2	0.119224	3.27341	1.42751	4.79277
  82	1	2	0.109051	2.76583	1.91132	3.14704
  83	1	2	0.118031	2.14084	0.39764	3.87525
  84	1	6	-0.590955	0.620234	2.99063	4.03468
  85	1	1	-0.003445	-0.575494	6.13657	7.91394
  86	1	1	0.299845	-0.767842	4.59771	7.9085
  87	1	2	0.023286	0.456123	6.36164	8.21211
  88	1	2	-0.011958	-0.688339	6.53129	6.89664
  89	1	3	-0.518063	-0.575969	4.16344	9.26511
  90	1	4	0.011666	-1.77917	4.38157	7.55066
  91	1	5	0.843192	-1.49054	3.35136	9.85532
  92	1	1	-0.399874	-1.18412	3.19422	11.3228
  93	1	2	0.119224	-1.05089	4.18728	11.7636
  94	1	2	0.109051	-0.26192	2.61732	11.4377
  95	1	2	0.118031	-2.01495	2.67983	11.8115
  96	1	6	-0.590955	-2.47772	2.88818	9.31761
  97	1	1	-0.003445	-3.05986	6.57714	8.6342
  98	1	1	0.299845	-1.55741	6.86152	8.87855
  99	1	2	0.023286	-3.6189	7.10156	9.41982
 100	1	2	-0.011958	-3.27493	5.51312	8.77786
 101	1	3	-0.518063	-1.384	8.29099	8.78555
 102	1	4	0.011666	-1.34107	6.53996	9.90574
 103	1	5	0.843192	-0.340034	8.87016	9.43483
 104	1	1	-0.399874	-0.383829	10.3729	9.29286
 105	1	2	0.119224	-1.36479	10.7368	9.61368
 106	1	2	0.109051	-0.219721	10.6458	8.24629
 107	1	2	0.118031	0.395334	10.8186	9.92006
 108	1	6	-0.590955	0.490424	8.28396	10.0988
 109	1	1	-0.003445	-5.13929	7.07236	7.26791
 110	1	1	0.299845	-3.59248	7.02109	7.2526
 111	1	2	0.023286	-5.47676	7.62343	8.15279
 112	1	2	-0.011958	-5.51833	6.04911	7.3695
 113	1	3	-0.518063	-3.18889	6.03184	6.27933
 114	1	4	0.011666	-3.18872	8.01522	7.02555
 115	1	5	0.843192	-2.83466	6.42888	5.03006
 116	1	1	-0.399874	-2.51182	5.25354	4.14952
 117	1	2	0.119224	-2.2187	5.60967	3.15728
 118	1	2	0.109051	-3.3919	4.60946	4.05673
 119	1	2	0.118031	-1.68243	4.69473	4.58135
 120	1	6	-0.590955	-2.69342	7.58392	4.6863
 121	1	1	-0.003445	-5.68295	9.27848	6.06331
 122	1	1	0.299845	-5.75485	7.73458	6.0164
 123	1	2	0.023286	-6.28853	9.63265	6.90574
 124	1	2	-0.011958	-4.65002	9.586	6.27091
 125	1	3	-0.518063	-7.13799	7.34589	5.92075
 126	1	4	0.011666	-5.21442	7.37939	5.1365
 127	1	5	0.843192	-7.41305	6.14067	5.35618
 128	1	1	-0.399874	-8.88407	5.82276	5.42565
 129	1	2	0.119224	-9.44597	6.59651	4.89464
 130	1	2	0.109051	-9.19971	5.79352	6.47236
 131	1	2	0.118031	-9.06491	4.84753	4.96201
 132	1	6	-0.590955	-6.59564	5.40837	4.83605
 133	1	1	-0.003445	-5.41169	9.36279	3.51864
 134	1	1	0.299845	-6.14586	9.95564	4.74317
 135	1	2	0.023286	-4.362	9.22767	3.78641
 136	1	2	-0.011958	-5.81557	8.36391	3.30605
 137	1	3	-0.518063	-5.83057	11.3601	4.79722
 138	1	4	0.011666	-7.22656	9.8167	4.6058
 139	1	5	0.843192	-6.55009	12.175	5.60868
 140	1	1	-0.399874	-6.08683	13.6048	5.47759
 141	1	2	0.119224	-6.26529	14.1305	6.4203
 142	1	2	0.109051	-6.64669	14.0866	4.67033
 143	1	2	0.118031	-5.01866	13.6287	5.23879
 144	1	6	-0.590955	-7.45889	11.8261	6.33551
 145	1	1	-0.003445	-4.68536	9.54033	1.08327
 146	1	1	0.299845	-5.49269	10.2058	2.22746
 147	1	2	0.023286	-4.67833	8.46129	1.26437
 148	1	2	-0.011958	-5.18754	9.68435	0.1183
 149	1	3	-0.518063	-6.88013	10.2769	1.85219
 150	1	4	0.011666	-5.09885	11.2125	2.41934
 151	1	5	0.843192	-7.24969	11.2394	0.969211
 152	1	1	-0.399874	-8.7293	11.1711	0.68719
 153	1	2	0.119224	-9.25999	10.8484	1.58841
 154	1	2	0.109051	-8.90763	10.452	-0.117594
 155	1	2	0.118031	-9.08259	12.1624	0.387173
 156	1	6	-0.590955	-6.51035	12.0768	0.492022
 157	1	1	-0.003445	-2.39868	9.35283	-0.123749
 158	1	1	0.299845	-3.23692	10.0787	0.961972
 159	1	2	0.023286	-2.84273	9.53937	-1.11005
 160	1	2	-0.011958	-1.409	9.81738	-0.162806
 161	1	3	-0.518063	-2.58552	9.94137	2.23945
 162	1	4	0.011666	-3.30497	11.1429	0.700235
 163	1	5	0.843192	-1.49113	10.6985	2.51803
 164	1	1	-0.399874	-1.00471	10.4683	3.9288
 165	1	2	0.119224	-0.684744	11.4229	4.35676
 166	1	2	0.109051	-0.163558	9.77045	3.91099
 167	1	2	0.118031	-1.81076	10.048	4.53858
 168	1	6	-0.590955	-1.01016	11.53	1.77541
 169	1	1	-0.003445	-1.03973	7.19957	-0.588437
 170	1	1	0.299845	-2.27424	7.82161	0.106195
 171	1	2	0.023286	-1.07003	7.47596	-1.64597
 172	1	2	-0.011958	-1.10676	6.10458	-0.561931
 173	1	3	-0.518063	-3.45809	7.21983	-0.454599
 174	1	4	0.011666	-2.22236	7.62329	1.18467
 175	1	5	0.843192	-3.85637	5.99927	-0.0157887
 176	1	1	-0.399874	-5.16879	5.61687	-0.652483
 177	1	2	0.119224	-5.89549	6.41799	-0.484828
 178	1	2	0.109051	-5.53543	4.68682	-0.20642
 179	1	2	0.118031	-5.02134	5.48429	-1.72812
 180	1	6	-0.590955	-3.29884	5.33261	0.831452
 181	1	1	-0.003445	1.53235	7.04176	-0.658544
 182	1	1	0.299845	0.298532	7.62644	0.0703029
 183	1	2	0.023286	2.4513	7.28716	-0.113942
 184	1	2	-0.011958	1.44141	5.95229	-0.617234
 185	1	3	-0.518063	0.264035	7.10467	1.4118
 186	1	4	0.011666	0.379992	8.71864	0.096211
 187	1	5	0.843192	1.17417	7.53145	2.32302
 188	1	1	-0.399874	0.932687	6.88314	3.66269
 189	1	2	0.119224	1.30244	5.85293	3.63748
 190	1	2	0.109051	-0.140494	6.87741	3.86671
 191	1	2	0.118031	1.45088	7.45218	4.44012
 192	1	6	-0.590955	1.99285	8.40922	2.13914
 193	1	1	-0.003445	2.85267	6.81596	-2.87294
 194	1	1	0.299845	1.70123	7.53084	-2.12362
 195	1	2	0.023286	3.81396	7.14982	-2.46198
 196	1	2	-0.011958	2.84705	7.12655	-3.92551
 197	1	3	-0.518063	2.00915	8.93838	-2.09283
 198	1	4	0.011666	0.786102	7.34008	-2.6934
 199	1	5	0.843192	1.02624	9.845	-2.33988
 200	1	1	-0.399874	1.50174	11.2482	-2.0676
 201	1	2	0.119224	1.58172	11.3864	-0.984335
 202	1	2	0.109051	0.781591	11.964	-2.47684
 203	1	2	0.118031	2.48239	11.4013	-2.52703
 204	1	6	-0.590955	-0.11925	9.57458	-2.63949
 205	1	1	-0.003445	3.6976	4.52512	-3.77721
 206	1	1	0.299845	2.78611	5.26793	-2.77011
 207	1	2	0.023286	3.41105	4.79712	-4.80002
 208	1	2	-0.011958	4.73654	4.85506	-3.6456
 209	1	3	-0.518063	1.42772	4.76602	-2.83704
 210	1	4	0.011666	3.1555	5.02158	-1.7683
 211	1	5	0.843192	0.627073	4.95966	-3.92112
 212	1	1	-0.399874	-0.749078	4.40526	-3.64541
 213	1	2	0.119224	-1.41609	4.66415	-4.47375
 214	1	2	0.109051	-1.13569	4.83087	-2.71442
 215	1	2	0.118031	-0.684563	3.31759	-3.54727
 216	1	6	-0.590955	0.893962	5.66304	-4.87192
 217	1	1	-0.003445	4.32772	2.48196	-2.3021
 218	1	1	0.299845	3.61095	2.9895	-3.58034
 219	1	2	0.023286	4.45008	3.29197	-1.57652
 220	1	2	-0.011958	5.35234	2.17206	-2.54817
 221	1	3	-0.518063	4.21308	2.31608	-4.69996
 222	1	4	0.011666	2.55376	2.70439	-3.52089
 223	1	5	0.843192	3.49344	2.21088	-5.84615
 224	1	1	-0.399874	4.24234	1.39583	-6.86957
 225	1	2	0.119224	3.74058	1.48391	-7.83823
 226	1	2	0.109051	4.25667	0.348933	-6.55194
 227	1	2	0.118031	5.26967	1.76426	-6.94914
 228	1	6	-0.590955	2.35276	2.59953	-5.99432
 229	1	1	-0.003445	3.41844	0.093717	-2.61741
 230	1	1	0.299845	3.57848	1.29374	-1.63998
 231	1	2	0.023286	2.71277	0.350001	-3.41773
 232	1	2	-0.011958	4.387	-0.0925014	-3.10031
 233	1	3	-0.518063	2.26191	1.72239	-1.23056
 234	1	4	0.011666	4.15131	0.9583	-0.765056
 235	1	5	0.843192	2.10248	2.56539	-0.175507
 236	1	1	-0.399874	0.641986	2.82055	0.111095
 237	1	2	0.119224	0.450226	2.64965	1.17568
 238	1	2	0.109051	0.0150168	2.14842	-0.483567
 239	1	2	0.118031	0.397005	3.85601	-0.139439
 240	1	6	-0.590955	3.00708	3.05277	0.472351
 241	1	1	-0.003445	2.89113	-2.40207	-2.93927
 242	1	1	0.299845	2.95552	-1.21681	-1.93876
 243	1	2	0.023286	1.98585	-2.29284	-3.55133
 244	1	2	-0.011958	3.73198	-2.3474	-3.64069
 245	1	3	-0.518063	1.6189	-1.01261	-1.44977
 246	1	4	0.011666	3.66651	-1.44491	-1.13419
 247	1	5	0.843192	1.26412	-1.484	-0.227532
 248	1	1	-0.399874	-0.203909	-1.26193	0.0349138
 249	1	2	0.119224	-0.753631	-1.32848	-0.909915
 250	1	2	0.109051	-0.355028	-0.275383	0.480541
 251	1	2	0.118031	-0.567568	-2.03858	0.715122
 252	1	6	-0.590955	2.03183	-1.99546	0.565234
 253	1	1	-0.003445	4.28343	-4.40443	-1.98477
 254	1	1	0.299845	2.88345	-3.78084	-2.22324
 255	1	2	0.023286	4.82747	-3.73605	-1.30492
 256	1	2	-0.011958	4.1475	-5.33733	-1.42276
 257	1	3	-0.518063	2.07119	-4.72806	-2.93736
 258	1	4	0.011666	2.44953	-3.65835	-1.2263
 259	1	5	0.843192	0.72975	-4.73748	-2.71817
 260	1	1	-0.399874	0.0684153	-5.88356	-3.44258
 261	1	2	0.119224	-0.952644	-6.009	-3.0686
 262	1	2	0.109051	0.636727	-6.80295	-3.26791
 263	1	2	0.118031	0.0478199	-5.66689	-4.51273
 264	1	6	-0.590955	0.133262	-3.97277	-1.98783
 265	1	1	-0.003445	4.58856	-5.48866	-4.39432
 266	1	1	0.299845	5.20288	-4.67524	-3.21398
 267	1	2	0.023286	3.81644	-4.85002	-4.84065
 268	1	2	-0.011958	5.32081	-5.62291	-5.19692
 269	1	3	-0.518063	6.37092	-5.30564	-2.6536
 270	1	4	0.011666	5.50748	-3.70132	-3.61791
 271	1	5	0.843192	7.52121	-5.4083	-3.36771
 272	1	1	-0.399874	8.67274	-5.74276	-2.45266
 273	1	2	0.119224	9.60025	-5.77822	-3.03292
 274	1	2	0.109051	8.49722	-6.70507	-1.96329
 275	1	2	0.118031	8.75056	-4.95993	-1.69104
 276	1	6	-0.590955	7.65591	-5.12815	-4.53986
 277	1	1	-0.003445	4.91246	-8.08186	-4.13027
 278	1	1	0.299845	3.95318	-6.86217	-4.04436
 279	1	2	0.023286	5.72421	-7.94843	-3.40394
 280	1	2	-0.011958	5.39383	-8.14045	-5.1131
 281	1	3	-0.518063	2.78343	-7.03068	-4.88207
 282	1	4	0.011666	3.59012	-6.81289	-3.01222
 283	1	5	0.843192	2.86053	-7.12585	-6.23628
 284	1	1	-0.399874	1.49732	-6.92796	-6.84643
 285	1	2	0.119224	0.775214	-7.59159	-6.36221
 286	1	2	0.109051	1.53989	-7.13465	-7.91861
 287	1	2	0.118031	1.19604	-5.88726	-6.69192
 288	1	6	-0.590955	3.86667	-7.29383	-6.89309
 289	1	1	-0.003445	5.08145	-10.6586	-3.9933
 290	1	1	0.299845	4.17504	-9.4062	-3.81748
 291	1	2	0.023286	6.11965	-10.3343	-4.13809
 292	1	2	-0.011958	5.09057	-11.249	-3.0695
 293	1	3	-0.518063	3.72544	-9.28579	-2.45747
 294	1	4	0.011666	3.30304	-9.48456	-4.47957
 295	1	5	0.843192	2.73699	-10.0948	-2.00464
 296	1	1	-0.399874	2.32879	-9.68261	-0.613413
 297	1	2	0.119224	1.72022	-8.77548	-0.678708
 298	1	2	0.109051	3.22311	-9.47319	-0.0179165
 299	1	2	0.118031	1.75151	-10.4865	-0.147314
 300	1	6	-0.590955	2.18087	-10.9617	-2.6478
 301	1	1	-0.003445	5.82479	-12.0158	-6.07933
 302	1	1	0.299845	4.64085	-11.5271	-5.20843
 303	1	2	0.023286	6.51279	-12.623	-5.47997
 304	1	2	-0.011958	6.40389	-11.1361	-6.38931
 305	1	3	-0.518063	3.78662	-12.6185	-4.78397
 306	1	4	0.011666	4.05484	-10.872	-5.85799
 307	1	5	0.843192	4.23034	-13.6162	-3.96549
 308	1	1	-0.399874	3.11196	-14.5453	-3.5575
 309	1	2	0.119224	2.81156	-14.2987	-2.53448
 310	1	2	0.109051	3.46464	-15.581	-3.59804
 311	1	2	0.118031	2.25252	-14.4216	-4.22378
 312	1	6	-0.590955	5.37847	-13.7762	-3.6044
 313	1	1	-0.003445	4.59389	-11.9944	-8.39072
 314	1	1	0.299845	5.43248	-12.8063	-7.35351
 315	1	2	0.023286	4.70905	-10.9231	-8.19747
 316	1	2	-0.011958	5.00611	-12.1523	-9.39492
 317	1	3	-0.518063	6.70195	-13.1609	-7.93559
 318	1	4	0.011666	4.90081	-13.7222	-7.062
 319	1	5	0.843192	6.77786	-14.1097	-8.9007
 320	1	1	-0.399874	8.21472	-14.3297	-9.31332
 321	1	2	0.119224	8.48896	-13.5858	-10.0671
 322	1	2	0.109051	8.33323	-15.3387	-9.72008
 323	1	2	0.118031	8.86647	-14.2089	-8.4414
 324	1	6	-0.590955	5.83247	-14.7168	-9.36413
 325	1	1	-0.003445	2.38496	-12.126	-9.76845
 326	1	1	0.299845	3.09227	-12.3952	-8.4097
 327	1	2	0.023286	3.07025	-12.3469	-10.5928
 328	1	2	-0.011958	1.5867	-12.873	-9.86951
 329	1	3	-0.518063	2.40445	-11.6802	-7.36574
 330	1	4	0.011666	3.04522	-13.4769	-8.22534
 331	1	5	0.843192	1.23873	-12.1869	-6.87996
 332	1	1	-0.399874	0.624717	-11.2472	-5.87284
 333	1	2	0.119224	1.38805	-10.941	-5.15249
 334	1	2	0.109051	-0.185828	-11.7593	-5.34451
 335	1	2	0.118031	0.232391	-10.3681	-6.39122
 336	1	6	-0.590955	0.715353	-13.2178	-7.24957
 337	1	1	-0.003445	2.62001	-9.47018	-9.83899
 338	1	1	0.299845	1.72215	-10.7315	-9.96309
 339	1	2	0.023286	1.95347	-8.61245	-9.69245
 340	1	2	-0.011958	3.20108	-9.52763	-8.91436
 341	1	3	-0.518063	1.11621	-10.7727	-11.2673
 342	1	4	0.011666	0.954879	-10.64	-9.18484
 343	1	5	0.843192	-0.230586	-10.6466	-11.3799
 344	1	1	-0.399874	-0.680945	-11.044	-12.7628
 345	1	2	0.119224	-0.251776	-12.0216	-13.0055
 346	1	2	0.109051	-0.329904	-10.3065	-13.4903
 347	1	2	0.118031	-1.77318	-11.1101	-12.7857
 348	1	6	-0.590955	-0.989624	-10.3157	-10.4907
 349	1	1	-0.003445	4.62842	-8.09222	-10.6259
 350	1	1	0.299845	3.5398	-9.12263	-11.0406
 351	1	2	0.023286	4.15519	-7.11931	-10.442
 352	1	2	-0.011958	5.06317	-8.40943	-9.66863
 353	1	3	-0.518063	4.18243	-10.3119	-11.5425
 354	1	4	0.011666	2.9033	-8.66623	-11.8088
 355	1	5	0.843192	4.06884	-10.6159	-12.866
 356	1	1	-0.399874	4.9117	-11.8138	-13.2189
 357	1	2	0.119224	5.94359	-11.6327	-12.9029
 358	1	2	0.109051	4.88038	-11.9732	-14.3022
 359	1	2	0.118031	4.52301	-12.6966	-12.7036
 360	1	6	-0.590955	3.50716	-9.93959	-13.7042
 361	1	1	-0.003445	5.3846	-7.26973	-12.9877
 362	1	1	0.299845	5.79013	-7.92158	-11.6376
 363	1	2	0.023286	5.25764	-6.19105	-12.8324
 364	1	2	-0.011958	4.38205	-7.61522	-13.2567
 365	1	3	-0.518063	6.74679	-7.03861	-11.033
 366	1	4	0.011666	6.20367	-8.9178	-11.807
 367	1	5	0.843192	7.88418	-7.53847	-10.4883
 368	1	1	-0.399874	8.76097	-6.42877	-9.95673
 369	1	2	0.119224	8.20225	-5.84495	-9.21998
 370	1	2	0.109051	9.05176	-5.77233	-10.7825
 371	1	2	0.118031	9.65763	-6.85588	-9.49967
 372	1	6	-0.590955	8.15926	-8.71974	-10.3977
 373	1	1	-0.003445	7.53669	-8.47394	-14.1339
 374	1	1	0.299845	6.30321	-7.52075	-14.2345
 375	1	2	0.023286	7.50957	-9.18722	-14.9665
 376	1	2	-0.011958	7.58734	-9.07024	-13.2225
 377	1	3	-0.518063	6.71898	-6.26881	-14.8328
 378	1	4	0.011666	5.64273	-7.99977	-14.9689
 379	1	5	0.843192	7.59296	-5.43619	-14.2022
 380	1	1	-0.399874	8.0241	-4.30597	-15.1012
 381	1	2	0.119224	7.33614	-3.46511	-14.9824
 382	1	2	0.109051	8.02384	-4.64175	-16.1428
 383	1	2	0.118031	9.03695	-4.00237	-14.8167
 384	1	6	-0.590955	8.09172	-5.62015	-13.1133
 385	1	4	0	-8.61246	4.0649	10.4709
 386	1	2	0	8.48805	-7.9361	-14.2191

Velocities

   1	-0.000298052	-0.000128216	-3.5765e-06
   2	-0.000143701	0.000717868	-0.000213159
   3	-0.000873097	-0.00127672	9.91385e-05
   4	-0.000603468	-4.36717e-05	-0.000981914
   5	0.00037389	0.000754068	-0.000693283
   6	-0.000601979	0.000579139	0.000530099
   7	0.000618704	0.000696563	-0.000882178
   8	0.000656951	0.000903325	0.000249966
   9	0.000612236	0.000423341	0.000598282
  10	0.000757548	0.00163246	-0.000300375
  11	0.000618368	0.00151388	0.000987016
  12	0.000816817	0.000105139	-0.00138672
  13	0.000149971	-8.17278e-05	0.00122656
  14	-0.000521114	0.000323637	0.000962829
  15	-0.00026464	-3.21461e-05	0.00139681
  16	-3.63731e-05	-0.000357653	0.00163936
  17	-0.000774988	0.000664659	0.00124852
  18	-0.000216569	0.000282031	0.00139021
  19	-0.000880827	0.000733521	0.00127779
  20	-0.000417138	-0.000248265	0.0012326
  21	-0.00095258	-0.000803245	0.000545506
  22	-0.000321648	-0.000248845	0.00182149
  23	-6.1462e-05	-0.00099416	0.00160553
  24	-0.000743268	0.000723965	0.0014227
  25	0.000419125	0.00013696	0.00019587
  26	0.000752652	8.25996e-05	0.000924217
  27	0.000825531	-0.000238666	0.000498504
  28	6.3758e-05	-0.000300383	-0.000506752
  29	0.000936904	5.78566e-05	0.00070436
  30	0.00102636	-0.000290498	0.00091949
  31	0.000427393	0.000481793	0.00148044
  32	0.00118671	-0.000141693	-0.000268679
  33	0.00126059	6.75008e-05	0.000670546
  34	0.00318256	-0.000732939	-0.000776647
  35	3.10753e-05	-1.08666e-05	-0.00200035
  36	-0.000731214	0.00124698	0.00298079
  37	-0.000228332	0.00124118	-0.000863201
  38	-3.01116e-05	0.000972314	2.61372e-05
  39	-0.000321164	0.00226671	-0.000990217
  40	-0.000318193	0.000829003	-0.00192932
  41	-0.000697298	0.00118006	0.000322152
  42	-4.95916e-05	0.00095008	0.000208825
  43	0.000668425	0.00022671	-0.000593377
  44	-0.000324746	0.000398794	-0.000734247
  45	-0.00134618	0.00028513	-0.000217576
  46	-0.000478997	0.000722238	-0.00177218
  47	7.34745e-05	0.000253717	-0.000393085
  48	0.0025887	-0.00124161	-0.00184627
  49	0.000216721	0.000299368	-0.000214485
  50	-7.38525e-05	0.000589869	-0.000495653
  51	0.000279129	0.000213673	-6.43661e-05
  52	0.000146391	0.000295204	7.35935e-05
  53	-0.000573194	0.000166628	-0.00053866
  54	0.000241878	0.00058815	-0.000336026
  55	-0.000685377	-8.72601e-05	-0.000165356
  56	-0.000377808	-0.000842403	-0.000719135
  57	-0.00082829	-0.000824125	-0.00145534
  58	-0.000131531	-0.000833796	-0.000277344
  59	0.000157354	-0.00143288	-0.000831048
  60	-0.000778163	4.15389e-05	0.000301438
  61	0.000225321	9.19571e-05	-0.000256231
  62	0.000665099	0.000146714	-0.000400109
  63	-3.90932e-05	0.000499579	2.21254e-05
  64	0.000267803	-0.000273383	-2.4261e-05
  65	0.00105927	4.42852e-05	-0.00102318
  66	0.000967579	0.000185874	-9.68561e-05
  67	0.00120278	-0.00115434	-3.30789e-05
  68	0.00162585	-0.00115021	-0.000826892
  69	0.00150574	-0.00325424	-0.00195546
  70	0.00261972	0.000755616	-0.00217201
  71	0.000956594	-0.000812581	0.0012906
  72	0.00127822	-0.00226768	0.00114244
  73	-0.000198545	-0.000162402	-0.000177909
  74	0.000237908	-0.000101199	-0.000289189
  75	-0.00106247	-9.53082e-05	-0.000135595
  76	-1.68178e-05	0.000237609	-0.00078471
  77	0.000276061	0.000166267	-0.000443218
  78	0.000338036	-0.000243034	-0.000340899
  79	3.02806e-06	0.000104544	-0.000503067
  80	-0.000108668	0.000131852	-0.000713397
  81	0.000203872	0.000544446	-0.00108954
  82	-0.000591472	-0.000118676	-0.001021
  83	3.99387e-05	-3.9725e-06	-0.000266391
  84	-0.000284411	-6.83991e-05	-0.000445933
  85	-0.00017478	-0.000975626	0.000798976
  86	-0.000147807	-0.000906016	0.000444498
  87	-0.000220846	-0.00117093	0.00105978
  88	0.000148605	-0.000871368	0.000824255
  89	0.000226856	-0.00149119	0.000232441
  90	-0.000202355	-0.000884274	0.00057016
  91	-0.000369743	-0.000616745	0.000621006
  92	0.00051445	-0.00149373	0.000396926
  93	-0.000569347	-0.00172267	0.0011761
  94	0.00137658	-0.000365103	-0.000566064
  95	0.00144684	-0.00309249	0.000354775
  96	-0.000991115	0.000340977	0.00105467
  97	-0.000374746	-0.000801551	0.000240219
  98	-0.000362038	-0.00100015	0.000566255
  99	-0.000393022	-0.000726018	0.000172611
 100	-0.000570166	-0.000778278	0.000183152
 101	-0.000296137	-0.00105344	0.000322705
 102	-0.000504696	-0.000882382	0.000633559
 103	0.000172629	-0.000973678	-0.000459911
 104	8.85244e-05	-0.00102064	-0.00107525
 105	0.000202281	-0.000969354	-0.000871168
 106	-0.000290206	-0.00143217	-0.00125233
 107	0.00029135	-0.000760276	-0.00150362
 108	0.00044556	-0.000735401	-0.000745792
 109	-0.000169404	-0.000580722	-0.000318864
 110	-0.000110752	-0.000478388	0.000167312
 111	-0.000304062	-0.0010718	-0.000108167
 112	-8.17567e-05	-0.000669941	-0.00090014
 113	0.000447289	-7.2145e-05	-3.37263e-05
 114	-0.000222513	-0.000350813	0.000657217
 115	3.29951e-06	0.000627218	-9.85973e-06
 116	0.000353342	0.00107593	-0.000623387
 117	-0.00175327	0.00184475	-0.00100916
 118	0.00111117	-6.88357e-05	0.000565218
 119	0.0018146	0.00203787	-0.00213643
 120	-0.00122337	0.000723778	0.000241286
 121	8.57379e-05	9.03131e-05	6.69529e-05
 122	-0.000270949	2.76744e-05	-5.06667e-05
 123	0.000257911	0.000321499	0.000127665
 124	0.000207873	-0.000289271	7.41384e-05
 125	-0.000401105	0.000234004	5.99995e-05
 126	-0.000497862	5.33066e-05	-0.000206886
 127	-0.000675736	0.000393978	-1.2339e-06
 128	-0.000626299	0.00033958	-0.000230357
 129	-0.000725533	0.00108146	0.000888812
 130	-0.000553992	-0.00107038	-0.000207113
 131	-0.000757652	0.00100563	-0.0015313
 132	-0.000662399	0.000323095	-0.000260322
 133	0.000200334	0.00100967	-1.45593e-05
 134	0.00020724	0.000498755	0.000190421
 135	0.000329592	0.00179044	-0.000208303
 136	0.000919534	0.000719751	7.36406e-05
 137	0.000421085	0.000430292	0.000593747
 138	0.00021685	0.00060894	2.24306e-05
 139	-0.000696054	0.000510559	-0.00044043
 140	-5.40599e-05	0.000471601	0.000350461
 141	-0.0014112	0.000426798	0.000130069
 142	0.00136039	0.000700133	-0.000491617
 143	0.000318824	0.000159093	0.0020555
 144	-0.00185649	0.000635988	-0.00197465
 145	-0.000620536	0.000943725	-0.000209812
 146	-0.000512407	0.000982967	-6.48696e-05
 147	-0.000823037	0.000912361	-0.000384956
 148	-0.000667208	0.00107612	-0.000172031
 149	-0.000677917	0.000834643	0.000193287
 150	-0.000614328	0.00108377	-0.000240643
 151	-0.000879266	0.000739583	1.76528e-05
 152	-0.000878509	0.0004948	-0.000251642
 153	-0.00125542	0.00196593	3.88923e-05
 154	-0.000859542	-0.000637908	0.000742454
 155	-0.000632022	0.000129856	-0.00188815
 156	-0.00104653	0.000696117	-6.78238e-05
 157	-0.000556655	-8.74222e-05	-0.000215727
 158	-0.000395417	0.000478196	-0.000430598
 159	-0.000725323	-0.000585445	-0.000244763
 160	-0.000602133	-3.94085e-05	-0.000610935
 161	-0.000278418	0.00060649	-0.000481951
 162	-9.94654e-05	0.00042216	-0.000672994
 163	0.000110953	0.00035692	-0.000847995
 164	0.000282975	8.25007e-05	-0.000870762
 165	0.00201924	-0.000247549	-0.00136678
 166	-0.000816486	-0.00122989	-0.000968689
 167	-0.000121166	0.00156945	-0.000443063
 168	0.000136121	0.000106686	-0.000868538
 169	-0.000118458	-0.000469017	0.0010369
 170	-0.000356218	-3.89122e-05	0.000481997
 171	1.46913e-05	-0.00134041	0.000832327
 172	6.82819e-05	-0.000476724	0.0018389
 173	-0.00030926	-0.0002156	0.000597168
 174	-0.000621499	0.000437025	0.000584183
 175	0.000415905	-0.000783132	-0.000167317
 176	0.000464532	-0.000924607	-0.000257084
 177	0.000331961	-0.00109382	-0.000189825
 178	0.00064288	-0.00105331	-0.000328633
 179	0.000544272	-0.000801063	-0.000258176
 180	0.00121191	-0.00136693	-0.00128918
 181	0.000258577	0.000568481	0.00105234
 182	-0.00021071	8.89551e-05	0.000864047
 183	-5.74853e-05	0.00129236	0.001316
 184	0.00101456	0.000498648	0.00123887
 185	1.88063e-05	0.000112025	0.000891255
 186	-0.00075575	0.000139035	0.000753491
 187	-0.00108974	0.00165624	0.00122617
 188	0.000366387	-2.40842e-05	0.000695049
 189	-0.00158742	-0.000684465	-0.00171751
 190	0.000728628	0.00157799	0.00263846
 191	0.00290937	-0.00231498	0.000697028
 192	-0.00294214	0.00348721	0.00171109
 193	5.0262e-05	0.000101976	0.000443141
 194	0.000281982	0.000221285	0.000862244
 195	0.0002388	0.000134124	-3.63029e-05
 196	-0.000441688	0.000233274	0.000479842
 197	0.000425835	0.000194323	0.000399645
 198	0.000180558	0.000189671	0.00100412
 199	0.000213153	0.000225163	0.00163811
 200	0.000802627	0.000370092	-0.00033209
 201	0.00211387	0.00151318	-0.000567073
 202	0.000520114	0.000114726	-0.000260827
 203	0.000311162	-0.000353443	-0.00166966
 204	-0.000259143	0.000147872	0.00319262
 205	-0.000297238	4.10547e-05	-0.000270972
 206	0.000162394	8.23398e-05	0.000161296
 207	-0.000424363	0.000118128	-0.000228517
 208	-0.000162788	-0.000304975	-0.000616093
 209	0.000129983	0.000321602	0.000191877
 210	0.000319237	-0.000102777	5.98953e-05
 211	0.000908465	-0.000551913	-0.000540252
 212	0.000904147	-0.000876215	-0.00149829
 213	0.00135818	-0.000611729	-0.00175457
 214	0.000388144	-0.00137707	-0.00148595
 215	0.00115678	-0.000933586	-0.00205038
 216	0.00176454	-0.00165547	-0.00111579
 217	-0.00067078	-0.000493535	-0.000818248
 218	-0.000648231	-4.26114e-05	-0.000698128
 219	-0.000364153	-0.000633671	-0.00077616
 220	-0.000732502	-0.000699427	-0.00102534
 221	-0.000458071	0.000374645	-0.000879098
 222	-0.000728249	1.39449e-05	-0.000780493
 223	-0.00087115	-0.000561272	-0.000706849
 224	9.13825e-05	0.000664439	-0.00106326
 225	-0.000240072	0.000172993	-0.000992081
 226	0.00161631	0.000594826	-0.001427
 227	-0.00043664	0.00204084	-0.00131756
 228	-0.00134841	-0.00225543	-0.000206901
 229	-0.000750858	-0.000702807	-0.000118188
 230	-0.00075455	-0.00036152	-0.000670691
 231	-0.000594165	-0.00104982	-0.000395575
 232	-0.000624881	-0.00083581	0.000118488
 233	-0.000693776	-0.000175186	-0.000916674
 234	-0.000838573	-0.000161958	-0.000563009
 235	-0.000127728	-0.00101195	-0.000189307
 236	7.41982e-05	0.00010216	-0.00011679
 237	0.000184897	0.00119669	7.42481e-05
 238	-0.000473863	-0.000167506	0.000622989
 239	0.000603119	-6.40235e-05	-0.0010899
 240	0.000198379	-0.00279209	0.000584798
 241	0.00050696	-0.000764241	0.000819593
 242	-0.000603056	-0.000478145	0.000528154
 243	0.00109861	-0.00102688	-6.90273e-05
 244	0.00110131	-0.000566318	0.00155223
 245	-0.0007573	-0.000739772	0.000583152
 246	-0.000622507	0.00015351	0.000737803
 247	-0.00060429	-0.00058413	0.000664325
 248	-0.000203842	0.000348551	0.00190112
 249	-0.0012732	-0.000937032	0.00259944
 250	0.000619639	0.00115686	0.000450878
 251	0.000142708	0.00168351	0.00362516
 252	-0.000266677	-0.000644578	0.000593555
 253	0.00021495	-0.00143632	0.000322144
 254	0.000407245	-0.000835696	0.000724674
 255	0.000362439	-0.0022165	0.000962292
 256	-6.95627e-05	-0.00191578	-0.000483882
 257	0.000128835	-0.000490104	0.000605562
 258	0.000512308	-0.000925466	0.000800808
 259	-3.86434e-05	0.000985763	-0.00050384
 260	-0.000589321	0.00118253	-0.00023562
 261	-0.000730441	0.0019635	-0.000378539
 262	-0.00113562	0.000954425	0.00018984
 263	-0.000195949	0.000835838	-0.000305908
 264	0.000119396	0.00210786	-0.00148203
 265	0.000499812	8.12515e-05	-0.000581765
 266	0.000162906	-0.000596757	0.000114027
 267	0.00110955	0.000382525	-0.00116215
 268	0.00147425	-0.000417409	0.000307055
 269	8.56052e-05	-0.0014606	-0.000704528
 270	0.000250001	-0.000290034	0.000921516
 271	0.000862431	0.00315236	-3.25047e-06
 272	4.44956e-05	-0.00241249	-0.000956605
 273	3.49767e-05	-0.00371436	-0.000872161
 274	-0.0027321	-0.00311845	-0.00322943
 275	0.00218091	-0.00458279	0.000996929