pySIMM System Object

470 atoms
469 bonds
858 angles
1122 dihedrals
39 impropers

6 atom types
7 bond types
12 angle types
10 dihedral types
1 improper types

-110.753275 110.753275 xlo xhi
-110.753275 110.753275 ylo yhi
-110.753275 110.753275 zlo zhi

Masses

   1	12.01	# c3
   2	1.008	# hc
   3	16.0	# os
   4	1.008	# h1
   5	12.01	# c
   6	16.0	# o

Pair Coeffs

   1	0.1094	3.3996695084235347	# c3
   2	0.0157	2.649532787749369	# hc
   3	0.17	3.0000123434657784	# os
   4	0.0157	2.471353044121301	# h1
   5	0.086	3.3996695084235347	# c
   6	0.21	2.959921901149463	# o

Bond Coeffs

   1	637.7	1.2183	# c,o
   2	330.6	1.0969	# c3,h1
   3	308.6	1.4316	# c3,os
   4	313.0	1.5241	# c,c3
   5	390.8	1.3584	# c,os
   6	300.9	1.5375	# c3,c3
   7	330.6	1.0969	# c3,hc

Angle Coeffs

   1	46.39	109.56	# c3,c3,h1
   2	46.93	108.77	# c,c3,hc
   3	68.0	107.97	# c3,c3,os
   4	68.89	110.72	# c3,c,os
   5	46.34	109.8	# c3,c3,hc
   6	63.28	115.98	# c,os,c3
   7	50.8	109.78	# h1,c3,os
   8	67.4	123.2	# c3,c,o
   9	39.4	107.58	# hc,c3,hc
  10	39.24	108.46	# h1,c3,h1
  11	75.32	123.25	# o,c,os
  12	62.86	111.51	# c3,c3,c3

Dihedral Coeffs

   1	1	0.0	2	180	# X,c,c3,X
   2	1	0.3833333333333333	3	0	# X,c3,os,X
   3	3	0.8	1	0	0.0	2	0	0.08	3	180	# hc,c3,c,o
   4	3	2.7	2	180	0.0	1	0	1.15	3	0	# c3,c,os,c3
   5	1	0.15555555555555556	3	0	# X,c3,c3,X
   6	2	2.7	2	180	1.4	1	180	# o,c,os,c3
   7	2	0.383	3	0	0.8	1	180	# c3,c3,os,c
   8	2	0.0	3	0	0.25	1	0	# hc,c3,c3,os
   9	1	0.16	3	0	# hc,c3,c3,c3
  10	3	0.18	3	0	0.25	2	180	0.2	1	180	# c3,c3,c3,c3

Improper Coeffs

   1	10.5	-1	2	# c,X,X,o

Atoms

   1	1	1	-0.003445	5.67693	-8.01888	9.09978
   2	1	1	0.299845	6.8834	-8.75616	9.73179
   3	1	2	0.023286	5.90506	-7.80078	8.04976
   4	1	2	-0.011958	4.79811	-8.67083	9.09257
   5	1	3	-0.518063	7.13038	-10.0017	9.05143
   6	1	4	0.011666	6.7117	-8.93601	10.8012
   7	1	5	0.843192	6.30223	-11.0509	9.29829
   8	1	1	-0.399874	6.74535	-12.2835	8.54974
   9	1	2	0.119224	7.69961	-12.6274	8.95859
  10	1	2	0.109051	6.87345	-12.0487	7.49065
  11	1	2	0.118031	5.99144	-13.0703	8.66086
  12	1	6	-0.590955	5.32691	-11.0193	10.0218
  13	1	1	-0.003445	6.44949	-5.6484	9.7356
  14	1	1	0.299845	5.31194	-6.69605	9.82249
  15	1	2	0.023286	6.7986	-5.56738	8.69921
  16	1	2	-0.011958	7.31012	-6.00503	10.3165
  17	1	3	-0.518063	5.06331	-6.96404	11.2172
  18	1	4	0.011666	4.41656	-6.28305	9.34855
  19	1	5	0.843192	3.90078	-7.57526	11.5755
  20	1	1	-0.399874	3.87335	-7.84804	13.0581
  21	1	2	0.119224	4.07415	-6.92175	13.6043
  22	1	2	0.109051	4.64317	-8.5876	13.2995
  23	1	2	0.118031	2.88919	-8.23895	13.3361
  24	1	6	-0.590955	2.9686	-7.81891	10.8356
  25	1	1	-0.003445	4.90639	-3.53021	9.49971
  26	1	1	0.299845	6.05673	-4.24549	10.2638
  27	1	2	0.023286	3.96809	-4.05567	9.69202
  28	1	2	-0.011958	4.76254	-2.53298	9.93091
  29	1	3	-0.518063	7.2435	-3.43282	10.1755
  30	1	4	0.011666	5.76589	-4.3547	11.3171
  31	1	5	0.843192	7.32721	-2.30819	10.933
  32	1	1	-0.399874	8.60413	-1.56042	10.6452
  33	1	2	0.119224	8.63195	-0.64785	11.2493
  34	1	2	0.109051	8.64181	-1.30221	9.58235
  35	1	2	0.118031	9.45795	-2.19704	10.8945
  36	1	6	-0.590955	6.49559	-1.93275	11.7346
  37	1	1	-0.003445	4.32384	-2.23435	7.32821
  38	1	1	0.299845	5.14261	-3.38597	7.97243
  39	1	2	0.023286	4.54136	-2.19342	6.2591
  40	1	2	-0.011958	4.69647	-1.2777	7.71857
  41	1	3	-0.518063	4.77307	-4.62805	7.34312
  42	1	4	0.011666	6.2081	-3.18175	7.80522
  43	1	5	0.843192	5.20403	-4.88425	6.08151
  44	1	1	-0.399874	4.66791	-6.19907	5.58093
  45	1	2	0.119224	3.8027	-6.5054	6.17742
  46	1	2	0.109051	5.45301	-6.95426	5.66054
  47	1	2	0.118031	4.37121	-6.09346	4.53336
  48	1	6	-0.590955	6.00279	-4.20445	5.46866
  49	1	1	-0.003445	1.90838	-1.87078	6.39159
  50	1	1	0.299845	2.79561	-2.34122	7.5811
  51	1	2	0.023286	2.29963	-0.919917	6.00996
  52	1	2	-0.011958	0.902763	-1.6375	6.7619
  53	1	3	-0.518063	2.53651	-1.49692	8.72131
  54	1	4	0.011666	2.54293	-3.37413	7.82396
  55	1	5	0.843192	1.43059	-1.70192	9.47873
  56	1	1	-0.399874	1.37451	-0.718258	10.6207
  57	1	2	0.119224	1.37561	0.299256	10.219
  58	1	2	0.109051	2.25403	-0.854163	11.2584
  59	1	2	0.118031	0.463257	-0.886341	11.2033
  60	1	6	-0.590955	0.601124	-2.56919	9.2962
  61	1	1	-0.003445	1.22878	-4.29413	5.59432
  62	1	1	0.299845	1.74889	-2.88252	5.21302
  63	1	2	0.023286	1.15381	-4.88767	4.67675
  64	1	2	-0.011958	1.97557	-4.79692	6.21732
  65	1	3	-0.518063	3.00405	-3.07538	4.53472
  66	1	4	0.011666	1.02936	-2.45715	4.50133
  67	1	5	0.843192	3.42385	-2.13331	3.65
  68	1	1	-0.399874	4.74471	-2.50962	3.02918
  69	1	2	0.119224	4.85622	-2.00344	2.06538
  70	1	2	0.109051	4.79295	-3.59375	2.88931
  71	1	2	0.118031	5.55361	-2.2077	3.70122
  72	1	6	-0.590955	2.81987	-1.11716	3.36772
  73	1	1	-0.003445	-0.768342	-5.70838	6.53688
  74	1	1	0.299845	-0.147085	-4.29703	6.3178
  75	1	2	0.023286	-0.907216	-6.21095	5.57605
  76	1	2	-0.011958	-1.7703	-5.59985	6.97277
  77	1	3	-0.518063	-1.07135	-3.42552	5.62042
  78	1	4	0.011666	0.00802729	-3.86508	7.30986
  79	1	5	0.843192	-1.5276	-3.6935	4.36408
  80	1	1	-0.399874	-2.39814	-2.56651	3.86576
  81	1	2	0.119224	-1.77993	-1.67529	3.71837
  82	1	2	0.109051	-3.17653	-2.35109	4.604
  83	1	2	0.118031	-2.85617	-2.85252	2.91379
  84	1	6	-0.590955	-1.28821	-4.69121	3.71515
  85	1	1	-0.003445	-0.412088	-8.10494	7.38803
  86	1	1	0.299845	0.0794562	-6.64134	7.4351
  87	1	2	0.023286	-1.45963	-8.12564	7.71252
  88	1	2	-0.011958	-0.412113	-8.4645	6.35174
  89	1	3	-0.518063	-0.0417301	-6.21455	8.80306
  90	1	4	0.011666	1.11474	-6.62601	7.08167
  91	1	5	0.843192	1.03185	-5.66739	9.42347
  92	1	1	-0.399874	0.733596	-5.36641	10.87
  93	1	2	0.119224	0.592299	-6.30992	11.4057
  94	1	2	0.109051	-0.181954	-4.76978	10.9303
  95	1	2	0.118031	1.569	-4.80986	11.3024
  96	1	6	-0.590955	2.10637	-5.46489	8.89535
  97	1	1	-0.003445	1.95783	-9.08585	8.01231
  98	1	1	0.299845	0.426578	-9.06553	8.28143
  99	1	2	0.023286	2.40697	-9.74057	8.77006
 100	1	2	-0.011958	2.39434	-8.09538	8.18395
 101	1	3	-0.518063	-0.0505579	-10.4112	8.07897
 102	1	4	0.011666	0.288917	-8.78087	9.33316
 103	1	5	0.843192	-1.22807	-10.7889	8.64104
 104	1	1	-0.399874	-1.57816	-12.2014	8.24365
 105	1	2	0.119224	-0.707192	-12.8468	8.39144
 106	1	2	0.109051	-1.86674	-12.216	7.18835
 107	1	2	0.118031	-2.41026	-12.5548	8.86087
 108	1	6	-0.590955	-1.91775	-10.1069	9.3713
 109	1	1	-0.003445	3.88006	-9.93349	6.53654
 110	1	1	0.299845	2.36346	-9.59618	6.60735
 111	1	2	0.023286	4.17945	-10.4244	7.46961
 112	1	2	-0.011958	4.4511	-9.00015	6.48777
 113	1	3	-0.518063	2.06968	-8.54316	5.66894
 114	1	4	0.011666	1.7677	-10.4907	6.39997
 115	1	5	0.843192	1.72968	-8.85604	4.39211
 116	1	1	-0.399874	1.3712	-7.60637	3.62944
 117	1	2	0.119224	1.28357	-7.84242	2.56849
 118	1	2	0.109051	2.16276	-6.86318	3.75446
 119	1	2	0.118031	0.422965	-7.20305	3.98876
 120	1	6	-0.590955	1.53668	-9.98757	3.98733
 121	1	1	-0.003445	3.65939	-12.2736	5.50389
 122	1	1	0.299845	4.28629	-10.8664	5.36494
 123	1	2	0.023286	3.87587	-12.657	6.50857
 124	1	2	-0.011958	2.56817	-12.1977	5.42975
 125	1	3	-0.518063	5.71405	-11.0545	5.37697
 126	1	4	0.011666	3.9808	-10.4236	4.41024
 127	1	5	0.843192	6.51406	-10.0896	4.85759
 128	1	1	-0.399874	7.96151	-10.5072	4.90813
 129	1	2	0.119224	8.05511	-11.5347	4.54269
 130	1	2	0.109051	8.31764	-10.4535	5.94123
 131	1	2	0.118031	8.55277	-9.83684	4.27617
 132	1	6	-0.590955	6.13278	-9.07069	4.32236
 133	1	1	-0.003445	3.98773	-12.7657	2.99522
 134	1	1	0.299845	4.13985	-13.2986	4.44235
 135	1	2	0.023286	3.10224	-12.1257	2.9564
 136	1	2	-0.011958	4.83398	-12.1043	2.76622
 137	1	3	-0.518063	3.32889	-14.48	4.59693
 138	1	4	0.011666	5.19711	-13.5476	4.60363
 139	1	5	0.843192	3.59267	-15.3223	5.62773
 140	1	1	-0.399874	2.5911	-16.4489	5.66363
 141	1	2	0.119224	2.81384	-17.1064	6.50989
 142	1	2	0.109051	2.64744	-17.0145	4.72808
 143	1	2	0.118031	1.58566	-16.0317	5.77295
 144	1	6	-0.590955	4.49993	-15.1988	6.42719
 145	1	1	-0.003445	3.58329	-13.3194	0.50101
 146	1	1	0.299845	3.90607	-13.8799	1.91431
 147	1	2	0.023286	4.26353	-12.4892	0.293229
 148	1	2	-0.011958	3.83228	-14.0718	-0.257215
 149	1	3	-0.518063	5.19669	-14.5241	1.86956
 150	1	4	0.011666	3.13228	-14.6081	2.18946
 151	1	5	0.843192	5.28406	-15.7661	1.3238
 152	1	1	-0.399874	6.71597	-16.2389	1.29502
 153	1	2	0.119224	7.15163	-16.1332	2.2929
 154	1	2	0.109051	7.28073	-15.6272	0.585011
 155	1	2	0.118031	6.74434	-17.2885	0.98591
 156	1	6	-0.590955	4.34955	-16.4263	0.915804
 157	1	1	-0.003445	1.93389	-11.5651	-0.488873
 158	1	1	0.299845	2.09658	-12.9149	0.262131
 159	1	2	0.023286	2.56336	-11.5733	-1.3881
 160	1	2	-0.011958	0.910004	-11.5173	-0.867937
 161	1	3	-0.518063	1.37636	-12.8914	1.5101
 162	1	4	0.011666	1.65873	-13.702	-0.366042
 163	1	5	0.843192	0.0207498	-12.8719	1.5326
 164	1	1	-0.399874	-0.480528	-12.8692	2.955
 165	1	2	0.119224	-0.129299	-11.9625	3.45463
 166	1	2	0.109051	-0.0791995	-13.7411	3.48024
 167	1	2	0.118031	-1.57434	-12.9018	2.95631
 168	1	6	-0.590955	-0.7027	-12.8735	0.559755
 169	1	1	-0.003445	1.61647	-9.02074	-0.25324
 170	1	1	0.299845	2.25558	-10.2975	0.354416
 171	1	2	0.023286	1.95333	-8.9334	-1.29267
 172	1	2	-0.011958	1.99437	-8.12908	0.260604
 173	1	3	-0.518063	3.6907	-10.1337	0.334391
 174	1	4	0.011666	1.90134	-10.4304	1.38368
 175	1	5	0.843192	4.30443	-9.29762	1.21206
 176	1	1	-0.399874	5.78698	-9.24318	0.942011
 177	1	2	0.119224	6.22458	-10.2267	1.13269
 178	1	2	0.109051	6.24697	-8.49947	1.60189
 179	1	2	0.118031	5.9543	-8.96508	-0.102773
 180	1	6	-0.590955	3.75458	-8.64666	2.07472
 181	1	1	-0.003445	-0.489436	-7.65223	-0.752168
 182	1	1	0.299845	0.0648642	-8.99359	-0.204775
 183	1	2	0.023286	-1.54711	-7.53644	-0.487161
 184	1	2	-0.011958	0.0378637	-6.83944	-0.239695
 185	1	3	-0.518063	-0.357755	-9.14643	1.16199
 186	1	4	0.011666	-0.33887	-9.82466	-0.789112
 187	1	5	0.843192	-1.65261	-9.48738	1.40468
 188	1	1	-0.399874	-1.95043	-9.50105	2.88435
 189	1	2	0.119224	-2.71595	-10.2557	3.08806
 190	1	2	0.109051	-2.313	-8.51245	3.18219
 191	1	2	0.118031	-1.04279	-9.73568	3.44555
 192	1	6	-0.590955	-2.48627	-9.73305	0.555898
 193	1	1	-0.003445	-0.720958	-6.07504	-2.782
 194	1	1	0.299845	-0.356611	-7.49614	-2.29176
 195	1	2	0.023286	-1.7133	-5.80641	-2.39811
 196	1	2	-0.011958	-0.808749	-6.07282	-3.87494
 197	1	3	-0.518063	-1.2758	-8.40333	-2.92633
 198	1	4	0.011666	0.671879	-7.7021	-2.60929
 199	1	5	0.843192	-0.833754	-9.62478	-3.32281
 200	1	1	-0.399874	-1.96491	-10.4677	-3.85486
 201	1	2	0.119224	-2.63553	-9.84536	-4.45499
 202	1	2	0.109051	-2.52122	-10.8858	-3.00908
 203	1	2	0.118031	-1.55885	-11.2775	-4.46832
 204	1	6	-0.590955	0.317736	-10.0097	-3.24156
 205	1	1	-0.003445	-0.0138538	-3.57379	-2.81644
 206	1	1	0.299845	0.305353	-5.00807	-2.32093
 207	1	2	0.023286	0.08908	-3.51624	-3.90579
 208	1	2	-0.011958	-1.06303	-3.33688	-2.59667
 209	1	3	-0.518063	1.66188	-5.39313	-2.65377
 210	1	4	0.011666	0.249547	-4.98024	-1.22945
 211	1	5	0.843192	2.08244	-5.53504	-3.94443
 212	1	1	-0.399874	3.51029	-6.02061	-3.98016
 213	1	2	0.119224	4.12714	-5.38752	-3.33579
 214	1	2	0.109051	3.88304	-5.97125	-5.00865
 215	1	2	0.118031	3.54623	-7.05461	-3.62374
 216	1	6	-0.590955	1.38966	-5.42502	-4.93365
 217	1	1	-0.003445	0.490146	-2.25781	-0.651539
 218	1	1	0.299845	0.89754	-2.52752	-2.12677
 219	1	2	0.023286	-0.0250861	-3.12521	-0.226735
 220	1	2	-0.011958	-0.253762	-1.45303	-0.616155
 221	1	3	-0.518063	0.818401	-1.27902	-2.84496
 222	1	4	0.011666	1.92982	-2.89834	-2.14894
 223	1	5	0.843192	1.5605	-1.14267	-3.97609
 224	1	1	-0.399874	1.34635	0.209325	-4.60956
 225	1	2	0.119224	1.72829	0.189222	-5.6354
 226	1	2	0.109051	1.8798	0.968947	-4.03153
 227	1	2	0.118031	0.276867	0.44135	-4.6217
 228	1	6	-0.590955	2.37032	-1.95232	-4.38189
 229	1	1	-0.003445	2.45369	-0.632785	-0.156429
 230	1	1	0.299845	1.69999	-1.91831	0.260151
 231	1	2	0.023286	3.35984	-0.557709	0.457113
 232	1	2	-0.011958	2.79565	-0.754067	-1.18986
 233	1	3	-0.518063	2.65832	-2.99709	0.189099
 234	1	4	0.011666	1.35947	-1.80918	1.295
 235	1	5	0.843192	2.40849	-4.15432	0.855525
 236	1	1	-0.399874	3.47924	-5.18067	0.581561
 237	1	2	0.119224	3.40067	-5.9909	1.31446
 238	1	2	0.109051	4.46632	-4.71355	0.651643
 239	1	2	0.118031	3.34094	-5.57978	-0.427092
 240	1	6	-0.590955	1.46371	-4.34951	1.5906
 241	1	1	-0.003445	2.23817	1.90559	-0.789458
 242	1	1	0.299845	1.64143	0.691075	-0.0266326
 243	1	2	0.023286	1.82414	1.92943	-1.80505
 244	1	2	-0.011958	1.87883	2.82229	-0.304582
 245	1	3	-0.518063	1.59391	1.10188	1.35193
 246	1	4	0.011666	0.625719	0.554588	-0.416678
 247	1	5	0.843192	0.607886	0.639959	2.1652
 248	1	1	-0.399874	0.693311	1.26314	3.53716
 249	1	2	0.119224	0.637733	0.467937	4.28559
 250	1	2	0.109051	-0.136721	1.96321	3.66855
 251	1	2	0.118031	1.64538	1.79207	3.64784
 252	1	6	-0.590955	-0.325242	-0.0534093	1.80948
 253	1	1	-0.003445	4.41199	3.34154	-0.930174
 254	1	1	0.299845	3.78588	1.9268	-0.867971
 255	1	2	0.023286	4.28713	3.83156	0.0441024
 256	1	2	-0.011958	5.496	3.23385	-1.0647
 257	1	3	-0.518063	4.15001	1.20552	-2.06412
 258	1	4	0.011666	4.189	1.43349	0.0251804
 259	1	5	0.843192	5.3724	0.615423	-2.13037
 260	1	1	-0.399874	5.55921	-0.103738	-3.44378
 261	1	2	0.119224	4.61342	-0.557659	-3.75571
 262	1	2	0.109051	6.31282	-0.888671	-3.32458
 263	1	2	0.118031	5.88523	0.609945	-4.20561
 264	1	6	-0.590955	6.1986	0.62247	-1.24082
 265	1	1	-0.003445	4.90054	5.25485	-2.54472
 266	1	1	0.299845	3.83472	4.25006	-2.04507
 267	1	2	0.023286	5.76829	4.68601	-2.89782
 268	1	2	-0.011958	4.52515	5.76696	-3.43845
 269	1	3	-0.518063	2.7118	4.96241	-1.47921
 270	1	4	0.011666	3.51193	3.63121	-2.89245
 271	1	5	0.843192	1.89096	5.70671	-2.26528
 272	1	1	-0.399874	0.86985	6.42949	-1.42281
 273	1	2	0.119224	1.38601	7.10436	-0.733184
 274	1	2	0.109051	0.291781	5.70049	-0.846759
 275	1	2	0.118031	0.198701	7.00413	-2.06998
 276	1	6	-0.590955	1.99801	5.85225	-3.46423
 277	1	1	-0.003445	5.24552	7.73844	-2.02154
 278	1	1	0.299845	5.31595	6.29782	-1.46642
 279	1	2	0.023286	4.21006	7.95237	-2.31635
 280	1	2	-0.011958	5.83868	7.78519	-2.93956
 281	1	3	-0.518063	6.61704	5.99389	-0.907666
 282	1	4	0.011666	4.60009	6.25249	-0.637362
 283	1	5	0.843192	7.75443	5.9865	-1.65645
 284	1	1	-0.399874	8.94864	5.62604	-0.80879
 285	1	2	0.119224	9.22689	6.4905	-0.199077
 286	1	2	0.109051	9.78408	5.34214	-1.45705
 287	1	2	0.118031	8.6915	4.78796	-0.153003
 288	1	6	-0.590955	7.82209	6.21002	-2.84735
 289	1	1	-0.003445	5.56176	10.2544	-1.59285
 290	1	1	0.299845	5.71429	8.82033	-1.0212
 291	1	2	0.023286	4.50393	10.4372	-1.81105
 292	1	2	-0.011958	5.84844	10.999	-0.841014
 293	1	3	-0.518063	4.89845	8.71314	0.161202
 294	1	4	0.011666	6.76766	8.62929	-0.778619
 295	1	5	0.843192	5.41322	9.18174	1.32948
 296	1	1	-0.399874	4.43028	9.01069	2.4612
 297	1	2	0.119224	3.52858	9.59216	2.2485
 298	1	2	0.109051	4.88545	9.36329	3.39285
 299	1	2	0.118031	4.16859	7.9528	2.55547
 300	1	6	-0.590955	6.5344	9.62394	1.47484
 301	1	1	-0.003445	6.16332	11.8308	-3.56684
 302	1	1	0.299845	6.37696	10.4557	-2.89328
 303	1	2	0.023286	6.5125	12.6566	-2.93531
 304	1	2	-0.011958	5.0832	11.9789	-3.68733
 305	1	3	-0.518063	7.76663	10.1361	-2.66929
 306	1	4	0.011666	5.99674	9.73624	-3.62538
 307	1	5	0.843192	8.55839	10.8781	-1.84778
 308	1	1	-0.399874	9.94118	10.2797	-1.75607
 309	1	2	0.119224	10.6795	11.0861	-1.7245
 310	1	2	0.109051	10.1318	9.63816	-2.62305
 311	1	2	0.118031	10.0068	9.68302	-0.841617
 312	1	6	-0.590955	8.22889	11.8872	-1.26026
 313	1	1	-0.003445	6.20711	12.9406	-5.89037
 314	1	1	0.299845	6.8429	11.8782	-4.95539
 315	1	2	0.023286	5.66888	13.6858	-5.29129
 316	1	2	-0.011958	6.99885	13.507	-6.39541
 317	1	3	-0.518063	8.22766	12.21	-4.73657
 318	1	4	0.011666	6.76014	10.8856	-5.41723
 319	1	5	0.843192	9.14822	11.8192	-5.65465
 320	1	1	-0.399874	10.5381	12.245	-5.24947
 321	1	2	0.119224	10.6271	12.2287	-4.15928
 322	1	2	0.109051	10.7207	13.2608	-5.61216
 323	1	2	0.118031	11.2672	11.5572	-5.68947
 324	1	6	-0.590955	8.91962	11.1322	-6.62923
 325	1	1	-0.003445	3.99116	11.6302	-6.39186
 326	1	1	0.299845	5.23595	12.3665	-6.96192
 327	1	2	0.023286	4.27894	10.6298	-6.0428
 328	1	2	-0.011958	3.59361	12.1724	-5.52467
 329	1	3	-0.518063	5.92684	11.4301	-7.81208
 330	1	4	0.011666	4.88428	13.2143	-7.56354
 331	1	5	0.843192	6.8277	11.9052	-8.71729
 332	1	1	-0.399874	7.42646	10.7857	-9.53422
 333	1	2	0.119224	6.62829	10.2368	-10.0407
 334	1	2	0.109051	7.97067	10.1061	-8.87069
 335	1	2	0.118031	8.11781	11.2067	-10.2708
 336	1	6	-0.590955	7.01656	13.0823	-8.95619
 337	1	1	-0.003445	1.68764	10.6001	-7.09952
 338	1	1	0.299845	2.88847	11.5135	-7.47419
 339	1	2	0.023286	1.05561	10.4965	-7.98961
 340	1	2	-0.011958	2.06203	9.58862	-6.89382
 341	1	3	-0.518063	2.43344	12.8558	-7.73931
 342	1	4	0.011666	3.35399	11.0973	-8.37776
 343	1	5	0.843192	1.7893	13.1294	-8.90317
 344	1	1	-0.399874	1.49034	14.6036	-9.0077
 345	1	2	0.119224	0.888094	14.9152	-8.14937
 346	1	2	0.109051	0.946855	14.8026	-9.93694
 347	1	2	0.118031	2.43391	15.1585	-9.00727
 348	1	6	-0.590955	1.4854	12.3137	-9.74893
 349	1	1	-0.003445	-0.70575	10.778	-6.1015
 350	1	1	0.299845	0.810233	11.0867	-5.91038
 351	1	2	0.023286	-1.25877	11.0859	-5.21498
 352	1	2	-0.011958	-1.0677	11.4481	-6.89313
 353	1	3	-0.518063	1.27955	10.4472	-4.70597
 354	1	4	0.011666	0.92064	12.1747	-5.81607
 355	1	5	0.843192	0.886881	10.9529	-3.50467
 356	1	1	-0.399874	1.40942	10.1237	-2.35824
 357	1	2	0.119224	1.79884	9.17078	-2.73014
 358	1	2	0.109051	0.588272	9.93302	-1.65903
 359	1	2	0.118031	2.20089	10.6793	-1.85023
 360	1	6	-0.590955	0.222654	11.9587	-3.35099
 361	1	1	-0.003445	-1.72217	8.40943	-5.39837
 362	1	1	0.299845	-1.04041	9.3047	-6.48505
 363	1	2	0.023286	-1.05459	8.38925	-4.52909
 364	1	2	-0.011958	-1.71922	7.37461	-5.76245
 365	1	3	-0.518063	-1.80629	9.37647	-7.69778
 366	1	4	0.011666	-0.0927971	8.80689	-6.7192
 367	1	5	0.843192	-1.79298	8.33461	-8.56527
 368	1	1	-0.399874	-2.55672	8.68455	-9.81785
 369	1	2	0.119224	-3.55319	9.04983	-9.54793
 370	1	2	0.109051	-2.64267	7.80158	-10.4586
 371	1	2	0.118031	-2.01912	9.47595	-10.35
 372	1	6	-0.590955	-1.22507	7.27684	-8.38464
 373	1	1	-0.003445	-4.31155	8.47744	-5.93339
 374	1	1	0.299845	-3.17279	8.71564	-4.90077
 375	1	2	0.023286	-4.08098	8.959	-6.88419
 376	1	2	-0.011958	-4.343	7.40091	-6.1467
 377	1	3	-0.518063	-3.28764	10.0355	-4.34355
 378	1	4	0.011666	-3.37932	7.99903	-4.09439
 379	1	5	0.843192	-2.77435	10.2778	-3.10909
 380	1	1	-0.399874	-3.15215	11.6594	-2.64103
 381	1	2	0.119224	-2.57624	12.3991	-3.20492
 382	1	2	0.109051	-2.93348	11.756	-1.57303
 383	1	2	0.118031	-4.22103	11.8194	-2.81575
 384	1	6	-0.590955	-2.14286	9.48045	-2.44174
 385	1	1	-0.003445	-6.90861	8.25818	-6.19099
 386	1	1	0.299845	-5.72212	8.92443	-5.43062
 387	1	2	0.023286	-7.65202	9.01281	-6.46418
 388	1	2	-0.011958	-6.54353	7.84097	-7.13871
 389	1	3	-0.518063	-5.85125	10.3655	-5.44712
 390	1	4	0.011666	-5.79617	8.62041	-4.37882
 391	1	5	0.843192	-5.75572	11.0868	-6.59667
 392	1	1	-0.399874	-5.74461	12.5681	-6.30498
 393	1	2	0.119224	-5.04933	13.0603	-6.9923
 394	1	2	0.109051	-5.4177	12.7438	-5.27467
 395	1	2	0.118031	-6.75177	12.9706	-6.44209
 396	1	6	-0.590955	-5.70989	10.6311	-7.72165
 397	1	1	-0.003445	-8.60485	7.63998	-4.28457
 398	1	1	0.299845	-7.57291	7.13502	-5.3451
 399	1	2	0.023286	-8.68998	6.88362	-3.49534
 400	1	2	-0.011958	-8.16954	8.51194	-3.78007
 401	1	3	-0.518063	-8.12038	6.13594	-6.22656
 402	1	4	0.011666	-6.7526	6.65856	-4.79155
 403	1	5	0.843192	-8.3735	4.89625	-5.72506
 404	1	1	-0.399874	-8.8753	3.95645	-6.79199
 405	1	2	0.119224	-8.06429	3.7505	-7.49626
 406	1	2	0.109051	-9.71228	4.41804	-7.32686
 407	1	2	0.118031	-9.20573	3.02333	-6.3246
 408	1	6	-0.590955	-8.23941	4.57437	-4.56107
 409	1	1	-0.003445	-10.9951	6.8584	-5.1058
 410	1	1	0.299845	-10.0496	8.02522	-4.72406
 411	1	2	0.023286	-10.6358	6.37704	-6.01356
 412	1	2	-0.011958	-10.9381	6.09894	-4.31659
 413	1	3	-0.518063	-10.0247	8.96849	-5.81059
 414	1	4	0.011666	-10.5057	8.47536	-3.83385
 415	1	5	0.843192	-10.3375	10.2677	-5.56492
 416	1	1	-0.399874	-10.2982	11.0828	-6.83254
 417	1	2	0.119224	-10.8952	10.5819	-7.60066
 418	1	2	0.109051	-9.2632	11.1696	-7.17637
 419	1	2	0.118031	-10.7114	12.0773	-6.6351
 420	1	6	-0.590955	-10.6367	10.7301	-4.48237
 421	1	1	-0.003445	-13.5736	6.43061	-4.63621
 422	1	1	0.299845	-12.4705	7.35324	-5.25371
 423	1	2	0.023286	-13.1235	5.69821	-3.95429
 424	1	2	-0.011958	-14.1961	7.06685	-3.99424
 425	1	3	-0.518063	-12.7989	7.83865	-6.58522
 426	1	4	0.011666	-12.5276	8.24352	-4.61494
 427	1	5	0.843192	-12.5895	7.14642	-7.74505
 428	1	1	-0.399874	-13.177	7.88334	-8.92436
 429	1	2	0.119224	-12.4403	7.9092	-9.73273
 430	1	2	0.109051	-13.4491	8.90512	-8.64155
 431	1	2	0.118031	-14.0718	7.34921	-9.26111
 432	1	6	-0.590955	-12.0805	6.05003	-7.85623
 433	1	1	-0.003445	-15.8616	5.24038	-5.01137
 434	1	1	0.299845	-14.5082	5.6973	-5.62643
 435	1	2	0.023286	-15.748	5.01635	-3.94453
 436	1	2	-0.011958	-16.1575	4.29986	-5.48692
 437	1	3	-0.518063	-13.8152	4.53681	-6.10948
 438	1	4	0.011666	-14.7263	6.3721	-6.46078
 439	1	5	0.843192	-14.2125	4.02294	-7.30478
 440	1	1	-0.399874	-13.4299	2.78437	-7.65701
 441	1	2	0.119224	-12.6006	3.07219	-8.3098
 442	1	2	0.109051	-14.0873	2.07768	-8.17227
 443	1	2	0.118031	-13.0341	2.32499	-6.74609
 444	1	6	-0.590955	-15.1271	4.45761	-7.98072
 445	1	1	-0.003445	-18.4369	5.7657	-5.47053
 446	1	1	0.299845	-16.9808	6.28273	-5.27893
 447	1	2	0.023286	-19.0874	6.64944	-5.50542
 448	1	2	-0.011958	-18.4916	5.33127	-6.47774
 449	1	3	-0.518063	-16.9097	7.42994	-4.40101
 450	1	4	0.011666	-16.7589	6.69191	-6.272
 451	1	5	0.843192	-17.0959	7.35237	-3.05866
 452	1	1	-0.399874	-17.0118	8.72397	-2.4342
 453	1	2	0.119224	-17.2598	8.65746	-1.36998
 454	1	2	0.109051	-17.7176	9.39468	-2.93476
 455	1	2	0.118031	-15.9974	9.11533	-2.55562
 456	1	6	-0.590955	-17.2529	6.33136	-2.42435
 457	1	1	-0.003445	-18.4804	3.31515	-4.54821
 458	1	1	0.299845	-19.082	4.7441	-4.49349
 459	1	2	0.023286	-19.1763	2.57031	-4.14318
 460	1	2	-0.011958	-17.5611	3.24946	-3.9551
 461	1	3	-0.518063	-20.445	4.66955	-4.95325
 462	1	4	0.011666	-19.0641	5.12496	-3.46716
 463	1	5	0.843192	-21.421	4.19028	-4.14338
 464	1	1	-0.399874	-22.7557	4.20759	-4.85153
 465	1	2	0.119224	-23.1185	3.18105	-4.9541
 466	1	2	0.109051	-22.6505	4.65456	-5.84631
 467	1	2	0.118031	-23.4648	4.79708	-4.26337
 468	1	6	-0.590955	-21.2743	3.83246	-2.99283
 469	1	4	0	7.77676	-8.12737	9.63776
 470	1	2	0	-18.2488	3.02333	-5.5809

Velocities

   1	-0.000395973	0.000164247	-0.00073734
   2	-0.000816088	-0.000304101	-0.000530518
   3	0.000594324	0.00059946	-0.000417783
   4	-0.000605561	0.000588991	-0.00196899
   5	-0.00149814	-0.000692578	0.000121621
   6	-0.000343514	0.000773495	-0.000208975
   7	-0.000948952	-0.000804414	0.000692152
   8	-0.000384795	-0.000197817	-2.42895e-05
   9	-0.000110866	6.73345e-05	-0.000366729
  10	-0.000435424	0.00101573	0.000244792
  11	0.000140062	-0.000880199	-0.000919238
  12	-0.000799903	-0.00103657	0.00073688
  13	0.000113916	0.000369122	-0.000133922
  14	4.68716e-05	0.000252306	-0.000239229
  15	0.000291518	0.000577556	-6.07321e-06
  16	0.000120551	0.000319576	-0.000101791
  17	0.000309878	0.000112761	-0.000264106
  18	-4.29555e-05	0.000453277	-5.27257e-05
  19	0.000656918	-0.00047196	-0.000243342
  20	0.000277208	0.000492571	-4.50423e-05
  21	-4.98272e-05	0.000920412	-0.000623756
  22	0.000327279	0.000776696	0.000717908
  23	0.000200389	0.000542783	-0.000170394
  24	0.000832669	-0.00112262	-0.000413747
  25	0.000277697	0.000676146	-0.000315232
  26	1.54422e-05	0.000376619	-0.000156916
  27	0.000102701	0.00112729	-0.000212579
  28	0.00072069	0.000854453	-0.000545986
  29	0.000130374	0.000241398	-4.87173e-05
  30	-0.000188049	0.000454724	-0.000202211
  31	0.000463412	-4.43303e-05	0.000133735
  32	0.000563517	-0.000399395	-3.92757e-05
  33	0.000918335	-0.00026388	-0.000130353
  34	0.000484798	-0.000513954	-7.31996e-05
  35	0.000461955	-0.000579905	-6.48895e-05
  36	0.000671776	0.000103559	0.000353597
  37	7.91957e-05	0.000298573	-0.000425312
  38	0.000288331	0.000440329	-0.000373493
  39	3.26651e-05	0.000206568	-0.000440706
  40	3.04268e-05	0.000378767	-0.000529146
  41	0.000251004	0.000114413	-0.000417282
  42	0.000270369	0.00051286	-0.000400972
  43	0.000288972	0.000254013	-0.000291803
  44	0.000104623	0.000304447	-0.000321765
  45	-0.000315974	0.00075903	-0.000817287
  46	-0.000234424	6.40447e-06	0.000219077
  47	0.000755899	0.000202039	-0.000562672
  48	0.00012219	0.000324678	-0.000433159
  49	4.77078e-05	-1.87096e-05	-0.000282949
  50	9.53502e-05	0.000171281	-0.000314211
  51	-0.000151875	-4.04483e-05	-0.000383107
  52	-1.24822e-05	-0.000138518	-0.000294688
  53	1.18986e-05	1.4182e-05	-0.000210347
  54	0.000295108	0.000122813	-0.00028807
  55	-0.00039316	0.000346782	-0.000715447
  56	-0.000164686	-0.00025183	-0.000212452
  57	-0.000338858	-2.98493e-05	0.000320922
  58	4.6818e-05	-0.000544388	-0.000567715
  59	2.8957e-05	-0.000617112	-4.2895e-06
  60	-0.000763402	0.00076958	-0.00114235
  61	4.18413e-05	-0.000116778	0.00018325
  62	3.83713e-05	-0.000197553	-0.000115
  63	5.56617e-05	-0.00031091	0.000317558
  64	4.23995e-05	2.88209e-05	0.000298862
  65	4.6618e-05	-0.000284134	-0.000131652
  66	1.13965e-06	-0.000386628	-0.000180239
  67	-2.13746e-05	-0.000224564	-0.000143303
  68	-0.000105728	-0.000115766	-0.000308833
  69	-0.000129576	0.000185438	-0.000160339
  70	-0.000146909	-8.21473e-05	-0.000665734
  71	-1.24909e-05	-0.000382517	-0.000300754
  72	-9.12038e-05	-0.000242993	9.37041e-06
  73	0.000118112	7.41553e-05	0.000318921
  74	3.57637e-05	6.81914e-05	0.000149024
  75	0.000104252	7.19254e-05	0.000314248
  76	0.000123676	8.01965e-05	0.000321239
  77	-2.63181e-05	-9.9766e-05	0.00010432
  78	2.82024e-05	0.000145804	0.00011433
  79	1.79064e-05	-0.000450446	4.85299e-05
  80	-0.000124564	-0.000537963	-0.000204668
  81	-0.000213068	-0.000575832	-0.000153662
  82	-0.000363673	-0.000599974	-0.000397492
  83	0.000137265	-0.000834274	-0.000264545
  84	0.000497939	-0.000214905	0.000147456
  85	-2.43401e-05	0.000138172	4.62695e-05
  86	0.000138459	9.75413e-05	0.000242486
  87	7.16935e-06	0.000221161	0.000136394
  88	-0.000149459	0.000303131	-9.94091e-06
  89	0.000156879	-2.22462e-05	0.000294103
  90	0.000171834	7.29235e-05	0.000289885
  91	-0.000171871	0.000726333	0.000177752
  92	-0.000195774	0.000506524	0.000468449
  93	-0.000979049	0.000156196	-0.000255331
  94	0.000160419	0.000925674	0.00034379
  95	7.83678e-05	-0.000469366	0.000719307
  96	-0.000165882	0.000988042	0.00024297
  97	-0.000138907	-0.000153087	-0.000442837
  98	-6.41874e-05	-7.54168e-05	-0.000193362
  99	-0.000129433	-0.00022257	-0.000512648
 100	-7.56217e-05	-0.000178958	-0.000390911
 101	-0.000105544	-4.68865e-05	-0.000219313
 102	0.000108624	-0.000160846	-0.000151481
 103	-6.2278e-05	-7.11508e-05	-0.000100736
 104	0.000296001	-0.000313333	0.000396026
 105	0.000174377	-0.000215491	0.00161942
 106	0.00128804	-0.000971059	0.000153351
 107	-0.000258836	5.8203e-05	-0.000144369
 108	-0.000168033	6.51113e-06	-0.000312131
 109	-0.000249072	-0.000104236	-0.00031714
 110	-0.000249251	-7.48543e-05	-0.000518372
 111	-0.000479678	-0.000281998	-0.000322442
 112	-0.00018789	-0.000129193	1.15126e-05
 113	-0.00020197	4.51035e-05	-0.000437327
 114	-0.000285153	-3.0218e-05	-0.000633692
 115	0.000125173	0.00033792	-0.000632866
 116	-5.60674e-05	0.000437127	-0.000314574
 117	0.000260374	0.00081037	-0.000419456
 118	-0.000294876	0.000623601	0.000128938
 119	-0.000257723	6.88332e-05	-0.00041645
 120	0.000395559	0.00033269	-0.000884998
 121	0.000370354	-0.00010527	-0.000171234
 122	8.24976e-05	-1.25554e-05	-0.00026335
 123	0.000754226	5.92369e-05	-0.000194661
 124	0.000344258	-0.000334273	0.000153603
 125	9.08814e-05	0.000116385	0.000109976
 126	0.000215051	-0.000103174	-0.000345385
 127	0.000259819	1.57916e-05	0.00031528
 128	0.000249426	1.69385e-05	0.00120332
 129	0.000434693	0.000140826	0.000965367
 130	-0.000504358	-0.000357962	0.00149738
 131	0.000774299	0.000139365	0.00187299
 132	0.000455492	-4.2627e-05	1.01493e-05
 133	0.000117411	-0.000195386	-0.000224962
 134	0.000376769	-8.95098e-05	-0.00020283
 135	-4.77747e-05	-0.000424078	-0.000107175
 136	-8.53161e-05	1.28688e-05	-0.000353225
 137	0.00052492	-0.00015963	-0.00016849
 138	0.00040615	-3.29089e-05	-0.00028775
 139	-0.000108221	0.000352378	0.000421438
 140	0.00040085	-0.000117681	-0.000338864
 141	0.000494625	-0.000401586	-0.000591507
 142	0.000956201	0.000358862	-0.000601074
 143	0.000183868	-0.000637171	-0.00044577
 144	-0.000894352	0.000927411	0.00119255
 145	-1.74416e-05	-0.000218194	-0.000202549
 146	0.000197281	-0.000220284	-0.0002299
 147	-3.31843e-05	-0.000221698	-0.000259215
 148	-3.78457e-05	-0.000281871	-0.00016511
 149	0.000318132	-9.8165e-05	-0.000315479
 150	0.00027138	-0.000281495	-0.000175572
 151	0.000323661	-0.000571329	0.000717337
 152	0.000365066	-0.000626063	0.000895044
 153	4.28637e-05	-0.00126679	0.00111697
 154	0.000700407	-0.000301647	0.00146703
 155	0.000430259	-0.000463273	0.000298436
 156	0.00022548	-0.00111468	0.00183558
 157	-3.79479e-05	-2.51225e-05	-0.000211979
 158	-4.37399e-05	-6.02945e-05	-0.000171787
 159	7.10057e-05	-4.13074e-05	-0.000148042
 160	1.85131e-05	-4.11798e-05	-0.000363121
 161	-4.74748e-05	-0.000151577	-0.000145349
 162	-9.58149e-05	-1.29584e-05	-0.000180984
 163	-0.000132732	-7.23962e-05	-0.00040789
 164	-0.000107226	-0.000402163	-0.000132807
 165	0.000725351	-0.00110184	0.000527261
 166	-0.000951372	-0.00117833	-0.00078752
 167	-0.00014888	0.000614709	-0.000179346
 168	6.16857e-05	0.00065541	3.56578e-05
 169	-5.26615e-05	0.000203388	-0.000202392
 170	-0.00014038	4.94321e-05	-0.00026698
 171	4.81777e-05	0.000432129	-0.000144201
 172	-0.000161491	0.000125278	1.11794e-05
 173	-0.000125398	-0.000169451	-4.14154e-05
 174	-0.000247986	1.70357e-05	-0.0003109
 175	-6.16222e-05	-0.000324208	-1.22112e-05
 176	1.4691e-05	-0.000979843	0.000491688
 177	-0.00050201	-0.00124775	0.000440626
 178	0.000176079	-0.00134112	0.000773937
 179	0.000467784	-0.000866539	0.000605456
 180	-7.60935e-05	0.000126913	-0.000269844
 181	-0.000532663	-0.000150398	-0.000520175
 182	-7.34714e-05	0.000148363	-0.000261357
 183	-0.000717725	-0.000775169	-0.00094458
 184	-0.00125578	0.000102908	-0.000226846
 185	3.0361e-05	0.000636	-0.000144065