pySIMM System Object

242 atoms
241 bonds
440 angles
571 dihedrals
20 impropers

6 atom types
7 bond types
12 angle types
10 dihedral types
1 improper types

-87.904933 87.904933 xlo xhi
-87.904933 87.904933 ylo yhi
-87.904933 87.904933 zlo zhi

Masses

   1	12.01	# c3
   2	1.008	# hc
   3	16.0	# os
   4	1.008	# h1
   5	12.01	# c
   6	16.0	# o

Pair Coeffs

   1	0.1094	3.3996695084235347	# c3
   2	0.0157	2.649532787749369	# hc
   3	0.17	3.0000123434657784	# os
   4	0.0157	2.471353044121301	# h1
   5	0.086	3.3996695084235347	# c
   6	0.21	2.959921901149463	# o

Bond Coeffs

   1	637.7	1.2183	# c,o
   2	330.6	1.0969	# c3,h1
   3	308.6	1.4316	# c3,os
   4	313.0	1.5241	# c,c3
   5	390.8	1.3584	# c,os
   6	300.9	1.5375	# c3,c3
   7	330.6	1.0969	# c3,hc

Angle Coeffs

   1	46.39	109.56	# c3,c3,h1
   2	46.93	108.77	# c,c3,hc
   3	68.0	107.97	# c3,c3,os
   4	68.89	110.72	# c3,c,os
   5	46.34	109.8	# c3,c3,hc
   6	63.28	115.98	# c,os,c3
   7	50.8	109.78	# h1,c3,os
   8	67.4	123.2	# c3,c,o
   9	39.4	107.58	# hc,c3,hc
  10	39.24	108.46	# h1,c3,h1
  11	75.32	123.25	# o,c,os
  12	62.86	111.51	# c3,c3,c3

Dihedral Coeffs

   1	1	0.0	2	180	# X,c,c3,X
   2	1	0.3833333333333333	3	0	# X,c3,os,X
   3	3	0.8	1	0	0.0	2	0	0.08	3	180	# hc,c3,c,o
   4	3	2.7	2	180	0.0	1	0	1.15	3	0	# c3,c,os,c3
   5	1	0.15555555555555556	3	0	# X,c3,c3,X
   6	2	2.7	2	180	1.4	1	180	# o,c,os,c3
   7	2	0.383	3	0	0.8	1	180	# c3,c3,os,c
   8	2	0.0	3	0	0.25	1	0	# hc,c3,c3,os
   9	1	0.16	3	0	# hc,c3,c3,c3
  10	3	0.18	3	0	0.25	2	180	0.2	1	180	# c3,c3,c3,c3

Improper Coeffs

   1	10.5	-1	2	# c,X,X,o

Atoms

   1	1	1	-0.003445	-0.793041	-5.83525	3.46149
   2	1	1	0.299845	-0.424593	-7.1491	2.72417
   3	1	2	0.023286	0.106012	-5.4356	3.94689
   4	1	2	-0.011958	-1.11134	-5.07687	2.73658
   5	1	3	-0.518063	0.512722	-6.88933	1.66605
   6	1	4	0.011666	-1.3232	-7.64165	2.32928
   7	1	5	0.843192	0.04891	-6.37078	0.501669
   8	1	1	-0.399874	1.16522	-6.22172	-0.501355
   9	1	2	0.119224	1.56297	-7.2126	-0.740996
  10	1	2	0.109051	1.96268	-5.60546	-0.0732784
  11	1	2	0.118031	0.771165	-5.75304	-1.40659
  12	1	6	-0.590955	-1.11203	-6.10755	0.25885
  13	1	1	-0.003445	-1.53553	-7.04524	5.62901
  14	1	1	0.299845	-1.90864	-6.01986	4.52744
  15	1	2	0.023286	-0.675098	-6.67186	6.19689
  16	1	2	-0.011958	-1.19727	-7.9725	5.15732
  17	1	3	-0.518063	-3.1028	-6.49553	3.88471
  18	1	4	0.011666	-2.10373	-5.05302	5.00784
  19	1	5	0.843192	-3.88773	-5.61861	3.20581
  20	1	1	-0.399874	-5.11216	-6.31767	2.66403
  21	1	2	0.119224	-5.03651	-6.37022	1.57391
  22	1	2	0.109051	-6.00606	-5.75512	2.94891
  23	1	2	0.118031	-5.17715	-7.33362	3.06891
  24	1	6	-0.590955	-3.73996	-4.41239	3.18432
  25	1	1	-0.003445	-3.22271	-6.22882	7.4727
  26	1	1	0.299845	-2.70797	-7.39242	6.59211
  27	1	2	0.023286	-3.74371	-5.49833	6.84359
  28	1	2	-0.011958	-3.9844	-6.63592	8.15007
  29	1	3	-0.518063	-2.28242	-8.42819	7.4986
  30	1	4	0.011666	-3.56109	-7.76115	6.00752
  31	1	5	0.843192	-2.20557	-9.70829	7.04947
  32	1	1	-0.399874	-1.73374	-10.6299	8.14556
  33	1	2	0.119224	-0.879214	-10.1776	8.65806
  34	1	2	0.109051	-1.4393	-11.5912	7.71223
  35	1	2	0.118031	-2.54803	-10.7776	8.86069
  36	1	6	-0.590955	-2.48486	-10.0834	5.92862
  37	1	1	-0.003445	-2.59524	-4.94846	9.64779
  38	1	1	0.299845	-2.10685	-5.53449	8.29624
  39	1	2	0.023286	-1.74894	-4.48084	10.1569
  40	1	2	-0.011958	-2.88627	-5.77984	10.3039
  41	1	3	-0.518063	-1.56285	-4.48796	7.47008
  42	1	4	0.011666	-1.32616	-6.273	8.51872
  43	1	5	0.843192	-0.366332	-3.92959	7.77901
  44	1	1	-0.399874	0.01707	-2.88954	6.75612
  45	1	2	0.119224	-0.882158	-2.40486	6.361
  46	1	2	0.109051	0.551901	-3.37686	5.93673
  47	1	2	0.118031	0.661722	-2.13937	7.22385
  48	1	6	-0.590955	0.371427	-4.30615	8.66711
  49	1	1	-0.003445	-3.71465	-2.78677	10.5525
  50	1	1	0.299845	-3.7773	-3.95199	9.52411
  51	1	2	0.023286	-3.4813	-3.1983	11.5423
  52	1	2	-0.011958	-4.71176	-2.34276	10.6574
  53	1	3	-0.518063	-4.98083	-4.71067	9.77129
  54	1	4	0.011666	-3.80438	-3.54509	8.51179
  55	1	5	0.843192	-6.17759	-4.22456	9.35091
  56	1	1	-0.399874	-7.31034	-5.14486	9.73718
  57	1	2	0.119224	-6.92989	-6.15799	9.90132
  58	1	2	0.109051	-8.05517	-5.15894	8.93529
  59	1	2	0.118031	-7.7687	-4.77708	10.6601
  60	1	6	-0.590955	-6.33486	-3.21994	8.68745
  61	1	1	-0.003445	-2.81999	-1.0347	8.791
  62	1	1	0.299845	-2.72773	-1.6262	10.2206
  63	1	2	0.023286	-2.0716	-0.237938	8.70008
  64	1	2	-0.011958	-2.52276	-1.79432	8.06097
  65	1	3	-0.518063	-1.35719	-2.02386	10.4015
  66	1	4	0.011666	-2.93822	-0.808315	10.9207
  67	1	5	0.843192	-0.850712	-2.0676	11.6622
  68	1	1	-0.399874	0.625893	-2.37042	11.6431
  69	1	2	0.119224	1.13966	-1.60844	11.0492
  70	1	2	0.109051	0.79247	-3.35212	11.1887
  71	1	2	0.118031	1.01259	-2.36273	12.6669
  72	1	6	-0.590955	-1.47865	-1.84265	12.6784
  73	1	1	-0.003445	-4.20264	0.441464	7.15618
  74	1	1	0.299845	-4.21752	-0.475793	8.4079
  75	1	2	0.023286	-3.4545	1.23126	7.29371
  76	1	2	-0.011958	-5.17369	0.947069	7.07013
  77	1	3	-0.518063	-4.83714	0.231964	9.50843
  78	1	4	0.011666	-4.86226	-1.329	8.18353
  79	1	5	0.843192	-4.29585	1.35811	10.045
  80	1	1	-0.399874	-5.19991	1.92469	11.1096
  81	1	2	0.119224	-6.21894	1.99158	10.7159
  82	1	2	0.109051	-4.84813	2.921	11.3958
  83	1	2	0.118031	-5.19155	1.26113	11.9794
  84	1	6	-0.590955	-3.21751	1.83342	9.75295
  85	1	1	-0.003445	-3.72458	0.744554	4.68032
  86	1	1	0.299845	-3.89774	-0.281324	5.82257
  87	1	2	0.023286	-4.61204	1.3898	4.64577
  88	1	2	-0.011958	-2.88269	1.40572	4.92302
  89	1	3	-0.518063	-5.01197	-1.12659	5.47678
  90	1	4	0.011666	-2.96232	-0.844539	5.92217
  91	1	5	0.843192	-4.92952	-2.46201	5.71041
  92	1	1	-0.399874	-6.20957	-3.16276	5.33252
  93	1	2	0.119224	-6.58681	-2.74894	4.39279
  94	1	2	0.109051	-6.94907	-3.00143	6.1229
  95	1	2	0.118031	-6.01387	-4.23179	5.21594
  96	1	6	-0.590955	-3.95267	-3.0292	6.15625
  97	1	1	-0.003445	-2.46938	-1.01592	3.18204
  98	1	1	0.299845	-3.51948	0.134572	3.26941
  99	1	2	0.023286	-2.61409	-1.54416	2.23252
 100	1	2	-0.011958	-2.66269	-1.77605	3.9463
 101	1	3	-0.518063	-3.16939	1.26434	2.43762
 102	1	4	0.011666	-4.48507	-0.269868	2.93897
 103	1	5	0.843192	-3.09989	1.15531	1.08709
 104	1	1	-0.399874	-2.81945	2.50013	0.460193
 105	1	2	0.119224	-1.8669	2.88631	0.835916
 106	1	2	0.109051	-3.6198	3.19615	0.731255
 107	1	2	0.118031	-2.77752	2.39251	-0.629028
 108	1	6	-0.590955	-3.19635	0.119566	0.463456
 109	1	1	-0.003445	-0.0125363	-1.74356	3.05462
 110	1	1	0.299845	-0.996411	-0.562858	3.26456
 111	1	2	0.023286	-0.560848	-2.65341	2.77931
 112	1	2	-0.011958	0.471228	-1.99013	4.00561
 113	1	3	-0.518063	-0.740584	-0.0237114	4.5757
 114	1	4	0.011666	-0.843008	0.191665	2.48289
 115	1	5	0.843192	0.189094	0.963698	4.6857
 116	1	1	-0.399874	0.451293	1.29471	6.13561
 117	1	2	0.119224	-0.429104	1.06509	6.74309
 118	1	2	0.109051	0.69574	2.35766	6.2265
 119	1	2	0.118031	1.29874	0.692979	6.47862
 120	1	6	-0.590955	0.607982	1.62623	3.7573
 121	1	1	-0.003445	0.553005	-1.93776	0.583615
 122	1	1	0.299845	1.03966	-1.42755	1.95922
 123	1	2	0.023286	0.749105	-3.01682	0.523299
 124	1	2	-0.011958	-0.537299	-1.83303	0.507023
 125	1	3	-0.518063	2.2675	-2.12571	2.23583
 126	1	4	0.011666	1.22924	-0.346752	1.91601
 127	1	5	0.843192	3.04392	-1.74074	3.28197
 128	1	1	-0.399874	4.26423	-2.62215	3.37632
 129	1	2	0.119224	4.89983	-2.27807	4.19795
 130	1	2	0.109051	4.81611	-2.57497	2.43214
 131	1	2	0.118031	3.94732	-3.65363	3.55626
 132	1	6	-0.590955	2.76042	-0.896162	4.10887
 133	1	1	-0.003445	0.500908	0.126312	-0.961305
 134	1	1	0.299845	1.22013	-1.21487	-0.610544
 135	1	2	0.023286	-0.564662	0.03494	-0.724039
 136	1	2	-0.011958	0.857645	0.905964	-0.279851
 137	1	3	-0.518063	1.18574	-2.12053	-1.73074
 138	1	4	0.011666	2.26102	-0.990252	-0.36104
 139	1	5	0.843192	2.25828	-2.91784	-1.97083
 140	1	1	-0.399874	2.04059	-3.75691	-3.20634
 141	1	2	0.119224	0.990799	-4.05939	-3.26623
 142	1	2	0.109051	2.68062	-4.64399	-3.16168
 143	1	2	0.118031	2.2938	-3.16173	-4.0887
 144	1	6	-0.590955	3.29048	-2.92906	-1.33022
 145	1	1	-0.003445	2.08984	0.802282	-2.94566
 146	1	1	0.299845	0.636647	0.642088	-2.42981
 147	1	2	0.023286	2.6254	-0.147417	-2.83101
 148	1	2	-0.011958	2.04489	0.973433	-4.02852
 149	1	3	-0.518063	-0.0111373	-0.29064	-3.31979
 150	1	4	0.011666	0.138808	1.61741	-2.50861
 151	1	5	0.843192	-1.35965	-0.431722	-3.26388
 152	1	1	-0.399874	-1.79417	-1.7059	-3.94759
 153	1	2	0.119224	-2.8871	-1.76427	-3.94922
 154	1	2	0.109051	-1.3859	-2.55771	-3.3932
 155	1	2	0.118031	-1.41172	-1.72492	-4.97143
 156	1	6	-0.590955	-2.12191	0.366843	-2.75813
 157	1	1	-0.003445	3.28347	3.08099	-3.27999
 158	1	1	0.299845	2.90501	1.95176	-2.28372
 159	1	2	0.023286	4.1639	3.61819	-2.91045
 160	1	2	-0.011958	3.58955	2.63764	-4.23603
 161	1	3	-0.518063	4.14088	1.39274	-1.79785
 162	1	4	0.011666	2.33759	2.39875	-1.45762
 163	1	5	0.843192	4.21441	0.963198	-0.511551
 164	1	1	-0.399874	5.52626	0.275391	-0.238367
 165	1	2	0.119224	5.57158	-0.00854222	0.817726
 166	1	2	0.109051	6.3511	0.952504	-0.479874
 167	1	2	0.118031	5.59244	-0.620475	-0.864197
 168	1	6	-0.590955	3.33609	1.08252	0.318003
 169	1	1	-0.003445	2.29155	5.09638	-4.65895
 170	1	1	0.299845	2.10626	4.06715	-3.5067
 171	1	2	0.023286	3.16395	5.73359	-4.4784
 172	1	2	-0.011958	1.41809	5.76198	-4.64203
 173	1	3	-0.518063	1.77524	4.7713	-2.28518
 174	1	4	0.011666	1.2263	3.46208	-3.75688
 175	1	5	0.843192	2.62847	5.6605	-1.70061
 176	1	1	-0.399874	1.97758	6.32949	-0.517131
 177	1	2	0.119224	2.72346	6.93157	0.0119204
 178	1	2	0.109051	1.56892	5.56954	0.156136
 179	1	2	0.118031	1.16892	6.9742	-0.873939
 180	1	6	-0.590955	3.74701	5.93551	-2.08336
 181	1	1	-0.003445	2.10287	5.5667	-7.15091
 182	1	1	0.299845	2.44158	4.49087	-6.07843
 183	1	2	0.023286	1.16111	6.0511	-6.86276
 184	1	2	-0.011958	2.86171	6.35556	-7.11575
 185	1	3	-0.518063	1.53525	3.37143	-6.18643
 186	1	4	0.011666	3.48302	4.16398	-6.19604
 187	1	5	0.843192	1.92741	2.26709	-6.87817
 188	1	1	-0.399874	0.815277	1.25435	-6.96135
 189	1	2	0.119224	-0.0556527	1.72109	-7.4326
 190	1	2	0.109051	0.547562	0.915125	-5.95662
 191	1	2	0.118031	1.14823	0.404298	-7.56547
 192	1	6	-0.590955	2.99998	2.133	-7.42939
 193	1	1	-0.003445	3.24694	4.80931	-9.39273
 194	1	1	0.299845	1.93034	5.04525	-8.59992
 195	1	2	0.023286	3.03366	4.03551	-10.141
 196	1	2	-0.011958	4.01381	4.37781	-8.74036
 197	1	3	-0.518063	1.11288	6.00469	-9.30232
 198	1	4	0.011666	1.39693	4.09315	-8.5437
 199	1	5	0.843192	0.0609153	5.57706	-10.0455
 200	1	1	-0.399874	-0.536749	6.71693	-10.8335
 201	1	2	0.119224	-1.58589	6.49556	-11.0522
 202	1	2	0.109051	0.0202437	6.83163	-11.7682
 203	1	2	0.118031	-0.467909	7.64478	-10.2563
 204	1	6	-0.590955	-0.339901	4.43269	-10.1103
 205	1	1	-0.003445	4.92412	5.78765	-11.1606
 206	1	1	0.299845	3.77584	6.06449	-10.1486
 207	1	2	0.023286	5.88755	6.13649	-10.7736
 208	1	2	-0.011958	5.0464	4.70481	-11.2975
 209	1	3	-0.518063	4.14019	7.13868	-9.2566
 210	1	4	0.011666	2.93044	6.42364	-10.7454
 211	1	5	0.843192	5.18392	7.03477	-8.39107
 212	1	1	-0.399874	5.36001	8.31355	-7.61382
 213	1	2	0.119224	5.88567	9.0358	-8.24605
 214	1	2	0.109051	5.94209	8.11395	-6.70855
 215	1	2	0.118031	4.37892	8.71616	-7.34526
 216	1	6	-0.590955	5.82653	6.02784	-8.17285
 217	1	1	-0.003445	4.04398	5.41009	-13.5129
 218	1	1	0.299845	4.61271	6.45981	-12.5306
 219	1	2	0.023286	3.25683	4.86191	-12.9777
 220	1	2	-0.011958	4.8247	4.66878	-13.7303
 221	1	3	-0.518063	5.79448	7.05402	-13.0987
 222	1	4	0.011666	3.86183	7.24725	-12.3859
 223	1	5	0.843192	6.28085	8.18347	-12.5126
 224	1	1	-0.399874	7.46043	8.73768	-13.271
 225	1	2	0.119224	7.43182	8.3919	-14.309
 226	1	2	0.109051	8.38507	8.39636	-12.7966
 227	1	2	0.118031	7.4142	9.83122	-13.2492
 228	1	6	-0.590955	5.79416	8.7378	-11.5468
 229	1	1	-0.003445	2.91534	7.36042	-14.8867
 230	1	1	0.299845	3.46762	5.91096	-14.8657
 231	1	2	0.023286	1.99786	7.44516	-14.291
 232	1	2	-0.011958	2.68479	7.66962	-15.9141
 233	1	3	-0.518063	2.38155	5.00026	-15.1205
 234	1	4	0.011666	4.24762	5.81484	-15.6329
 235	1	5	0.843192	1.86506	4.85205	-16.3634
 236	1	1	-0.399874	0.791797	3.78787	-16.3537
 237	1	2	0.119224	-0.184198	4.25943	-16.2088
 238	1	2	0.109051	0.974595	3.08383	-15.534
 239	1	2	0.118031	0.809687	3.24711	-17.3045
 240	1	6	-0.590955	2.25749	5.41567	-17.3639
 241	1	4	0	0.0519643	-7.83829	3.43072
 242	1	2	0	3.64797	8.07959	-14.5022

Velocities

   1	-0.000282423	0.000527211	0.000835527
   2	-0.000201859	0.00107738	-1.89352e-05
   3	-0.00037644	-0.000109848	0.00152387
   4	0.000278695	0.00119316	0.00121568
   5	-0.000374258	0.00148352	2.27293e-05
   6	-0.000285009	0.000458661	0.000114817
   7	-0.000338029	0.00154732	4.80286e-05
   8	-0.000143028	0.00121235	0.000279748
   9	0.00088717	0.00124855	0.00167526
  10	-0.000832798	0.00230397	1.98892e-05
  11	1.59101e-05	-0.000153746	-0.000649459
  12	-0.000245612	0.00159867	-4.73328e-05
  13	-0.000502118	-0.000323778	0.000225851
  14	-0.000691283	-2.21037e-05	0.000459609
  15	-0.000131715	-0.000597057	-0.000185892
  16	-0.000891459	-0.000321178	-0.000109666
  17	-0.000590408	0.000185095	5.09157e-05
  18	-0.000800913	-0.00028847	0.0007505
  19	-1.39227e-05	0.000528472	-0.000287363
  20	5.47734e-05	0.00116912	-0.00136386
  21	0.00127767	0.000490035	-0.00128059
  22	0.000148179	0.00204837	-0.00274898
  23	-0.00124423	0.00148165	-0.000883703
  24	0.000171458	0.000497431	0.000208038
  25	0.000729293	-0.000279397	0.00145851
  26	1.86083e-05	-0.000229877	0.00090576
  27	0.000139113	-0.000258566	0.0020014
  28	0.00125128	-0.000562605	0.00194562
  29	0.000394546	-0.000367248	0.00060828
  30	-0.000367616	-1.25854e-05	0.00140792
  31	0.000360201	-0.000343081	0.000363031
  32	0.000340965	-0.000498541	0.000297129
  33	0.0011225	-0.0011583	-0.000390624
  34	-0.000898918	-0.000867426	0.000400173
  35	0.000691467	0.000509311	0.000903712
  36	6.33461e-05	-0.000189156	0.00042189
  37	0.000765877	0.000363673	0.000815565
  38	0.00099953	-0.000164415	0.00106345
  39	0.000623688	0.000577763	0.000789187
  40	0.000626889	0.000628408	0.00107735
  41	0.000860619	-0.000301477	0.000776354
  42	0.00094601	-0.000112635	0.00129026
  43	0.000704307	-5.04504e-06	0.000463173
  44	0.000385788	0.00014211	0.000578237
  45	0.000157066	-9.61665e-05	0.000714666
  46	0.000363657	0.000301217	0.000454676
  47	0.000258367	0.000346598	0.000460448
  48	0.00111241	7.21883e-05	0.000470391
  49	-0.000282794	0.000789729	-0.000696693
  50	0.00064436	0.000178889	-7.67235e-05
  51	-0.00143468	0.00143442	-0.000219106
  52	-0.000384384	0.000946896	-0.00208749
  53	0.000700029	0.00011076	-9.79777e-05
  54	0.000968516	-0.000328547	-0.000292433
  55	0.000762638	-0.000337901	-0.000863325
  56	0.000833788	-0.000250576	-0.000444176
  57	0.00065585	-0.000554602	-0.00186669
  58	-7.13873e-05	0.00083446	0.000377827
  59	0.00203874	-0.000982617	0.000433234
  60	0.000817106	-0.000931201	-0.00172378
  61	-0.000105815	0.000736645	-0.00027829
  62	4.60132e-05	0.000552161	-0.000458983
  63	-0.000220163	0.000862855	-0.000301849
  64	-0.000222865	0.000822687	-0.000458646
  65	-0.000144572	0.000235455	-0.000428435
  66	0.000308878	0.000558001	-0.000355596
  67	-6.54089e-05	-0.000952193	-0.00088388
  68	-0.000587684	-0.00149429	-0.000635276
  69	-0.000210298	-0.00185732	-0.000945139
  70	-0.000839529	-0.00170969	-0.000606801
  71	-0.000311013	-0.00156404	-0.000790587
  72	-0.000569222	-0.00151331	-0.000155029
  73	-0.000508489	0.000491447	0.000144978
  74	-0.000255211	0.000606337	0.000118861
  75	-0.000285595	0.000332369	-0.000202469
  76	-0.000429354	0.000652998	0.000193732
  77	0.000126465	0.000583334	0.000329632
  78	-0.000262275	0.000569222	0.000251964
  79	-0.00034908	0.00115142	-0.000548031
  80	0.000490789	0.000228451	0.000573373
  81	0.000309649	0.00102388	0.00116639
  82	0.000979662	-0.000259679	0.00164798
  83	0.000711923	-0.000896192	-0.000263852
  84	-0.00110428	0.00224514	-0.00194449
  85	0.00016015	-9.66456e-05	0.000528902
  86	-0.000572537	6.53828e-05	0.000477689
  87	0.000786828	0.00076744	0.000626331
  88	0.000816471	-0.000880892	0.000425421
  89	-0.000608919	3.87679e-05	0.000394487
  90	-0.000691849	-5.19614e-05	0.000840718
  91	-0.00023964	-0.000150162	-0.000308216
  92	0.000224978	-0.000464307	-0.00149924
  93	0.00215307	-0.00205943	-0.00300313
  94	-0.00122112	0.00103859	-0.00318403
  95	0.000223317	-0.000742321	0.000751965
  96	-0.000211841	-9.54729e-05	-0.000431786
  97	-0.000443206	-0.00064619	0.000825356
  98	-0.000449889	-0.000602865	0.000706382
  99	-0.001102	-0.00135254	0.00133915
 100	0.000128984	-6.82433e-05	0.00151308
 101	-0.000551707	-0.00106063	7.88323e-05
 102	-0.000656511	-0.000608648	0.00128661
 103	-0.000814683	-0.00193256	0.000161479
 104	0.00111773	-0.00280261	-0.000683556
 105	0.00131667	-0.00366337	-0.000262011
 106	0.00173725	-0.00169445	-0.00186109
 107	0.00186483	-0.0037938	-0.000577786
 108	-0.00155735	-0.00230262	0.000769907
 109	-0.000255725	-0.000358863	-0.00031832
 110	-0.000395808	-0.000464002	-0.000292758
 111	-0.00025806	-0.000192335	-0.000859954
 112	-0.000488637	-0.000683157	-0.000277026
 113	-3.73314e-05	-0.000210032	-0.000545945
 114	-0.000806714	-0.000618897	-0.000534504
 115	0.000161859	-0.000465654	-0.000681783
 116	-0.000695002	2.31643e-05	-0.000683936
 117	-0.00154613	0.00125629	-0.00141131
 118	0.000317455	-0.000193564	-0.000949132
 119	-0.00170915	-0.000744326	0.000441491
 120	0.000461111	-0.000745757	-0.000798202
 121	0.000107553	0.000416799	-9.54253e-05
 122	8.57267e-05	-0.000122727	8.59027e-05
 123	-1.41006e-05	0.00042284	-0.000417937
 124	0.000145396	0.000552704	-6.80219e-05
 125	-5.32762e-05	-0.000412427	0.00018573
 126	0.000276209	-0.000144009	0.000486814
 127	0.000269662	0.000172776	-0.000272156
 128	0.000604223	0.000592252	-0.00011463
 129	0.000248912	0.000660661	0.000142078
 130	0.00089141	0.00105571	6.52642e-05
 131	0.00105244	0.000413884	-0.000454629
 132	0.000530063	0.000910269	-0.000900475
 133	-0.000225962	0.000473902	-9.01297e-05
 134	3.30131e-05	0.00067323	2.64776e-05
 135	-0.000349341	-0.000173849	-0.000901125
 136	-0.00105919	0.000538965	0.000269917
 137	7.29224e-05	0.000991134	-0.000100818
 138	7.35253e-05	0.000567734	-6.03635e-05
 139	-0.000882645	-0.000641814	0.00127948
 140	-0.000708793	0.000363704	0.000658822
 141	-0.000569133	-0.000481599	0.00107967
 142	0.000147516	0.000886771	-0.000639823
 143	-0.00188316	0.00155105	0.00116991
 144	-0.00168071	-0.00235383	0.00256843
 145	0.000609541	4.98701e-05	0.000290782
 146	0.00049345	0.000643943	1.00695e-05
 147	0.000408459	-3.18341e-05	0.000572762
 148	0.000866123	-0.000162425	0.000235171
 149	0.000267613	0.00120605	-0.000402525
 150	0.000982748	0.000898206	1.15555e-05
 151	0.000228202	0.00233031	-0.00132346
 152	-0.000438663	0.00295526	-0.00186368
 153	-0.000448353	0.00331368	-0.00160837
 154	-0.000535532	0.0026181	-0.0025923
 155	-0.000771372	0.00343401	-0.00216349
 156	0.000511785	0.00274034	-0.00119313
 157	8.78212e-05	7.12904e-05	0.00019612
 158	0.000521291	6.42651e-05	0.000237791
 159	2.60069e-05	0.000268978	4.0773e-05
 160	8.63625e-05	0.000100102	0.000177443
 161	0.000724781	0.000297308	-1.33468e-05
 162	0.00062121	-6.18437e-05	0.000380361
 163	0.000550318	-0.000733512	-0.000361175
 164	0.00101699	0.000165011	-0.000252436
 165	0.00121417	0.000586952	-0.000140932
 166	0.000624348	0.000568002	-0.000543728
 167	0.00152241	-5.54298e-05	0.000102074
 168	0.0002012	-0.00177791	-0.000558718
 169	0.000871464	-0.000325679	1.44862e-05
 170	-7.98477e-06	-0.000104458	6.87583e-05
 171	0.00197124	-0.00170396	-0.000188142
 172	0.00197438	0.00107602	0.000330285
 173	-0.000515569	-0.000278663	7.65713e-05
 174	3.91117e-05	-4.45842e-05	-0.000223291
 175	-0.000638327	-0.000455159	0.000639774
 176	-0.000570002	-0.00142033	0.00133515
 177	-0.000694243	-0.000992111	0.00104213
 178	0.000557768	-0.00195763	0.00142475
 179	-0.0013411	-0.00194312	0.00223031
 180	-0.000699487	-0.00030864	0.00094478
 181	-0.00157297	-0.000960167	-2.47245e-05
 182	-0.00036111	-0.000643261	-0.000111237
 183	-0.00242322	-0.00251478	-4.69107e-06
 184	-0.0027575	0.000162505	0.000213023
 185	-0.000331767	-0.000777611	0.000727847
 186	-0.000436875	-0.000534914	-0.00103313
 187	-0.00106389	-0.000625505	-7.83939e-05
 188	-0.00129741	-0.000513515	0.000789894
 189	-0.00120088	-0.000678948	0.000500134
 190	-0.00128441	0.000287999	0.00104753
 191	-0.00148764	-0.00100739	0.00138256
 192	-0.00181222	-0.000415516	-0.00140008
 193	-2.43283e-05	0.000369016	0.000292926
 194	-0.000519602	-0.000741537	-0.000193671
 195	0.000798406	0.00035104	0.000103858
 196	-3.19177e-05	0.000794114	0.000596485
 197	-0.000839098	-0.000940882	9.50503e-05
 198	-7.91805e-05	-0.00106145	-0.000636066
 199	0.000608887	-0.00110491	-0.00169332
 200	-0.000777029	-0.000286711	0.000618284
 201	-0.000554215	-0.00079853	0.000120744
 202	-0.000849615	0.00241552	0.000942676
 203	-0.00176019	-0.00144054	0.00261254
 204	0.00253044	-0.00180124	-0.00438674
 205	0.000308138	0.000647921	0.000951362
 206	-0.000117557	0.000651963	0.000568071
 207	2.58756e-06	0.0014283	0.000971186
 208	0.000979201	0.000698438	0.00162973
 209	-0.000549641	0.000611285	0.000849621
 210	-3.36611e-05	0.000665085	0.000357604
 211	-0.000170144	0.000899073	0.000565365
 212	-5.09184e-05	0.00106641	0.000367934
 213	-0.00120835	0.00140589	-0.000209267
 214	0.00119977	0.00137011	-0.00036475
 215	7.73357e-05	0.000521737	0.00160136
 216	0.000948996	0.00147751	-0.000539738
 217	-0.00107927	-0.00068239	0.00145736
 218	0.000769369	-0.000375121	0.000300496
 219	-0.0024221	0.0017997	0.00196608
 220	-0.00270146	-0.0026407	0.00232817
 221	0.00140171	-0.00161977	-2.56922e-05
 222	0.00161687	0.000481278	5.94265e-05
 223	0.00060044	-0.00042901	-0.00147238
 224	0.00128483	-0.000825802	-0.000705627
 225	0.00106045	0.000664597	-0.00120089
 226	0.00101422	-0.00225544	-0.00113914
 227	0.00249444	-0.000817068	0.000761708
 228	-0.00123183	0.00139238	-0.00337441
 229	-0.000554041	-0.00116323	0.00186897
 230	-0.00012566	-0.000985618	0.000971233
 231	0.00251515	-0.00064728	0.00670834
 232	-0.00595244	-0.00234209	0.00260485
 233	0.000404145	-0.00152731	-0.000471018
 234	0.000664062	-6.84219e-05	0.00143271
 235	0.00139964	-0.000274776	-0.00113067
 236	-0.000182339	0.0012108	-0.00252316
 237	0.000538008	0.00232584	-0.00120113
 238	-0.00057415	-0.000402774	-0.00407009
 239	-0.00148	0.00305454	-0.0037212
 240	0.00272283	5.7465e-05	-0.000657333
 241	0.000154073	0.000984971	-9.55286e-05
 242	0.00161838	-0.000991057	-0.00260444

Bonds

   1	6	1	2
   2	7	1	3
   3	7	1	4
   4	3	2	5
   5	2	2	6
   6	5	5	7
   7	4	7	8
   8	1	7	12
   9	7	8	9
  10	7	8	10
  11	7	8	11
  12	6	13	14
  13	7	13	15
  14	7	13	16
  15	3	14	17
  16	2	14	18
  17	5	17	19
  18	4	19	20
  19	1	19	24
  20	7	20	21
  21	7	20	22
  22	7	20	23
  23	6	1	14
  24	6	25	26
  25	7	25	27
  26	7	25	28
  27	3	26	29
  28	2	26	30
  29	5	29	31
  30	4	31	32
  31	1	31	36
  32	7	32	33
  33	7	32	34
  34	7	32	35
  35	6	13	26
  36	6	37	38
  37	7	37	39
  38	7	37	40
  39	3	38	41
  40	2	38	42
  41	5	41	43
  42	4	43	44
  43	1	43	48
  44	7	44	45
  45	7	44	46
  46	7	44	47
  47	6	25	38
  48	6	49	50
  49	7	49	51
  50	7	49	52
  51	3	50	53
  52	2	50	54
  53	5	53	55
  54	4	55	56
  55	1	55	60
  56	7	56	57
  57	7	56	58
  58	7	56	59
  59	6	37	50
  60	6	61	62
  61	7	61	63
  62	7	61	64
  63	3	62	65
  64	2	62	66
  65	5	65	67
  66	4	67	68
  67	1	67	72
  68	7	68	69
  69	7	68	70
  70	7	68	71
  71	6	49	62
  72	6	73	74
  73	7	73	75
  74	7	73	76
  75	3	74	77
  76	2	74	78
  77	5	77	79
  78	4	79	80
  79	1	79	84
  80	7	80	81
  81	7	80	82
  82	7	80	83
  83	6	61	74
  84	6	85	86
  85	7	85	87
  86	7	85	88
  87	3	86	89
  88	2	86	90
  89	5	89	91
  90	4	91	92
  91	1	91	96
  92	7	92	93
  93	7	92	94
  94	7	92	95
  95	6	73	86
  96	6	97	98
  97	7	97	99
  98	7	97	100
  99	3	98	101
 100	2	98	102
 101	5	101	103
 102	4	103	104
 103	1	103	108
 104	7	104	105
 105	7	104	106
 106	7	104	107
 107	6	85	98
 108	6	109	110
 109	7	109	111
 110	7	109	112
 111	3	110	113
 112	2	110	114
 113	5	113	115
 114	4	115	116
 115	1	115	120
 116	7	116	117
 117	7	116	118
 118	7	116	119
 119	6	97	110
 120	6	121	122
 121	7	121	123
 122	7	121	124
 123	3	122	125
 124	2	122	126
 125	5	125	127
 126	4	127	128
 127	1	127	132
 128	7	128	129
 129	7	128	130
 130	7	128	131
 131	6	109	122
 132	6	133	134
 133	7	133	135
 134	7	133	136
 135	3	134	137
 136	2	134	138
 137	5	137	139
 138	4	139	140
 139	1	139	144
 140	7	140	141
 141	7	140	142
 142	7	140	143
 143	6	121	134
 144	6	145	146
 145	7	145	147
 146	7	145	148
 147	3	146	149
 148	2	146	150
 149	5	149	151
 150	4	151	152
 151	1	151	156
 152	7	152	153
 153	7	152	154
 154	7	152	155
 155	6	133	146
 156	6	157	158
 157	7	157	159
 158	7	157	160
 159	3	158	161
 160	2	158	162
 161	5	161	163
 162	4	163	164
 163	1	163	168
 164	7	164	165
 165	7	164	166
 166	7	164	167
 167	6	145	158
 168	6	169	170
 169	7	169	171
 170	7	169	172
 171	3	170	173
 172	2	170	174
 173	5	173	175
 174	4	175	176
 175	1	175	180
 176	7	176	177
 177	7	176	178
 178	7	176	179
 179	6	157	170
 180	6	181	182
 181	7	181	183
 182	7	181	184
 183	3	182	185
 184	2	182	186
 185	5	185	187
 186	4	187	188
 187	1	187	192
 188	7	188	189
 189	7	188	190
 190	7	188	191
 191	6	169	182
 192	6	193	194
 193	7	193	195
 194	7	193	196
 195	3	194	197
 196	2	194	198
 197	5	197	199
 198	4	199	200
 199	1	199	204
 200	7	200	201
 201	7	200	202
 202	7	200	203
 203	6	181	194
 204	6	205	206
 205	7	205	207
 206	7	205	208
 207	3	206	209
 208	2	206	210
 209	5	209	211
 210	4	211	212
 211	1	211	216
 212	7	212	213
 213	7	212	214
 214	7	212	215
 215	6	193	206
 216	6	217	218
 217	7	217	219
 218	7	217	220
 219	3	218	221
 220	2	218	222
 221	5	221	223
 222	4	223	224
 223	1	223	228
 224	7	224	225
 225	7	224	226
 226	7	224	227
 227	6	205	218
 228	6	229	230
 229	7	229	231
 230	7	229	232
 231	3	230	233
 232	2	230	234
 233	5	233	235
 234	4	235	236
 235	1	235	240
 236	7	236	237
 237	7	236	238
 238	7	236	239
 239	6	217	230
 240	2	2	241
 241	7	229	242

Angles

   1	5	2	1	3
   2	5	2	1	4
   3	9	3	1	4
   4	3	1	2	5
   5	1	1	2	6
   6	7	5	2	6
   7	6	2	5	7
   8	4	5	7	8
   9	11	5	7	12
  10	8	8	7	12
  11	2	7	8	9
  12	2	7	8	10
  13	2	7	8	11
  14	9	9	8	10
  15	9	9	8	11
  16	9	10	8	11
  17	5	14	13	15
  18	5	14	13	16
  19	9	15	13	16
  20	3	13	14	17
  21	1	13	14	18
  22	7	17	14	18
  23	6	14	17	19
  24	4	17	19	20
  25	11	17	19	24
  26	8	20	19	24
  27	2	19	20	21
  28	2	19	20	22
  29	2	19	20	23
  30	9	21	20	22
  31	9	21	20	23
  32	9	22	20	23
  33	12	2	1	14
  34	5	3	1	14
  35	5	4	1	14
  36	12	1	14	13
  37	3	1	14	17
  38	1	1	14	18
  39	5	26	25	27
  40	5	26	25	28
  41	9	27	25	28
  42	3	25	26	29
  43	1	25	26	30
  44	7	29	26	30
  45	6	26	29	31
  46	4	29	31	32
  47	11	29	31	36
  48	8	32	31	36
  49	2	31	32	33
  50	2	31	32	34
  51	2	31	32	35
  52	9	33	32	34
  53	9	33	32	35
  54	9	34	32	35
  55	12	14	13	26
  56	5	15	13	26
  57	5	16	13	26
  58	12	13	26	25
  59	3	13	26	29
  60	1	13	26	30
  61	5	38	37	39
  62	5	38	37	40
  63	9	39	37	40
  64	3	37	38	41
  65	1	37	38	42
  66	7	41	38	42
  67	6	38	41	43
  68	4	41	43	44
  69	11	41	43	48
  70	8	44	43	48
  71	2	43	44	45
  72	2	43	44	46
  73	2	43	44	47
  74	9	45	44	46
  75	9	45	44	47
  76	9	46	44	47
  77	12	26	25	38
  78	5	27	25	38
  79	5	28	25	38
  80	12	25	38	37
  81	3	25	38	41
  82	1	25	38	42
  83	5	50	49	51
  84	5	50	49	52
  85	9	51	49	52
  86	3	49	50	53
  87	1	49	50	54
  88	7	53	50	54
  89	6	50	53	55
  90	4	53	55	56
  91	11	53	55	60
  92	8	56	55	60
  93	2	55	56	57
  94	2	55	56	58
  95	2	55	56	59
  96	9	57	56	58
  97	9	57	56	59
  98	9	58	56	59
  99	12	38	37	50
 100	5	39	37	50
 101	5	40	37	50
 102	12	37	50	49
 103	3	37	50	53
 104	1	37	50	54
 105	5	62	61	63
 106	5	62	61	64
 107	9	63	61	64
 108	3	61	62	65
 109	1	61	62	66
 110	7	65	62	66
 111	6	62	65	67
 112	4	65	67	68
 113	11	65	67	72
 114	8	68	67	72
 115	2	67	68	69
 116	2	67	68	70
 117	2	67	68	71
 118	9	69	68	70
 119	9	69	68	71
 120	9	70	68	71
 121	12	50	49	62
 122	5	51	49	62
 123	5	52	49	62
 124	12	49	62	61
 125	3	49	62	65
 126	1	49	62	66
 127	5	74	73	75
 128	5	74	73	76
 129	9	75	73	76
 130	3	73	74	77
 131	1	73	74	78
 132	7	77	74	78
 133	6	74	77	79
 134	4	77	79	80
 135	11	77	79	84
 136	8	80	79	84
 137	2	79	80	81
 138	2	79	80	82
 139	2	79	80	83
 140	9	81	80	82
 141	9	81	80	83
 142	9	82	80	83
 143	12	62	61	74
 144	5	63	61	74
 145	5	64	61	74
 146	12	61	74	73
 147	3	61	74	77
 148	1	61	74	78
 149	5	86	85	87
 150	5	86	85	88
 151	9	87	85	88
 152	3	85	86	89
 153	1	85	86	90
 154	7	89	86	90
 155	6	86	89	91
 156	4	89	91	92
 157	11	89	91	96
 158	8	92	91	96
 159	2	91	92	93
 160	2	91	92	94
 161	2	91	92	95
 162	9	93	92	94
 163	9	93	92	95
 164	9	94	92	95
 165	12	74	73	86
 166	5	75	73	86
 167	5	76	73	86
 168	12	73	86	85
 169	3	73	86	89
 170	1	73	86	90
 171	5	98	97	99
 172	5	98	97	100
 173	9	99	97	100
 174	3	97	98	101
 175	1	97	98	102
 176	7	101	98	102
 177	6	98	101	103
 178	4	101	103	104
 179	11	101	103	108
 180	8	104	103	108
 181	2	103	104	105
 182	2	103	104	106
 183	2	103	104	107
 184	9	105	104	106
 185	9	105	104	107
 186	9	106	104	107
 187	12	86	85	98
 188	5	87	85	98
 189	5	88	85	98
 190	12	85	98	97
 191	3	85	98	101
 192	1	85	98	102
 193	5	110	109	111
 194	5	110	109	112
 195	9	111	109	112
 196	3	109	110	113
 197	1	109	110	114
 198	7	113	110	114
 199	6	110	113	115
 200	4	113	115	116
 201	11	113	115	120
 202	8	116	115	120
 203	2	115	116	117
 204	2	115	116	118
 205	2	115	116	119
 206	9	117	116	118
 207	9	117	116	119
 208	9	118	116	119
 209	12	98	97	110
 210	5	99	97	110
 211	5	100	97	110
 212	12	97	110	109
 213	3	97	110	113
 214	1	97	110	114
 215	5	122	121	123
 216	5	122	121	124
 217	9	123	121	124
 218	3	121	122	125
 219	1	121	122	126
 220	7	125	122	126
 221	6	122	125	127
 222	4	125	127	128
 223	11	125	127	132
 224	8	128	127	132
 225	2	127	128	129
 226	2	127	128	130
 227	2	127	128	131
 228	9	129	128	130
 229	9	129	128	131
 230	9	130	128	131
 231	12	110	109	122
 232	5	111	109	122
 233	5	112	109	122
 234	12	109	122	121
 235	3	109	122	125
 236	1	109	122	126
 237	5	134	133	135
 238	5	134	133	136
 239	9	135	133	136
 240	3	133	134	137
 241	1	133	134	138
 242	7	137	134	138
 243	6	134	137	139
 244	4	137	139	140
 245	11	137	139	144
 246	8	140	139	144
 247	2	139	140	141
 248	2	139	140	142
 249	2	139	140	143
 250	9	141	140	142
 251	9	141	140	143
 252	9	142	140	143
 253	12	122	121	134
 254	5	123	121	134
 255	5	124	121	134
 256	12	121	134	133
 257	3	121	134	137