pySIMM System Object

254 atoms
253 bonds
462 angles
600 dihedrals
21 impropers

6 atom types
7 bond types
12 angle types
10 dihedral types
1 improper types

-89.420833 89.420833 xlo xhi
-89.420833 89.420833 ylo yhi
-89.420833 89.420833 zlo zhi

Masses

   1	12.01	# c3
   2	1.008	# hc
   3	16.0	# os
   4	1.008	# h1
   5	12.01	# c
   6	16.0	# o

Pair Coeffs

   1	0.1094	3.3996695084235347	# c3
   2	0.0157	2.649532787749369	# hc
   3	0.17	3.0000123434657784	# os
   4	0.0157	2.471353044121301	# h1
   5	0.086	3.3996695084235347	# c
   6	0.21	2.959921901149463	# o

Bond Coeffs

   1	637.7	1.2183	# c,o
   2	330.6	1.0969	# c3,h1
   3	308.6	1.4316	# c3,os
   4	313.0	1.5241	# c,c3
   5	390.8	1.3584	# c,os
   6	300.9	1.5375	# c3,c3
   7	330.6	1.0969	# c3,hc

Angle Coeffs

   1	46.39	109.56	# c3,c3,h1
   2	46.93	108.77	# c,c3,hc
   3	68.0	107.97	# c3,c3,os
   4	68.89	110.72	# c3,c,os
   5	46.34	109.8	# c3,c3,hc
   6	63.28	115.98	# c,os,c3
   7	50.8	109.78	# h1,c3,os
   8	67.4	123.2	# c3,c,o
   9	39.4	107.58	# hc,c3,hc
  10	39.24	108.46	# h1,c3,h1
  11	75.32	123.25	# o,c,os
  12	62.86	111.51	# c3,c3,c3

Dihedral Coeffs

   1	1	0.0	2	180	# X,c,c3,X
   2	1	0.3833333333333333	3	0	# X,c3,os,X
   3	3	0.8	1	0	0.0	2	0	0.08	3	180	# hc,c3,c,o
   4	3	2.7	2	180	0.0	1	0	1.15	3	0	# c3,c,os,c3
   5	1	0.15555555555555556	3	0	# X,c3,c3,X
   6	2	2.7	2	180	1.4	1	180	# o,c,os,c3
   7	2	0.383	3	0	0.8	1	180	# c3,c3,os,c
   8	2	0.0	3	0	0.25	1	0	# hc,c3,c3,os
   9	1	0.16	3	0	# hc,c3,c3,c3
  10	3	0.18	3	0	0.25	2	180	0.2	1	180	# c3,c3,c3,c3

Improper Coeffs

   1	10.5	-1	2	# c,X,X,o

Atoms

   1	1	1	-0.003445	-5.89169	-4.62603	2.12927
   2	1	1	0.299845	-4.84475	-5.58751	1.51872
   3	1	2	0.023286	-5.38582	-3.95979	2.83024
   4	1	2	-0.011958	-6.32445	-3.98188	1.35528
   5	1	3	-0.518063	-4.14545	-4.94589	0.4351
   6	1	4	0.011666	-5.32303	-6.50989	1.16464
   7	1	5	0.843192	-4.79048	-4.83271	-0.758427
   8	1	1	-0.399874	-3.90706	-4.19283	-1.8036
   9	1	2	0.119224	-4.2207	-4.53399	-2.79561
  10	1	2	0.109051	-2.86264	-4.47359	-1.63694
  11	1	2	0.118031	-4.00042	-3.10482	-1.74919
  12	1	6	-0.590955	-5.90426	-5.25859	-0.99236
  13	1	1	-0.003445	-6.50759	-6.37897	3.93119
  14	1	1	0.299845	-7.02082	-5.32504	2.91852
  15	1	2	0.023286	-5.61872	-6.00514	4.45123
  16	1	2	-0.011958	-6.17593	-7.26954	3.38184
  17	1	3	-0.518063	-7.90861	-5.99806	2.01103
  18	1	4	0.011666	-7.56545	-4.5427	3.45806
  19	1	5	0.843192	-8.78637	-5.2597	1.28088
  20	1	1	-0.399874	-9.64094	-6.15686	0.421827
  21	1	2	0.119224	-10.1127	-6.91745	1.05106
  22	1	2	0.109051	-9.00636	-6.6468	-0.323466
  23	1	2	0.118031	-10.4074	-5.55858	-0.0799448
  24	1	6	-0.590955	-8.98791	-4.06836	1.41935
  25	1	1	-0.003445	-8.09463	-5.6266	5.87953
  26	1	1	0.299845	-7.59947	-6.77595	4.96106
  27	1	2	0.023286	-8.58938	-4.84534	5.29149
  28	1	2	-0.011958	-8.87702	-6.04927	6.523
  29	1	3	-0.518063	-7.09782	-7.79222	5.8502
  30	1	4	0.011666	-8.47146	-7.16455	4.41832
  31	1	5	0.843192	-7.01453	-9.0803	5.4331
  32	1	1	-0.399874	-6.57452	-9.96722	6.57219
  33	1	2	0.119224	-6.56893	-11.0107	6.2431
  34	1	2	0.109051	-7.27163	-9.84826	7.40801
  35	1	2	0.118031	-5.57247	-9.67147	6.8964
  36	1	6	-0.590955	-7.33023	-9.49136	4.33555
  37	1	1	-0.003445	-7.54352	-4.23585	8.01108
  38	1	1	0.299845	-6.99231	-5.00786	6.78231
  39	1	2	0.023286	-6.69806	-3.82404	8.5655
  40	1	2	-0.011958	-8.00459	-4.95468	8.70145
  41	1	3	-0.518063	-6.1726	-4.11175	6.00032
  42	1	4	0.011666	-6.3746	-5.83015	7.16501
  43	1	5	0.843192	-4.91489	-3.84391	6.45088
  44	1	1	-0.399874	-4.21537	-2.84935	5.56281
  45	1	2	0.119224	-4.00808	-3.30684	4.59272
  46	1	2	0.109051	-3.26877	-2.55379	6.02632
  47	1	2	0.118031	-4.8556	-1.97436	5.42757
  48	1	6	-0.590955	-4.40429	-4.33188	7.43924
  49	1	1	-0.003445	-8.6458	-2.01786	8.77598
  50	1	1	0.299845	-8.57038	-3.12031	7.6747
  51	1	2	0.023286	-8.64464	-2.49932	9.76178
  52	1	2	-0.011958	-9.60603	-1.49482	8.7213
  53	1	3	-0.518063	-9.83986	-3.79931	7.56697
  54	1	4	0.011666	-8.31714	-2.6674	6.71047
  55	1	5	0.843192	-10.9317	-3.18203	7.04551
  56	1	1	-0.399874	-12.0906	-4.14208	6.92551
  57	1	2	0.119224	-12.4989	-4.07826	5.91241
  58	1	2	0.109051	-12.8596	-3.8703	7.6545
  59	1	2	0.118031	-11.7541	-5.16648	7.11579
  60	1	6	-0.590955	-11.0054	-2.01538	6.71891
  61	1	1	-0.003445	-7.295	-0.24503	7.36126
  62	1	1	0.299845	-7.53179	-0.926707	8.73021
  63	1	2	0.023286	-6.49616	0.496843	7.48407
  64	1	2	-0.011958	-6.9061	-0.979189	6.64535
  65	1	3	-0.518063	-6.26088	-1.47805	9.11564
  66	1	4	0.011666	-7.80781	-0.134703	9.43863
  67	1	5	0.843192	-5.98464	-1.62124	10.4379
  68	1	1	-0.399874	-4.61972	-2.22821	10.6395
  69	1	2	0.119224	-3.87053	-1.6125	10.1334
  70	1	2	0.109051	-4.60456	-3.23595	10.2116
  71	1	2	0.118031	-4.3977	-2.27558	11.7102
  72	1	6	-0.590955	-6.72008	-1.2936	11.3473
  73	1	1	-0.003445	-8.22762	1.25118	5.47801
  74	1	1	0.299845	-8.5477	0.444453	6.76284
  75	1	2	0.023286	-7.29031	1.80349	5.61936
  76	1	2	-0.011958	-9.00927	2.00336	5.30517
  77	1	3	-0.518063	-9.20979	1.2812	7.73973
  78	1	4	0.011666	-9.2577	-0.339652	6.49078
  79	1	5	0.843192	-8.65133	2.42106	8.22713
  80	1	1	-0.399874	-9.59549	3.11105	9.18149
  81	1	2	0.119224	-10.6235	3.00444	8.81997
  82	1	2	0.109051	-9.33882	4.17324	9.24597
  83	1	2	0.118031	-9.51099	2.64641	10.1682
  84	1	6	-0.590955	-7.54931	2.84632	7.94566
  85	1	1	-0.003445	-7.43862	1.13538	3.05802
  86	1	1	0.299845	-8.09507	0.360376	4.2215
  87	1	2	0.023286	-8.0478	2.02306	2.84276
  88	1	2	-0.011958	-6.45713	1.50905	3.37449
  89	1	3	-0.518063	-9.42317	-0.000359448	3.80168
  90	1	4	0.011666	-7.47591	-0.512548	4.45731
  91	1	5	0.843192	-9.86048	-1.27881	3.94535
  92	1	1	-0.399874	-11.2991	-1.40065	3.49824
  93	1	2	0.119224	-11.4516	-2.37699	3.02975
  94	1	2	0.109051	-11.5371	-0.60894	2.78012
  95	1	2	0.118031	-11.9528	-1.29484	4.36963
  96	1	6	-0.590955	-9.17964	-2.20705	4.34086
  97	1	1	-0.003445	-6.34171	-0.919797	1.86501
  98	1	1	0.299845	-7.29141	0.309661	1.75637
  99	1	2	0.023286	-6.51487	-1.551	0.98647
 100	1	2	-0.011958	-6.62421	-1.55065	2.71694
 101	1	3	-0.518063	-6.79511	1.23427	0.766394
 102	1	4	0.011666	-8.2887	-0.0410734	1.45958
 103	1	5	0.843192	-6.81882	0.902632	-0.550202
 104	1	1	-0.399874	-6.14539	1.96217	-1.38743
 105	1	2	0.119224	-6.85285	2.32321	-2.13945
 106	1	2	0.109051	-5.27167	1.52408	-1.87889
 107	1	2	0.118031	-5.82688	2.79818	-0.755577
 108	1	6	-0.590955	-7.19915	-0.156666	-1.00094
 109	1	1	-0.003445	-3.9499	-1.75258	1.49804
 110	1	1	0.299845	-4.83308	-0.559878	1.95137
 111	1	2	0.023286	-4.41192	-2.23505	0.629394
 112	1	2	-0.011958	-3.94822	-2.49065	2.30069
 113	1	3	-0.518063	-4.54792	-0.265589	3.33438
 114	1	4	0.011666	-4.63567	0.304218	1.30805
 115	1	5	0.843192	-3.5365	0.588413	3.63792
 116	1	1	-0.399874	-3.33847	0.687487	5.13102
 117	1	2	0.119224	-4.29634	0.570029	5.6466
 118	1	2	0.109051	-2.9068	1.6626	5.37824
 119	1	2	0.118031	-2.65539	-0.106462	5.44881
 120	1	6	-0.590955	-2.89638	1.22616	2.82589
 121	1	1	-0.003445	-2.39051	-0.499957	-0.127595
 122	1	1	0.299845	-2.48576	-1.40752	1.12449
 123	1	2	0.023286	-3.09012	-0.879859	-0.881941
 124	1	2	-0.011958	-2.72514	0.514593	0.120808
 125	1	3	-0.518063	-1.76833	-2.61439	0.805593
 126	1	4	0.011666	-1.99443	-0.917775	1.97138
 127	1	5	0.843192	-1.41775	-3.47597	1.79441
 128	1	1	-0.399874	-0.550253	-4.57685	1.23859
 129	1	2	0.119224	-1.09683	-5.10395	0.450961
 130	1	2	0.109051	-0.281036	-5.27368	2.03839
 131	1	2	0.118031	0.357558	-4.13451	0.81615
 132	1	6	-0.590955	-1.68326	-3.34735	2.97328
 133	1	1	-0.003445	0.0948876	0.165231	0.218164
 134	1	1	0.299845	-0.964813	-0.432887	-0.744307
 135	1	2	0.023286	-0.032834	1.25493	0.25225
 136	1	2	-0.011958	-0.0880114	-0.191529	1.23705
 137	1	3	-0.518063	-1.02409	0.424725	-1.90293
 138	1	4	0.011666	-0.642215	-1.44054	-1.03861
 139	1	5	0.843192	-1.56177	-0.0566268	-3.05339
 140	1	1	-0.399874	-1.5754	1.00546	-4.12494
 141	1	2	0.119224	-2.06953	0.612774	-5.01954
 142	1	2	0.109051	-0.547918	1.29581	-4.36444
 143	1	2	0.118031	-2.12075	1.87991	-3.75693
 144	1	6	-0.590955	-1.95136	-1.19414	-3.2237
 145	1	1	-0.003445	1.93648	-0.098494	-1.62362
 146	1	1	0.299845	1.57094	-0.184792	-0.12694
 147	1	2	0.023286	1.30194	-0.770314	-2.21404
 148	1	2	-0.011958	1.7214	0.916575	-1.98007
 149	1	3	-0.518063	2.41288	0.780079	0.531649
 150	1	4	0.011666	1.79754	-1.20323	0.216432
 151	1	5	0.843192	2.66851	0.642614	1.8562
 152	1	1	-0.399874	3.50632	1.79301	2.3565
 153	1	2	0.119224	3.76217	1.62484	3.40735
 154	1	2	0.109051	2.93618	2.72195	2.25747
 155	1	2	0.118031	4.41849	1.864	1.75614
 156	1	6	-0.590955	2.29106	-0.276757	2.55264
 157	1	1	-0.003445	4.0274	0.339069	-3.03876
 158	1	1	0.299845	3.41862	-0.475282	-1.88087
 159	1	2	0.023286	4.92004	-0.168405	-3.42429
 160	1	2	-0.011958	3.28718	0.335579	-3.84196
 161	1	3	-0.518063	3.45866	-1.86199	-2.26869
 162	1	4	0.011666	4.02209	-0.294635	-0.984148
 163	1	5	0.843192	4.07881	-2.75979	-1.46054
 164	1	1	-0.399874	3.99112	-4.15032	-2.03926
 165	1	2	0.119224	4.59158	-4.19787	-2.95281
 166	1	2	0.109051	2.94855	-4.37921	-2.28085
 167	1	2	0.118031	4.36937	-4.87251	-1.30885
 168	1	6	-0.590955	4.60323	-2.5051	-0.395501
 169	1	1	-0.003445	4.83591	2.80821	-3.69664
 170	1	1	0.299845	4.36469	1.79731	-2.60475
 171	1	2	0.023286	5.73419	3.32571	-3.33688
 172	1	2	-0.011958	4.07323	3.59355	-3.78405
 173	1	3	-0.518063	5.30266	1.76063	-1.50363
 174	1	4	0.011666	3.44118	2.22747	-2.20073
 175	1	5	0.843192	6.57498	1.308	-1.66721
 176	1	1	-0.399874	7.28489	1.2242	-0.339293
 177	1	2	0.119224	6.60862	0.789396	0.404261
 178	1	2	0.109051	7.58152	2.22711	-0.0190969
 179	1	2	0.118031	8.16813	0.585909	-0.441293
 180	1	6	-0.590955	7.08758	1.01644	-2.72922
 181	1	1	-0.003445	5.68427	3.3703	-6.02355
 182	1	1	0.299845	5.11377	2.24759	-5.11491
 183	1	2	0.023286	4.83851	3.97475	-6.37345
 184	1	2	-0.011958	6.29171	4.05371	-5.41843
 185	1	3	-0.518063	3.84075	1.82048	-5.64072
 186	1	4	0.011666	5.81623	1.41198	-5.02381
 187	1	5	0.843192	3.79479	0.807787	-6.54331
 188	1	1	-0.399874	2.36677	0.368991	-6.76982
 189	1	2	0.119224	1.8119	1.17261	-7.26198
 190	1	2	0.109051	1.8974	0.144098	-5.80682
 191	1	2	0.118031	2.35704	-0.529383	-7.39534
 192	1	6	-0.590955	4.76214	0.207281	-6.96276
 193	1	1	-0.003445	7.86963	2.19378	-6.84339
 194	1	1	0.299845	6.53962	2.9078	-7.2384
 195	1	2	0.023286	8.25306	1.65805	-7.72085
 196	1	2	-0.011958	7.66959	1.42399	-6.08977
 197	1	3	-0.518063	6.89458	4.09543	-7.97901
 198	1	4	0.011666	5.95301	2.2346	-7.87475
 199	1	5	0.843192	5.97189	4.73207	-8.74488
 200	1	1	-0.399874	6.54252	6.01537	-9.30179
 201	1	2	0.119224	7.59066	5.86704	-9.57852
 202	1	2	0.109051	6.47925	6.79731	-8.53785
 203	1	2	0.118031	5.96994	6.31545	-10.1847
 204	1	6	-0.590955	4.83501	4.35331	-8.93817
 205	1	1	-0.003445	9.79772	3.86743	-7.42715
 206	1	1	0.299845	8.95924	3.17143	-6.31348
 207	1	2	0.023286	10.8015	3.4385	-7.46859
 208	1	2	-0.011958	9.36399	3.67833	-8.41696
 209	1	3	-0.518063	9.86606	2.54531	-5.37604
 210	1	4	0.011666	8.43226	3.94819	-5.74873
 211	1	5	0.843192	10.6812	1.51883	-5.74199
 212	1	1	-0.399874	11.8279	1.3924	-4.76543
 213	1	2	0.119224	12.7652	1.36601	-5.33053
 214	1	2	0.109051	11.7192	0.472205	-4.18599
 215	1	2	0.118031	11.844	2.25349	-4.08872
 216	1	6	-0.590955	10.6835	0.976353	-6.82835
 217	1	1	-0.003445	10.8923	6.06556	-8.20998
 218	1	1	0.299845	9.90401	5.39297	-7.21361
 219	1	2	0.023286	10.8504	7.15497	-8.09215
 220	1	2	-0.011958	10.5051	5.8697	-9.21915
 221	1	3	-0.518063	10.2714	5.63825	-5.84413
 222	1	4	0.011666	8.90562	5.81428	-7.38799
 223	1	5	0.843192	10.0978	6.87771	-5.31769
 224	1	1	-0.399874	10.6399	6.94321	-3.91071
 225	1	2	0.119224	11.6668	6.56485	-3.89663
 226	1	2	0.109051	10.0218	6.32325	-3.25511
 227	1	2	0.118031	10.6276	7.9816	-3.56504
 228	1	6	-0.590955	9.62395	7.82855	-5.90493
 229	1	1	-0.003445	13.1583	6.14846	-6.93842
 230	1	1	0.299845	12.3815	5.61097	-8.1707
 231	1	2	0.023286	13.2833	7.22983	-7.06658
 232	1	2	-0.011958	12.5682	6.03432	-6.03256
 233	1	3	-0.518063	12.9342	6.20117	-9.36092
 234	1	4	0.011666	12.438	4.51829	-8.2244
 235	1	5	0.843192	13.9683	5.61669	-10.0124
 236	1	1	-0.399874	14.2497	6.34763	-11.3036
 237	1	2	0.119224	14.9601	7.1575	-11.1136
 238	1	2	0.109051	13.3186	6.77146	-11.6953
 239	1	2	0.118031	14.6649	5.647	-12.0342
 240	1	6	-0.590955	14.4701	4.55315	-9.70864
 241	1	1	-0.003445	14.3445	4.07043	-5.98893
 242	1	1	0.299845	14.5166	5.47207	-6.62096
 243	1	2	0.023286	13.8212	3.3911	-6.67251
 244	1	2	-0.011958	13.7696	4.12268	-5.05456
 245	1	3	-0.518063	15.1655	6.30691	-5.64369
 246	1	4	0.011666	15.144	5.38631	-7.51378
 247	1	5	0.843192	15.7476	7.45559	-6.07881
 248	1	1	-0.399874	16.1115	8.34787	-4.91938
 249	1	2	0.119224	16.8048	9.12092	-5.26447
 250	1	2	0.109051	16.5748	7.75533	-4.12502
 251	1	2	0.118031	15.1985	8.81549	-4.53831
 252	1	6	-0.590955	15.8639	7.78994	-7.24164
 253	1	4	0	-4.1232	-5.86042	2.29876
 254	1	2	0	15.3218	3.62676	-5.7599

Velocities

   1	-0.000316387	-0.00108621	0.000121502
   2	-0.00132002	-0.00177739	-0.000360625
   3	0.00112571	-0.00185547	1.26198e-05
   4	0.000506056	-0.000145881	0.000297004
   5	-0.00035799	-0.00176628	0.000775631
   6	-0.00267593	-0.000871555	-0.0014448
   7	8.70767e-05	-0.000687161	0.000319333
   8	-1.67297e-05	0.000395734	0.0014119
   9	-0.000541823	0.00134365	0.00106116
  10	-4.07711e-05	0.000181572	0.000650493
  11	-0.000271739	0.000413574	0.00221611
  12	0.000120071	-0.000723586	-0.00019848
  13	-0.000838153	0.000409582	0.000963294
  14	-0.000446234	0.000165104	0.000691367
  15	-0.000629007	0.000486988	0.000930535
  16	-0.000475282	0.000122273	0.00110269
  17	-0.000676597	0.000261008	0.000670364
  18	2.86262e-05	0.000705117	0.000482366
  19	-0.000240135	0.000314416	0.000127738
  20	0.000774861	0.000555249	-0.000598729
  21	0.00071495	8.54266e-05	-0.00131364
  22	0.00104806	0.00120396	-0.000741212
  23	0.000678363	0.000402921	-0.00066486
  24	-0.000120895	0.000227264	0.000359036
  25	-0.000174703	0.000428669	0.00100836
  26	-0.000642443	0.000479491	0.000887428
  27	-0.00011609	0.000555084	0.000959407
  28	-0.000255783	0.000660693	0.00113899
  29	-0.00047194	6.61102e-05	0.000782152
  30	-0.000743395	0.000702578	0.00115836
  31	-0.000406681	0.000497889	-0.000294625
  32	0.000945394	-0.000505237	-0.00139936
  33	0.00114436	8.80954e-05	-0.00243514
  34	0.0016299	-0.00154937	-0.000711984
  35	0.0010589	-0.000285844	-0.00197021
  36	-0.000736126	0.00103126	-0.000406647
  37	-0.000269524	0.000119877	0.000974008
  38	-4.39438e-05	0.00037849	0.000956682
  39	-0.000455503	0.000112453	0.00130596
  40	-0.000401567	1.87981e-05	0.000778402
  41	-0.000225545	0.000443577	0.000781739
  42	4.16043e-05	0.000473208	0.000793274
  43	-0.000491175	0.00147634	0.00102922
  44	-0.000241487	0.000334278	-9.14224e-05
  45	0.000802612	-0.00125636	0.000870126
  46	-0.000808804	0.00155534	0.000173503
  47	-0.000555016	-0.000216403	-0.0021376
  48	-0.000817298	0.00286922	0.00191314
  49	-4.67215e-05	0.000508908	0.000326423
  50	-0.000314408	0.000105325	0.000825436
  51	-0.000250655	0.000921162	0.000498102
  52	4.71165e-06	0.000676434	-8.17325e-06
  53	-0.000432556	0.000239196	0.00132168
  54	-0.000457999	-0.000327248	0.000612654
  55	-0.000105898	0.000125223	0.000576558
  56	-0.000197262	0.000277405	0.000576344
  57	-0.000529732	0.000789714	0.00076046
  58	0.000104834	-3.27605e-05	0.00100403
  59	-0.000125315	0.00019294	-3.94809e-05
  60	0.000602674	-0.000281816	-0.00108421
  61	-4.23517e-05	-0.000275923	-0.000602214
  62	0.000213994	0.000238177	-0.000246142
  63	0.000279294	-0.00054358	-0.00114245
  64	-0.000532791	-0.000651977	-0.000465102
  65	0.00029888	0.000222714	-0.000473731
  66	0.000654285	0.000428987	-0.000342648
  67	-0.000215662	-0.00158075	-0.000523524
  68	0.000260368	-0.000643429	-0.000784757
  69	-0.000172155	0.000101469	-0.000530524
  70	0.00108509	-0.000471887	-0.00119142
  71	0.000286534	-0.000889746	-0.000810794
  72	-0.000971645	-0.00373021	-0.000443777
  73	-0.000141836	4.08536e-08	-0.000513906
  74	8.97087e-06	-4.44823e-05	-0.000485091
  75	-0.000508514	0.000557684	-0.000358337
  76	-0.000556019	-0.000473651	-0.000743339
  77	0.00023409	6.50394e-05	-0.000406368
  78	-0.000154288	0.000100857	-0.000414352
  79	0.000749234	-0.000392668	4.17854e-05
  80	0.000965037	-0.000264171	0.000149046
  81	0.00103491	0.000967797	-0.000404066
  82	0.00190554	-0.000542232	0.00117527
  83	9.75133e-05	-0.001222	-0.000222174
  84	0.0011655	-0.00105831	0.000637378
  85	0.000355151	0.00033616	-0.000519499
  86	0.000690023	5.01443e-05	-0.000492644
  87	0.000143445	0.000228498	-0.000410401
  88	0.000303397	0.000525285	-0.000573625
  89	0.00106022	-0.00102821	-0.000783298
  90	0.00129768	0.000528204	-0.000353938
  91	0.00193139	-0.00131348	-0.000576271
  92	0.00221539	-0.00244994	-0.00119432
  93	0.0026434	-0.00342476	0.000594759
  94	0.00258389	-0.00390099	-0.00288333
  95	0.0016845	-0.000856996	-0.00182371
  96	0.00242717	-0.000690951	3.05627e-05
  97	7.7042e-05	0.000169028	-0.000441712
  98	0.000347698	0.000398159	-0.000603797
  99	-2.31192e-05	9.51264e-05	-0.000352827
 100	-6.30282e-05	0.000263936	-0.000423698
 101	0.000416924	0.000360478	-0.000666823
 102	0.000311934	0.000524178	-0.000627037
 103	0.000663808	0.000234614	-0.000674908
 104	-0.000201236	0.000625571	-0.000903882
 105	-0.000730435	0.000353609	-0.000571344
 106	-0.000268076	0.00104493	-0.00139104
 107	-0.000282475	0.000727076	-0.00102098
 108	0.00127967	-3.66301e-05	-0.000561769
 109	-1.81448e-05	-0.000181461	-0.000192821
 110	7.82946e-05	-4.86671e-05	-0.000412129
 111	0.000158686	2.22944e-05	-0.000410861
 112	-0.000351499	-0.000300491	-0.000291598
 113	7.57934e-05	0.000297219	-0.00045512
 114	0.000134187	-0.000213343	-0.00056231
 115	0.000330432	7.65217e-05	-0.000606009
 116	-0.000369045	0.00117323	-0.000596468
 117	-0.000825265	0.00280215	-0.00105618
 118	0.000653435	0.000916973	-0.00127434
 119	-0.00148671	0.000691287	0.000540733
 120	0.000765258	-0.000526397	-0.000726876
 121	8.64098e-05	0.000827981	0.00106931
 122	7.65381e-05	-0.000181594	0.000328451
 123	-0.00047363	0.00200283	0.00100678
 124	0.000789277	0.000812511	0.0021646
 125	-5.84279e-05	-0.000304741	0.000103024
 126	2.42705e-05	-0.000781528	0.000692433
 127	-0.000358652	-0.000170755	0.000373004
 128	-0.00134142	-0.00126198	0.000857151
 129	-0.00193245	-0.00145576	0.00139009
 130	-0.0017203	-0.000880961	0.00134795
 131	-0.00110187	-0.00234313	0.000313282
 132	-0.000115887	0.000435894	0.000357042
 133	-5.48773e-05	0.00141823	9.25073e-05
 134	-0.00017578	0.000735935	0.000699888
 135	0.000710066	0.00158365	-0.00167725
 136	-0.0005844	0.00314931	0.000607557
 137	-0.000389967	0.00032772	0.000473956
 138	-0.000142148	0.000678427	0.000982306
 139	-0.000451495	-3.30517e-05	0.000676087
 140	0.000250737	-0.000439739	0.00025229
 141	0.000688063	-0.000714876	0.000135994
 142	0.000452064	-0.00072079	0.000754777
 143	0.00022027	-0.000216136	-0.000335189
 144	-0.000653093	9.4866e-06	0.00108885
 145	-0.000309227	-0.000139866	0.000357296
 146	-0.00034032	4.93608e-05	0.00038432
 147	-0.00030966	-0.000251269	0.000472477
 148	-0.000499602	-0.000228729	0.000243931
 149	0.000295141	-0.000584277	0.000455717
 150	-0.00117372	-0.000115547	0.000458328
 151	-0.000371667	-0.000388752	0.000556784
 152	0.000249898	-0.000817304	0.00043998
 153	0.000322498	-0.000886945	0.000398074
 154	0.000674071	-0.000570665	0.000436583
 155	0.000143409	-0.00130776	0.000217327
 156	-0.00141965	0.000190961	0.00079141
 157	-0.000726205	0.000424704	1.92663e-05
 158	-0.000291136	0.000177758	3.90553e-05
 159	-0.000985979	0.000403463	-0.000525008
 160	-0.00107639	0.000872458	0.000282951
 161	0.000232187	0.000230651	-0.000170667
 162	-8.40153e-05	0.000271146	-0.00013775
 163	-0.00108071	0.000132363	0.000722049
 164	0.000172228	0.000253193	0.000193493
 165	0.000103696	0.00114697	9.5307e-05
 166	0.000346184	-0.00057568	0.000237262
 167	0.000924768	0.00035698	-0.000118995
 168	-0.00274428	-1.28556e-05	0.00154199
 169	-0.000347704	0.000347899	0.00059222
 170	-0.000243376	0.000181648	0.000451951
 171	-0.000646738	0.0006569	0.000883629
 172	-0.000617237	6.89042e-05	0.000314419
 173	0.000136452	-0.000214262	0.000119198
 174	-6.20254e-05	0.000257878	0.000857159
 175	4.77475e-05	-0.000285293	-0.000286307
 176	0.000670329	0.000365224	-0.000579699
 177	0.00160898	-0.000957686	-0.000534331
 178	-0.000866206	0.000754932	-0.000329152
 179	0.00170604	0.00186825	-0.00109856
 180	-0.000320993	-0.000411422	-0.000440542
 181	0.0006459	9.69075e-05	0.000897926
 182	0.000275711	0.000270422	0.000780625
 183	0.000943638	0.000688688	0.00127203
 184	0.00119038	-0.000466101	0.000958297
 185	0.000505631	0.000396827	0.000159193
 186	0.000154627	0.000216041	0.00112148
 187	0.0011633	0.000867667	-0.000466272
 188	0.00126836	0.00165227	-0.00256809
 189	0.00235422	0.00224217	-0.00287007
 190	-0.000124111	0.00122531	-0.00339115
 191	0.00183706	0.00209447	-0.00322802
 192	0.00134515	0.000947373	9.81394e-05
 193	4.86123e-06	-0.000100175	0.000173129
 194	-4.40277e-05	-0.000184536	0.000542667
 195	7.54285e-05	6.48278e-05	-6.23659e-06
 196	0.000238282	-0.000254864	8.0092e-05
 197	-0.000370094	-0.000462407	3.94469e-05
 198	-0.000233282	-0.000348798	0.000963151
 199	-0.000690535	-0.00111424	-0.000149652
 200	-0.000889585	-0.00147933	-0.00124033
 201	-0.00163663	-0.00241252	-0.00352004
 202	0.00142413	-0.00148575	-0.00107687
 203	-0.00261256	-0.000947109	2.15777e-05
 204	-0.000619342	-0.00154507	0.000223309
 205	-0.000154652	0.000230501	0.000199842
 206	-5.4712e-05	4.24286e-05	0.000144062
 207	-0.000174383	9.51271e-05	-2.91235e-05
 208	-0.000440712	0.000493376	0.000238227
 209	-0.000214276	-0.000191006	0.000245277
 210	-8.61878e-06	9.2052e-06	0.000246076
 211	-0.00068074	-0.000573243	0.000237059
 212	-0.0024133	-0.00322418	0.00182119
 213	-0.00175276	-0.00587263	0.00317368
 214	-0.00573215	-0.00277872	0.00206386
 215	-0.00114248	-0.0030613	0.00158098
 216	-0.00021448	9.74604e-05	-0.000150069
 217	-0.000807802	0.000964045	0.000158251
 218	-0.000115715	0.000322402	0.0004122
 219	-0.000967376	0.000958133	0.000636714
 220	-0.00103273	0.00130204	0.000278239
 221	0.000480062	0.000290798	0.000188566
 222	-0.000319225	0.000131654	0.000794182
 223	-0.000952508	-2.48358e-05	0.000352179
 224	-0.00175794	5.35613e-05	0.000602261
 225	-0.00162588	0.00041639	0.00115483
 226	-0.00198004	-0.000376176	5.04167e-05
 227	-0.00248755	9.23666e-06	0.000711396
 228	-0.00248704	-0.000490681	0.000764142
 229	0.000570028	0.00221598	-0.00123259
 230	-0.000776202	0.00113881	-0.000215534
 231	0.00134253	0.00189426	-0.00290988
 232	0.000742646	0.00403301	-0.000843476
 233	-0.000612137	-5.25517e-05	-0.000876226
 234	-0.000877725	0.00107872	0.000685493
 235	-0.00162518	-0.00171119	-0.000493861
 236	0.00201031	-0.000856596	0.000812395
 237	0.00111983	-0.000859773	0.00368658
 238	0.00310531	-0.000871337	-0.00150294
 239	0.00446184	2.44047e-06	0.00167082
 240	-0.00326745	-0.00246182	-0.00030309
 241	0.000182742	0.00150886	-0.00248858
 242	0.000362286	0.00177779	-0.00173136
 243	0.000983512	0.00142832	-0.00330973
 244	-0.000666878	0.000696422	-0.00321099
 245	0.00109881	0.000861303	-0.0013843
 246	0.000151506	0.00202727	-0.00201062
 247	0.00132847	0.000972853	-0.000199031
 248	0.0026436	-0.000439481	0.000882665
 249	0.0022077	0.000295436	0.00112641
 250	0.00380755	-0.00173029	-0.000568912
 251	0.00300329	-0.000963767	0.00273804
 252	0.00109567	0.00206784	0.000122848
 253	-0.00255124	-0.00318405	-0.000495156
 254	-2.84147e-05	0.00195665	-0.00190603

Bonds

   1	6	1	2
   2	7	1	3
   3	7	1	4
   4	3	2	5
   5	2	2	6
   6	5	5	7
   7	4	7	8
   8	1	7	12
   9	7	8	9
  10	7	8	10
  11	7	8	11
  12	6	13	14
  13	7	13	15
  14	7	13	16
  15	3	14	17
  16	2	14	18
  17	5	17	19
  18	4	19	20
  19	1	19	24
  20	7	20	21
  21	7	20	22
  22	7	20	23
  23	6	1	14
  24	6	25	26
  25	7	25	27
  26	7	25	28
  27	3	26	29
  28	2	26	30
  29	5	29	31
  30	4	31	32
  31	1	31	36
  32	7	32	33
  33	7	32	34
  34	7	32	35
  35	6	13	26
  36	6	37	38
  37	7	37	39
  38	7	37	40
  39	3	38	41
  40	2	38	42
  41	5	41	43
  42	4	43	44
  43	1	43	48
  44	7	44	45
  45	7	44	46
  46	7	44	47
  47	6	25	38
  48	6	49	50
  49	7	49	51
  50	7	49	52
  51	3	50	53
  52	2	50	54
  53	5	53	55
  54	4	55	56
  55	1	55	60
  56	7	56	57
  57	7	56	58
  58	7	56	59
  59	6	37	50
  60	6	61	62
  61	7	61	63
  62	7	61	64
  63	3	62	65
  64	2	62	66
  65	5	65	67
  66	4	67	68
  67	1	67	72
  68	7	68	69
  69	7	68	70
  70	7	68	71
  71	6	49	62
  72	6	73	74
  73	7	73	75
  74	7	73	76
  75	3	74	77
  76	2	74	78
  77	5	77	79
  78	4	79	80
  79	1	79	84
  80	7	80	81
  81	7	80	82
  82	7	80	83
  83	6	61	74
  84	6	85	86
  85	7	85	87
  86	7	85	88
  87	3	86	89
  88	2	86	90
  89	5	89	91
  90	4	91	92
  91	1	91	96
  92	7	92	93
  93	7	92	94
  94	7	92	95
  95	6	73	86
  96	6	97	98
  97	7	97	99
  98	7	97	100
  99	3	98	101
 100	2	98	102
 101	5	101	103
 102	4	103	104
 103	1	103	108
 104	7	104	105
 105	7	104	106
 106	7	104	107
 107	6	85	98
 108	6	109	110
 109	7	109	111
 110	7	109	112
 111	3	110	113
 112	2	110	114
 113	5	113	115
 114	4	115	116
 115	1	115	120
 116	7	116	117
 117	7	116	118
 118	7	116	119
 119	6	97	110
 120	6	121	122
 121	7	121	123
 122	7	121	124
 123	3	122	125
 124	2	122	126
 125	5	125	127
 126	4	127	128
 127	1	127	132
 128	7	128	129
 129	7	128	130
 130	7	128	131
 131	6	109	122
 132	6	133	134
 133	7	133	135
 134	7	133	136
 135	3	134	137
 136	2	134	138
 137	5	137	139
 138	4	139	140
 139	1	139	144
 140	7	140	141
 141	7	140	142
 142	7	140	143
 143	6	121	134
 144	6	145	146
 145	7	145	147
 146	7	145	148
 147	3	146	149
 148	2	146	150
 149	5	149	151
 150	4	151	152
 151	1	151	156
 152	7	152	153
 153	7	152	154
 154	7	152	155
 155	6	133	146
 156	6	157	158
 157	7	157	159
 158	7	157	160
 159	3	158	161
 160	2	158	162
 161	5	161	163
 162	4	163	164
 163	1	163	168
 164	7	164	165
 165	7	164	166
 166	7	164	167
 167	6	145	158
 168	6	169	170
 169	7	169	171
 170	7	169	172
 171	3	170	173
 172	2	170	174
 173	5	173	175
 174	4	175	176
 175	1	175	180
 176	7	176	177
 177	7	176	178
 178	7	176	179
 179	6	157	170
 180	6	181	182
 181	7	181	183
 182	7	181	184
 183	3	182	185
 184	2	182	186
 185	5	185	187
 186	4	187	188
 187	1	187	192
 188	7	188	189
 189	7	188	190
 190	7	188	191
 191	6	169	182
 192	6	193	194
 193	7	193	195
 194	7	193	196
 195	3	194	197
 196	2	194	198
 197	5	197	199
 198	4	199	200
 199	1	199	204
 200	7	200	201
 201	7	200	202
 202	7	200	203
 203	6	181	194
 204	6	205	206
 205	7	205	207
 206	7	205	208
 207	3	206	209
 208	2	206	210
 209	5	209	211
 210	4	211	212
 211	1	211	216
 212	7	212	213
 213	7	212	214
 214	7	212	215
 215	6	193	206
 216	6	217	218
 217	7	217	219
 218	7	217	220
 219	3	218	221
 220	2	218	222
 221	5	221	223
 222	4	223	224
 223	1	223	228
 224	7	224	225
 225	7	224	226
 226	7	224	227
 227	6	205	218
 228	6	229	230
 229	7	229	231
 230	7	229	232
 231	3	230	233
 232	2	230	234
 233	5	233	235
 234	4	235	236
 235	1	235	240
 236	7	236	237
 237	7	236	238
 238	7	236	239
 239	6	217	230
 240	6	241	242
 241	7	241	243
 242	7	241	244
 243	3	242	245
 244	2	242	246
 245	5	245	247
 246	4	247	248
 247	1	247	252
 248	7	248	249
 249	7	248	250
 250	7	248	251
 251	6	229	242
 252	2	2	253
 253	7	241	254

Angles

   1	5	2	1	3
   2	5	2	1	4
   3	9	3	1	4
   4	3	1	2	5
   5	1	1	2	6
   6	7	5	2	6
   7	6	2	5	7
   8	4	5	7	8
   9	11	5	7	12
  10	8	8	7	12
  11	2	7	8	9
  12	2	7	8	10
  13	2	7	8	11
  14	9	9	8	10
  15	9	9	8	11
  16	9	10	8	11
  17	5	14	13	15
  18	5	14	13	16
  19	9	15	13	16
  20	3	13	14	17
  21	1	13	14	18
  22	7	17	14	18
  23	6	14	17	19
  24	4	17	19	20
  25	11	17	19	24
  26	8	20	19	24
  27	2	19	20	21
  28	2	19	20	22
  29	2	19	20	23
  30	9	21	20	22
  31	9	21	20	23
  32	9	22	20	23
  33	12	2	1	14
  34	5	3	1	14
  35	5	4	1	14
  36	12	1	14	13
  37	3	1	14	17
  38	1	1	14	18
  39	5	26	25	27
  40	5	26	25	28
  41	9	27	25	28
  42	3	25	26	29
  43	1	25	26	30
  44	7	29	26	30
  45	6	26	29	31
  46	4	29	31	32
  47	11	29	31	36
  48	8	32	31	36
  49	2	31	32	33
  50	2	31	32	34
  51	2	31	32	35
  52	9	33	32	34
  53	9	33	32	35
  54	9	34	32	35
  55	12	14	13	26
  56	5	15	13	26
  57	5	16	13	26
  58	12	13	26	25
  59	3	13	26	29
  60	1	13	26	30
  61	5	38	37	39
  62	5	38	37	40
  63	9	39	37	40
  64	3	37	38	41
  65	1	37	38	42
  66	7	41	38	42
  67	6	38	41	43
  68	4	41	43	44
  69	11	41	43	48
  70	8	44	43	48
  71	2	43	44	45
  72	2	43	44	46
  73	2	43	44	47
  74	9	45	44	46
  75	9	45	44	47
  76	9	46	44	47
  77	12	26	25	38
  78	5	27	25	38
  79	5	28	25	38
  80	12	25	38	37
  81	3	25	38	41
  82	1	25	38	42
  83	5	50	49	51
  84	5	50	49	52
  85	9	51	49	52
  86	3	49	50	53
  87	1	49	50	54
  88	7	53	50	54
  89	6	50	53	55
  90	4	53	55	56
  91	11	53	55	60
  92	8	56	55	60
  93	2	55	56	57
  94	2	55	56	58
  95	2	55	56	59
  96	9	57	56	58
  97	9	57	56	59
  98	9	58	56	59
  99	12	38	37	50
 100	5	39	37	50
 101	5	40	37	50
 102	12	37	50	49
 103	3	37	50	53
 104	1	37	50	54
 105	5	62	61	63
 106	5	62	61	64
 107	9	63	61	64
 108	3	61	62	65
 109	1	61	62	66
 110	7	65	62	66
 111	6	62	65	67
 112	4	65	67	68
 113	11	65	67	72
 114	8	68	67	72
 115	2	67	68	69
 116	2	67	68	70
 117	2	67	68	71
 118	9	69	68	70
 119	9	69	68	71
 120	9	70	68	71
 121	12	50	49	62
 122	5	51	49	62
 123	5	52	49	62
 124	12	49	62	61
 125	3	49	62	65
 126	1	49	62	66
 127	5	74	73	75
 128	5	74	73	76
 129	9	75	73	76
 130	3	73	74	77
 131	1	73	74	78
 132	7	77	74	78
 133	6	74	77	79
 134	4	77	79	80
 135	11	77	79	84
 136	8	80	79	84
 137	2	79	80	81
 138	2	79	80	82
 139	2	79	80	83
 140	9	81	80	82
 141	9	81	80	83
 142	9	82	80	83
 143	12	62	61	74
 144	5	63	61	74
 145	5	64	61	74
 146	12	61	74	73
 147	3	61	74	77
 148	1	61	74	78
 149	5	86	85	87
 150	5	86	85	88
 151	9	87	85	88
 152	3	85	86	89
 153	1	85	86	90
 154	7	89	86	90
 155	6	86	89	91
 156	4	89	91	92
 157	11	89	91	96
 158	8	92	91	96
 159	2	91	92	93
 160	2	91	92	94
 161	2	91	92	95
 162	9	93	92	94
 163	9	93	92	95
 164	9	94	92	95
 165	12	74	73	86
 166	5	75	73	86
 167	5	76	73	86
 168	12	73	86	85
 169	3	73	86	89
 170	1	73	86	90
 171	5	98	97	99
 172	5	98	97	100
 173	9	99	97	100
 174	3	97	98	101
 175	1	97	98	102
 176	7	101	98	102
 177	6	98	101	103
 178	4	101	103	104
 179	11	101	103	108
 180	8	104	103	108
 181	2	103	104	105
 182	2	103	104	106
 183	2	103	104	107
 184	9	105	104	106
 185	9	105	104	107
 186	9	106	104	107
 187	12	86	85	98
 188	5	87	85	98
 189	5	88	85	98
 190	12	85	98	97
 191	3	85	98	101
 192	1	85	98	102
 193	5	110	109	111
 194	5	110	109	112