pySIMM System Object

494 atoms
493 bonds
902 angles
1180 dihedrals
41 impropers

6 atom types
7 bond types
12 angle types
10 dihedral types
1 improper types

-112.663190 112.663190 xlo xhi
-112.663190 112.663190 ylo yhi
-112.663190 112.663190 zlo zhi

Masses

   1	12.01	# c3
   2	1.008	# hc
   3	16.0	# os
   4	1.008	# h1
   5	12.01	# c
   6	16.0	# o

Pair Coeffs

   1	0.1094	3.3996695084235347	# c3
   2	0.0157	2.649532787749369	# hc
   3	0.17	3.0000123434657784	# os
   4	0.0157	2.471353044121301	# h1
   5	0.086	3.3996695084235347	# c
   6	0.21	2.959921901149463	# o

Bond Coeffs

   1	637.7	1.2183	# c,o
   2	330.6	1.0969	# c3,h1
   3	308.6	1.4316	# c3,os
   4	313.0	1.5241	# c,c3
   5	390.8	1.3584	# c,os
   6	300.9	1.5375	# c3,c3
   7	330.6	1.0969	# c3,hc

Angle Coeffs

   1	46.39	109.56	# c3,c3,h1
   2	46.93	108.77	# c,c3,hc
   3	68.0	107.97	# c3,c3,os
   4	68.89	110.72	# c3,c,os
   5	46.34	109.8	# c3,c3,hc
   6	63.28	115.98	# c,os,c3
   7	50.8	109.78	# h1,c3,os
   8	67.4	123.2	# c3,c,o
   9	39.4	107.58	# hc,c3,hc
  10	39.24	108.46	# h1,c3,h1
  11	75.32	123.25	# o,c,os
  12	62.86	111.51	# c3,c3,c3

Dihedral Coeffs

   1	1	0.0	2	180	# X,c,c3,X
   2	1	0.3833333333333333	3	0	# X,c3,os,X
   3	3	0.8	1	0	0.0	2	0	0.08	3	180	# hc,c3,c,o
   4	3	2.7	2	180	0.0	1	0	1.15	3	0	# c3,c,os,c3
   5	1	0.15555555555555556	3	0	# X,c3,c3,X
   6	2	2.7	2	180	1.4	1	180	# o,c,os,c3
   7	2	0.383	3	0	0.8	1	180	# c3,c3,os,c
   8	2	0.0	3	0	0.25	1	0	# hc,c3,c3,os
   9	1	0.16	3	0	# hc,c3,c3,c3
  10	3	0.18	3	0	0.25	2	180	0.2	1	180	# c3,c3,c3,c3

Improper Coeffs

   1	10.5	-1	2	# c,X,X,o

Atoms

   1	1	1	-0.003445	3.08927	11.9394	6.78002
   2	1	1	0.299845	3.3683	13.4498	6.96025
   3	1	2	0.023286	2.91993	11.7416	5.71614
   4	1	2	-0.011958	3.97366	11.3633	7.06708
   5	1	3	-0.518063	4.59284	13.8051	6.2929
   6	1	4	0.011666	3.41654	13.7141	8.02479
   7	1	5	0.843192	5.7698	13.5256	6.91277
   8	1	1	-0.399874	6.94429	14.0015	6.09259
   9	1	2	0.119224	7.79042	14.2063	6.75597
  10	1	2	0.109051	6.67603	14.9145	5.55243
  11	1	2	0.118031	7.22315	13.2281	5.37208
  12	1	6	-0.590955	5.88077	12.9887	7.99705
  13	1	1	-0.003445	0.574953	12.211	7.20402
  14	1	1	0.299845	1.86023	11.4312	7.57612
  15	1	2	0.023286	0.493055	12.2842	6.11285
  16	1	2	-0.011958	0.666085	13.2429	7.56766
  17	1	3	-0.518063	2.10051	11.6144	8.98495
  18	1	4	0.011666	1.71452	10.3701	7.34786
  19	1	5	0.843192	2.96994	10.7818	9.62119
  20	1	1	-0.399874	3.15882	11.201	11.0581
  21	1	2	0.119224	2.18198	11.3297	11.5331
  22	1	2	0.109051	3.70371	12.1501	11.0835
  23	1	2	0.118031	3.73298	10.4341	11.5876
  24	1	6	-0.590955	3.48688	9.79294	9.13887
  25	1	1	-0.003445	-1.08749	10.1793	7.31198
  26	1	1	0.299845	-0.731502	11.6163	7.78252
  27	1	2	0.023286	-0.350927	9.47751	7.70531
  28	1	2	-0.011958	-2.0357	9.88146	7.77517
  29	1	3	-0.518063	-1.78425	12.5018	7.35773
  30	1	4	0.011666	-0.652936	11.6249	8.87781
  31	1	5	0.843192	-2.96666	12.4898	8.02277
  32	1	1	-0.399874	-3.97014	13.3796	7.33531
  33	1	2	0.119224	-4.91224	13.3615	7.89199
  34	1	2	0.109051	-4.13489	13.0151	6.31646
  35	1	2	0.118031	-3.57959	14.4005	7.29497
  36	1	6	-0.590955	-3.20904	11.8462	9.02351
  37	1	1	-0.003445	-2.0658	8.80601	5.34997
  38	1	1	0.299845	-1.216	10.0302	5.77355
  39	1	2	0.023286	-2.11626	8.76991	4.26002
  40	1	2	-0.011958	-3.10477	8.97399	5.66421
  41	1	3	-0.518063	0.10287	9.89369	5.20649
  42	1	4	0.011666	-1.7056	10.931	5.3818
  43	1	5	0.843192	0.277686	10.1889	3.89112
  44	1	1	-0.399874	1.69451	9.92948	3.44801
  45	1	2	0.119224	1.68363	9.23595	2.60228
  46	1	2	0.109051	2.27652	9.49122	4.26439
  47	1	2	0.118031	2.14709	10.8737	3.13505
  48	1	6	-0.590955	-0.558219	10.7116	3.18127
  49	1	1	-0.003445	-1.59868	6.27266	4.94349
  50	1	1	0.299845	-1.5495	7.46297	5.93628
  51	1	2	0.023286	-2.5792	6.27163	4.45867
  52	1	2	-0.011958	-1.55746	5.32948	5.50016
  53	1	3	-0.518063	-2.42044	7.15532	7.0434
  54	1	4	0.011666	-0.52531	7.58835	6.2906
  55	1	5	0.843192	-2.0161	6.27494	7.99331
  56	1	1	-0.399874	-3.11165	6.03709	9.00082
  57	1	2	0.119224	-3.93317	5.50335	8.51388
  58	1	2	0.109051	-3.47553	6.99864	9.37625
  59	1	2	0.118031	-2.71846	5.43832	9.82806
  60	1	6	-0.590955	-0.926617	5.74271	8.05151
  61	1	1	-0.003445	0.980366	6.2249	4.41505
  62	1	1	0.299845	-0.472783	6.22273	3.86906
  63	1	2	0.023286	1.66065	6.13443	3.56564
  64	1	2	-0.011958	1.19101	7.2004	4.86705
  65	1	3	-0.518063	-0.584536	7.32357	2.93984
  66	1	4	0.011666	-0.591543	5.28887	3.31285
  67	1	5	0.843192	-1.60002	7.33414	2.03342
  68	1	1	-0.399874	-1.47797	8.49398	1.076
  69	1	2	0.119224	-1.8997	8.21111	0.107007
  70	1	2	0.109051	-0.426752	8.77294	0.954934
  71	1	2	0.118031	-2.02686	9.35069	1.47876
  72	1	6	-0.590955	-2.48261	6.50317	1.9547
  73	1	1	-0.003445	2.80852	4.96398	5.81343
  74	1	1	0.299845	1.30402	5.09725	5.43718
  75	1	2	0.023286	3.40334	4.78331	4.91563
  76	1	2	-0.011958	2.946	4.0795	6.44966
  77	1	3	-0.518063	0.798129	3.81829	4.98768
  78	1	4	0.011666	0.769013	5.33898	6.35832
  79	1	5	0.843192	1.29595	3.15972	3.90595
  80	1	1	-0.399874	0.625121	1.81828	3.7513
  81	1	2	0.119224	-0.451386	1.9675	3.63154
  82	1	2	0.109051	0.804207	1.22306	4.65122
  83	1	2	0.118031	1.034	1.30173	2.87829
  84	1	6	-0.590955	2.21617	3.519	3.19904
  85	1	1	-0.003445	4.94235	6.17898	6.55702
  86	1	1	0.299845	3.3974	6.19947	6.53062
  87	1	2	0.023286	5.26591	5.30942	7.14204
  88	1	2	-0.011958	5.33457	6.02295	5.54476
  89	1	3	-0.518063	2.95912	6.18074	7.9004
  90	1	4	0.011666	3.07995	7.10153	5.99958
  91	1	5	0.843192	1.98171	7.03227	8.29329
  92	1	1	-0.399874	1.64634	6.84226	9.75098
  93	1	2	0.119224	2.5692	6.86802	10.3381
  94	1	2	0.109051	1.16032	5.86972	9.87919
  95	1	2	0.118031	0.972706	7.63956	10.0763
  96	1	6	-0.590955	1.47135	7.87169	7.57973
  97	1	1	-0.003445	5.141	8.80457	6.47078
  98	1	1	0.299845	5.55002	7.47585	7.16318
  99	1	2	0.023286	5.59533	9.61352	7.05648
 100	1	2	-0.011958	4.05808	8.96037	6.54517
 101	1	3	-0.518063	6.98775	7.41083	7.08744
 102	1	4	0.011666	5.24171	7.55108	8.21457
 103	1	5	0.843192	7.66559	6.61135	7.95022
 104	1	1	-0.399874	9.15128	6.71722	7.71002
 105	1	2	0.119224	9.43704	7.77322	7.68272
 106	1	2	0.109051	9.39721	6.24949	6.75219
 107	1	2	0.118031	9.68579	6.21177	8.52059
 108	1	6	-0.590955	7.17326	5.92484	8.82191
 109	1	1	-0.003445	5.46122	10.4209	4.51328
 110	1	1	0.299845	5.59158	8.94746	4.99279
 111	1	2	0.023286	5.81497	11.0821	5.31288
 112	1	2	-0.011958	4.40015	10.6517	4.37455
 113	1	3	-0.518063	4.72475	8.11298	4.20097
 114	1	4	0.011666	6.63451	8.6185	4.92679
 115	1	5	0.843192	5.17796	7.61196	3.02329
 116	1	1	-0.399874	4.14602	6.69927	2.41601
 117	1	2	0.119224	4.48913	6.36173	1.44159
 118	1	2	0.109051	3.21036	7.24816	2.28129
 119	1	2	0.118031	3.98288	5.8315	3.05419
 120	1	6	-0.590955	6.31904	7.73141	2.61886
 121	1	1	-0.003445	7.76096	10.6064	3.34674
 122	1	1	0.299845	6.2313	10.8007	3.22088
 123	1	2	0.023286	8.1136	11.1482	4.23267
 124	1	2	-0.011958	7.99341	9.54979	3.51962
 125	1	3	-0.518063	6.02236	12.2083	2.99928
 126	1	4	0.011666	5.85748	10.2164	2.37209
 127	1	5	0.843192	4.90866	12.6198	2.34237
 128	1	1	-0.399874	4.83336	14.1252	2.31336
 129	1	2	0.119224	5.75837	14.5262	1.88833
 130	1	2	0.109051	4.7137	14.4969	3.33607
 131	1	2	0.118031	3.9786	14.4349	1.70375
 132	1	6	-0.590955	4.10563	11.8963	1.79017
 133	1	1	-0.003445	8.0894	10.4129	0.783792
 134	1	1	0.299845	8.55244	11.0837	2.10092
 135	1	2	0.023286	7.90555	9.35177	0.978507
 136	1	2	-0.011958	7.12859	10.8423	0.47022
 137	1	3	-0.518063	9.93791	10.7452	2.29842
 138	1	4	0.011666	8.44688	12.1705	1.98261
 139	1	5	0.843192	10.7048	11.5362	3.08574
 140	1	1	-0.399874	12.1248	11.0298	3.10962
 141	1	2	0.119224	12.7136	11.6249	3.81419
 142	1	2	0.109051	12.5513	11.1127	2.10442
 143	1	2	0.118031	12.1279	9.97911	3.41456
 144	1	6	-0.590955	10.3266	12.532	3.67102
 145	1	1	-0.003445	8.70069	9.8592	-1.67583
 146	1	1	0.299845	9.12352	10.573	-0.362797
 147	1	2	0.023286	7.66182	10.1122	-1.90291
 148	1	2	-0.011958	9.27316	10.2774	-2.51323
 149	1	3	-0.518063	9.2899	11.9848	-0.606639
 150	1	4	0.011666	10.083	10.155	-0.0334807
 151	1	5	0.843192	10.4584	12.3997	-1.16353
 152	1	1	-0.399874	10.5131	13.9044	-1.24485
 153	1	2	0.119224	10.3536	14.3215	-0.245811
 154	1	2	0.109051	9.73024	14.2629	-1.91922
 155	1	2	0.118031	11.496	14.2091	-1.61807
 156	1	6	-0.590955	11.3841	11.68	-1.48151
 157	1	1	-0.003445	7.71924	7.46776	-2.13702
 158	1	1	0.299845	8.93812	8.31736	-1.68769
 159	1	2	0.023286	7.4199	7.76824	-3.14939
 160	1	2	-0.011958	8.05313	6.42987	-2.23602
 161	1	3	-0.518063	9.36879	7.86292	-0.38988
 162	1	4	0.011666	9.75053	8.14244	-2.40562
 163	1	5	0.843192	10.1062	6.72832	-0.284894
 164	1	1	-0.399874	10.4317	6.4365	1.15889
 165	1	2	0.119224	10.4926	5.35248	1.29925
 166	1	2	0.109051	9.65154	6.85308	1.80368
 167	1	2	0.118031	11.3897	6.90044	1.40962
 168	1	6	-0.590955	10.4773	6.04143	-1.21422
 169	1	1	-0.003445	5.60248	6.27446	-1.27369
 170	1	1	0.299845	6.49116	7.54319	-1.18579
 171	1	2	0.023286	5.35496	6.10112	-2.32614
 172	1	2	-0.011958	4.64165	6.45023	-0.778287
 173	1	3	-0.518063	5.71637	8.68791	-1.6059
 174	1	4	0.011666	6.82936	7.67632	-0.151385
 175	1	5	0.843192	4.77216	9.22107	-0.787408
 176	1	1	-0.399874	4.12746	10.4245	-1.42527
 177	1	2	0.119224	4.8342	11.2583	-1.39894
 178	1	2	0.109051	3.22673	10.6925	-0.862729
 179	1	2	0.118031	3.86745	10.197	-2.46322
 180	1	6	-0.590955	4.4766	8.81304	0.314529
 181	1	1	-0.003445	5.27289	3.80685	-0.631932
 182	1	1	0.299845	6.25914	5.00304	-0.663202
 183	1	2	0.023286	5.70666	2.97926	-0.057641
 184	1	2	-0.011958	4.38345	4.12271	-0.0741509
 185	1	3	-0.518063	6.62368	5.28309	0.701809
 186	1	4	0.011666	7.15702	4.73613	-1.23078
 187	1	5	0.843192	7.48141	4.44774	1.34462
 188	1	1	-0.399874	7.53146	4.73666	2.82521
 189	1	2	0.119224	8.14533	3.98013	3.32339
 190	1	2	0.109051	6.51517	4.71037	3.22962
 191	1	2	0.118031	7.95605	5.72967	2.99095
 192	1	6	-0.590955	8.10187	3.54455	0.820789
 193	1	1	-0.003445	3.7614	2.16648	-1.87636
 194	1	1	0.299845	4.8537	3.2501	-2.01685
 195	1	2	0.023286	4.07208	1.44497	-1.10961
 196	1	2	-0.011958	3.6895	1.59349	-2.80784
 197	1	3	-0.518063	5.9833	2.59609	-2.6231
 198	1	4	0.011666	4.46805	4.04767	-2.66352
 199	1	5	0.843192	6.80728	3.29365	-3.44532
 200	1	1	-0.399874	7.96513	2.44122	-3.89742
 201	1	2	0.119224	7.61505	1.72866	-4.64951
 202	1	2	0.109051	8.36959	1.8934	-3.03967
 203	1	2	0.118031	8.74396	3.0828	-4.32137
 204	1	6	-0.590955	6.66579	4.46119	-3.75177
 205	1	1	-0.003445	1.31565	1.62976	-1.29568
 206	1	1	0.299845	2.37466	2.74066	-1.48773
 207	1	2	0.023286	1.28437	0.994087	-2.18832
 208	1	2	-0.011958	1.62688	0.974145	-0.47152
 209	1	3	-0.518063	1.91216	3.73315	-2.43543
 210	1	4	0.011666	2.48132	3.24454	-0.521076
 211	1	5	0.843192	1.62796	3.42492	-3.73424
 212	1	1	-0.399874	1.03652	4.61923	-4.43912
 213	1	2	0.119224	0.184554	4.98994	-3.86065
 214	1	2	0.109051	0.694864	4.31656	-5.43459
 215	1	2	0.118031	1.79316	5.40385	-4.52624
 216	1	6	-0.590955	1.816	2.35262	-4.26785
 217	1	1	-0.003445	-0.241019	2.71607	0.453976
 218	1	1	0.299845	-0.095819	2.18924	-0.994296
 219	1	2	0.023286	0.743869	2.96085	0.863331
 220	1	2	-0.011958	-0.623081	1.9183	1.10053
 221	1	3	-0.518063	-1.0135	1.09956	-1.19032
 222	1	4	0.011666	-0.320384	3.00484	-1.69084
 223	1	5	0.843192	-1.46537	0.889134	-2.45599
 224	1	1	-0.399874	-2.0491	-0.49201	-2.58968
 225	1	2	0.119224	-2.72149	-0.52425	-3.45338
 226	1	2	0.109051	-2.5905	-0.761029	-1.67983
 227	1	2	0.118031	-1.22898	-1.2005	-2.7408
 228	1	6	-0.590955	-1.43039	1.7025	-3.35742
 229	1	1	-0.003445	-2.60582	3.72469	0.101956
 230	1	1	0.299845	-1.14586	3.97396	0.551419
 231	1	2	0.023286	-3.14456	4.68042	0.0753251
 232	1	2	-0.011958	-2.57408	3.36922	-0.933896
 233	1	3	-0.518063	-0.614907	5.01077	-0.309374
 234	1	4	0.011666	-1.15521	4.32405	1.58493
 235	1	5	0.843192	0.534308	5.64949	0.036488
 236	1	1	-0.399874	0.941653	6.68	-0.987713
 237	1	2	0.119224	1.29122	7.57867	-0.469665
 238	1	2	0.109051	0.093722	6.92956	-1.63302
 239	1	2	0.118031	1.75527	6.2725	-1.59359
 240	1	6	-0.590955	1.14678	5.47267	1.06607
 241	1	1	-0.003445	-4.43263	1.87914	0.167477
 242	1	1	0.299845	-3.40806	2.71308	0.973445
 243	1	2	0.023286	-3.90295	1.29048	-0.591461
 244	1	2	-0.011958	-4.89288	1.15694	0.854652
 245	1	3	-0.518063	-4.18977	3.403	1.96355
 246	1	4	0.011666	-2.73227	1.99856	1.45634
 247	1	5	0.843192	-3.62938	3.79948	3.12889
 248	1	1	-0.399874	-4.68457	4.40615	4.02284
 249	1	2	0.119224	-4.29103	4.5172	5.03742
 250	1	2	0.109051	-5.56601	3.75678	4.03786
 251	1	2	0.118031	-4.96795	5.38437	3.62138
 252	1	6	-0.590955	-2.50883	3.50748	3.49697
 253	1	1	-0.003445	-6.78325	1.91216	-0.953436
 254	1	1	0.299845	-5.5472	2.72661	-0.500069
 255	1	2	0.023286	-7.32114	1.55475	-0.0659797
 256	1	2	-0.011958	-7.47427	2.59182	-1.46917
 257	1	3	-0.518063	-4.97115	3.3656	-1.652
 258	1	4	0.011666	-5.89302	3.47513	0.223771
 259	1	5	0.843192	-5.3953	4.60765	-1.99719
 260	1	1	-0.399874	-4.57134	5.14671	-3.13894
 261	1	2	0.119224	-3.51685	5.15552	-2.84514
 262	1	2	0.109051	-4.89701	6.16374	-3.37947
 263	1	2	0.118031	-4.695	4.49764	-4.01065
 264	1	6	-0.590955	-6.26807	5.23681	-1.4346
 265	1	1	-0.003445	-7.66612	0.277843	-2.72146
 266	1	1	0.299845	-6.44482	0.713472	-1.87638
 267	1	2	0.023286	-8.00473	1.14306	-3.30434
 268	1	2	-0.011958	-7.34618	-0.4568	-3.46952
 269	1	3	-0.518063	-6.01797	-0.383902	-1.03792
 270	1	4	0.011666	-5.63786	1.0095	-2.55951
 271	1	5	0.843192	-5.40575	-1.45787	-1.59961
 272	1	1	-0.399874	-5.0359	-2.47295	-0.548516
 273	1	2	0.119224	-5.9482	-2.87558	-0.10264
 274	1	2	0.109051	-4.43569	-1.99109	0.229677
 275	1	2	0.118031	-4.46137	-3.28317	-1.00972
 276	1	6	-0.590955	-5.1492	-1.58412	-2.77785
 277	1	1	-0.003445	-9.23307	-1.73359	-2.31226
 278	1	1	0.299845	-8.83223	-0.298674	-1.86937
 279	1	2	0.023286	-8.44163	-2.42887	-2.00382
 280	1	2	-0.011958	-9.26237	-1.77554	-3.40561
 281	1	3	-0.518063	-9.94887	0.623066	-1.8576
 282	1	4	0.011666	-8.49726	-0.38375	-0.828447
 283	1	5	0.843192	-10.6627	0.903922	-2.98107
 284	1	1	-0.399874	-11.7492	1.90768	-2.69281
 285	1	2	0.119224	-12.4393	1.48833	-1.9534
 286	1	2	0.109051	-12.29	2.13843	-3.61638
 287	1	2	0.118031	-11.2979	2.81969	-2.29083
 288	1	6	-0.590955	-10.4726	0.418124	-4.07686
 289	1	1	-0.003445	-10.9832	-3.6626	-2.08385
 290	1	1	0.299845	-10.5826	-2.20602	-1.71949
 291	1	2	0.023286	-10.3921	-4.35394	-1.46855
 292	1	2	-0.011958	-12.0301	-3.83284	-1.8046
 293	1	3	-0.518063	-10.4414	-2.10291	-0.288672
 294	1	4	0.011666	-11.3642	-1.53306	-2.09153
 295	1	5	0.843192	-11.5089	-1.69295	0.444429
 296	1	1	-0.399874	-11.1273	-1.54431	1.89722
 297	1	2	0.119224	-10.5391	-2.40988	2.21532
 298	1	2	0.109051	-12.0348	-1.47083	2.50519
 299	1	2	0.118031	-10.5309	-0.63444	2.01439
 300	1	6	-0.590955	-12.5903	-1.3687	-0.000531514
 301	1	1	-0.003445	-11.3277	-5.41508	-3.99816
 302	1	1	0.299845	-10.7541	-4.03661	-3.5764
 303	1	2	0.023286	-12.423	-5.42426	-3.94322
 304	1	2	-0.011958	-10.997	-6.16445	-3.26993
 305	1	3	-0.518063	-11.1956	-3.0193	-4.49656
 306	1	4	0.011666	-9.66594	-4.10682	-3.69612
 307	1	5	0.843192	-12.4985	-2.65129	-4.60206
 308	1	1	-0.399874	-12.6878	-1.7217	-5.77281
 309	1	2	0.119224	-13.7461	-1.46195	-5.86541
 310	1	2	0.109051	-12.3416	-2.21907	-6.68252
 311	1	2	0.118031	-12.0927	-0.817878	-5.6188
 312	1	6	-0.590955	-13.4043	-3.04247	-3.89601
 313	1	1	-0.003445	-10.5685	-7.31912	-5.60892
 314	1	1	0.299845	-10.8525	-5.79826	-5.4311
 315	1	2	0.023286	-11.2278	-7.89507	-4.94759
 316	1	2	-0.011958	-10.8254	-7.6386	-6.62661
 317	1	3	-0.518063	-11.8723	-5.38918	-6.36137
 318	1	4	0.011666	-9.93003	-5.24298	-5.64812
 319	1	5	0.843192	-11.5173	-5.20388	-7.66038
 320	1	1	-0.399874	-12.711	-4.8119	-8.49551
 321	1	2	0.119224	-12.3687	-4.46091	-9.47406
 322	1	2	0.109051	-13.2714	-4.01903	-7.99181
 323	1	2	0.118031	-13.3581	-5.68498	-8.61906
 324	1	6	-0.590955	-10.3908	-5.31088	-8.10482
 325	1	1	-0.003445	-8.59571	-7.23841	-3.94415
 326	1	1	0.299845	-9.09023	-7.71028	-5.32647
 327	1	2	0.023286	-8.73931	-6.16032	-3.83713
 328	1	2	-0.011958	-9.21546	-7.73777	-3.19163
 329	1	3	-0.518063	-8.23399	-7.12308	-6.32022
 330	1	4	0.011666	-9.0038	-8.80462	-5.35143
 331	1	5	0.843192	-8.11352	-7.75766	-7.51682
 332	1	1	-0.399874	-7.15692	-7.02513	-8.4226
 333	1	2	0.119224	-6.1569	-7.03855	-7.97884
 334	1	2	0.109051	-7.49497	-5.99011	-8.53671
 335	1	2	0.118031	-7.13901	-7.51671	-9.40022
 336	1	6	-0.590955	-8.58306	-8.8477	-7.77941
 337	1	1	-0.003445	-6.61155	-6.92113	-2.3372
 338	1	1	0.299845	-7.09996	-7.5053	-3.68887
 339	1	2	0.023286	-5.55121	-7.13303	-2.20174
 340	1	2	-0.011958	-6.66364	-5.82858	-2.4409
 341	1	3	-0.518063	-6.87641	-8.9172	-3.81018
 342	1	4	0.011666	-6.54201	-6.98742	-4.48017
 343	1	5	0.843192	-5.62573	-9.33683	-4.13838
 344	1	1	-0.399874	-5.66378	-10.7512	-4.6583
 345	1	2	0.119224	-4.7926	-10.9245	-5.2967
 346	1	2	0.109051	-6.57766	-10.9016	-5.24373
 347	1	2	0.118031	-5.65838	-11.4532	-3.82421
 348	1	6	-0.590955	-4.6507	-8.61755	-4.23227
 349	1	1	-0.003445	-7.19057	-8.72372	-0.476797
 350	1	1	0.299845	-7.4363	-7.30774	-1.07775
 351	1	2	0.023286	-8.02323	-8.94063	0.203134
 352	1	2	-0.011958	-7.24571	-9.4711	-1.27657
 353	1	3	-0.518063	-7.19466	-6.26563	-0.110171
 354	1	4	0.011666	-8.49226	-7.25828	-1.35277
 355	1	5	0.843192	-8.20355	-5.88401	0.715096
 356	1	1	-0.399874	-7.82176	-4.65289	1.49993
 357	1	2	0.119224	-8.41061	-4.61578	2.42136
 358	1	2	0.109051	-8.03301	-3.76619	0.893882
 359	1	2	0.118031	-6.75504	-4.68564	1.7446
 360	1	6	-0.590955	-9.32325	-6.35315	0.715876
 361	1	1	-0.003445	-5.72282	-10.1724	1.18206
 362	1	1	0.299845	-5.86675	-8.88602	0.312579
 363	1	2	0.023286	-6.33735	-10.0302	2.07878
 364	1	2	-0.011958	-4.69246	-10.2202	1.55774
 365	1	3	-0.518063	-4.76596	-8.77755	-0.605239
 366	1	4	0.011666	-5.84055	-8.0467	1.01814
 367	1	5	0.843192	-3.66355	-8.08115	-0.212394
 368	1	1	-0.399874	-2.72898	-7.85788	-1.37208
 369	1	2	0.119224	-1.81105	-7.37946	-1.01945
 370	1	2	0.109051	-3.21278	-7.21894	-2.11673
 371	1	2	0.118031	-2.49755	-8.81906	-1.83747
 372	1	6	-0.590955	-3.51334	-7.55204	0.872319
 373	1	1	-0.003445	-5.19656	-12.0133	-0.617132
 374	1	1	0.299845	-6.07766	-11.5656	0.575693
 375	1	2	0.023286	-5.56261	-11.5666	-1.54694
 376	1	2	-0.011958	-4.18547	-11.619	-0.463563
 377	1	3	-0.518063	-7.45765	-11.6066	0.162014
 378	1	4	0.011666	-5.91945	-12.3043	1.37291
 379	1	5	0.843192	-8.42775	-11.7505	1.09963
 380	1	1	-0.399874	-9.79624	-11.7455	0.462299
 381	1	2	0.119224	-9.75568	-12.2504	-0.507497
 382	1	2	0.109051	-10.1202	-10.7112	0.312847
 383	1	2	0.118031	-10.5022	-12.2636	1.1191
 384	1	6	-0.590955	-8.23962	-11.8793	2.29189
 385	1	1	-0.003445	-4.24241	-14.1204	-1.89761
 386	1	1	0.299845	-5.10527	-13.5683	-0.725487
 387	1	2	0.023286	-4.32021	-15.2139	-1.87634
 388	1	2	-0.011958	-4.66422	-13.7955	-2.85575
 389	1	3	-0.518063	-6.40676	-14.2033	-0.76195
 390	1	4	0.011666	-4.63477	-13.913	0.202694
 391	1	5	0.843192	-7.28551	-14.0065	-1.7833
 392	1	1	-0.399874	-8.50198	-14.8856	-1.61861
 393	1	2	0.119224	-9.03915	-14.6014	-0.710271
 394	1	2	0.109051	-8.18256	-15.9291	-1.53393
 395	1	2	0.118031	-9.15346	-14.772	-2.4913
 396	1	6	-0.590955	-7.13205	-13.2577	-2.72599
 397	1	1	-0.003445	-1.90791	-14.271	-0.691201
 398	1	1	0.299845	-2.74619	-13.6995	-1.86827
 399	1	2	0.023286	-2.44085	-14.0938	0.248779
 400	1	2	-0.011958	-1.80458	-15.3604	-0.766257
 401	1	3	-0.518063	-2.10512	-14.0006	-3.13189
 402	1	4	0.011666	-2.72876	-12.608	-1.77156
 403	1	5	0.843192	-2.01903	-15.2664	-3.62929
 404	1	1	-0.399874	-1.25144	-15.2752	-4.92831
 405	1	2	0.119224	-1.39705	-16.2382	-5.42827
 406	1	2	0.109051	-0.187463	-15.1249	-4.72214
 407	1	2	0.118031	-1.61373	-14.4676	-5.57156
 408	1	6	-0.590955	-2.41518	-16.2765	-3.08566
 409	1	1	-0.003445	0.616019	-14.4338	-1.28397
 410	1	1	0.299845	-0.510959	-13.5897	-0.64023
 411	1	2	0.023286	0.677725	-15.3928	-0.75257
 412	1	2	-0.011958	0.36003	-14.6774	-2.32062
 413	1	3	-0.518063	-0.103186	-13.3232	0.713552
 414	1	4	0.011666	-0.566054	-12.6313	-1.17019
 415	1	5	0.843192	-0.703741	-12.3193	1.39968
 416	1	1	-0.399874	0.136914	-11.9257	2.59005
 417	1	2	0.119224	-0.138531	-12.5323	3.45678
 418	1	2	0.109051	-0.0206624	-10.8643	2.80714
 419	1	2	0.118031	1.19532	-12.0895	2.35656
 420	1	6	-0.590955	-1.68768	-11.7096	1.02769
 421	1	1	-0.003445	2.42644	-13.1106	-2.60447
 422	1	1	0.299845	1.99557	-13.7176	-1.24099
 423	1	2	0.023286	3.47659	-12.8033	-2.54203
 424	1	2	-0.011958	2.36524	-13.8762	-3.38857
 425	1	3	-0.518063	2.96682	-14.6872	-0.803677
 426	1	4	0.011666	1.95698	-12.9167	-0.492109
 427	1	5	0.843192	4.12221	-14.2431	-0.242061
 428	1	1	-0.399874	4.91711	-15.3953	0.321669
 429	1	2	0.119224	5.39149	-15.9447	-0.496015
 430	1	2	0.109051	4.24405	-16.0658	0.86609
 431	1	2	0.118031	5.67914	-15.009	1.00598
 432	1	6	-0.590955	4.42932	-13.0775	-0.0851109
 433	1	1	-0.003445	1.86912	-11.2874	-4.40406
 434	1	1	0.299845	1.56261	-11.8874	-2.99856
 435	1	2	0.023286	1.36536	-10.3184	-4.5116
 436	1	2	-0.011958	1.41419	-11.9466	-5.15419
 437	1	3	-0.518063	1.74919	-10.898	-1.96708
 438	1	4	0.011666	0.516288	-12.2155	-3.00818
 439	1	5	0.843192	0.776724	-9.97965	-1.75099
 440	1	1	-0.399874	1.1377	-9.0603	-0.608024
 441	1	2	0.119224	1.60373	-8.15616	-1.01059
 442	1	2	0.109051	1.84224	-9.55946	0.0658729
 443	1	2	0.118031	0.22999	-8.79679	-0.055335
 444	1	6	-0.590955	-0.316508	-10.0037	-2.27644
 445	1	1	-0.003445	3.63425	-10.5589	-6.16366
 446	1	1	0.299845	3.37487	-11.1286	-4.7382
 447	1	2	0.023286	2.7452	-10.7039	-6.79091
 448	1	2	-0.011958	3.75981	-9.47054	-6.08853
 449	1	3	-0.518063	3.92832	-10.2196	-3.77227
 450	1	4	0.011666	3.83903	-12.1165	-4.64791
 451	1	5	0.843192	5.21028	-10.395	-3.37679
 452	1	1	-0.399874	5.61256	-9.35257	-2.36599
 453	1	2	0.119224	5.92055	-8.44455	-2.89279
 454	1	2	0.109051	6.43899	-9.73581	-1.7596
 455	1	2	0.118031	4.75927	-9.1266	-1.71851
 456	1	6	-0.590955	5.95723	-11.2515	-3.80683
 457	1	1	-0.003445	5.70482	-10.1405	-7.66764
 458	1	1	0.299845	4.86728	-11.1917	-6.88395
 459	1	2	0.023286	5.02215	-9.38127	-8.06979
 460	1	2	-0.011958	6.1584	-10.6159	-8.5486
 461	1	3	-0.518063	4.45084	-12.1466	-7.88896
 462	1	4	0.011666	5.51872	-11.7018	-6.16704
 463	1	5	0.843192	3.75736	-13.276	-7.58737
 464	1	1	-0.399874	3.63542	-14.1756	-8.79431
 465	1	2	0.119224	2.6227	-14.107	-9.20089
 466	1	2	0.109051	3.84591	-15.2066	-8.49253
 467	1	2	0.118031	4.35611	-13.8723	-9.56092
 468	1	6	-0.590955	3.28798	-13.5568	-6.5036
 469	1	1	-0.003445	8.12533	-10.338	-6.7789
 470	1	1	0.299845	6.84663	-9.45938	-6.85716
 471	1	2	0.023286	8.59814	-10.3491	-7.77004
 472	1	2	-0.011958	7.84084	-11.3799	-6.58589
 473	1	3	-0.518063	7.23866	-8.28385	-7.58995
 474	1	4	0.011666	6.50311	-9.20205	-5.84699
 475	1	5	0.843192	6.5213	-7.14122	-7.48193
 476	1	1	-0.399874	7.13048	-6.04974	-8.3332
 477	1	2	0.119224	6.45627	-5.82464	-9.16433
 478	1	2	0.109051	8.09547	-6.37861	-8.73775
 479	1	2	0.118031	7.2806	-5.15451	-7.72284
 480	1	6	-0.590955	5.56948	-6.98053	-6.74514
 481	1	1	-0.003445	8.98723	-10.5385	-4.3465
 482	1	1	0.299845	9.20463	-9.91025	-5.73579
 483	1	2	0.023286	8.77986	-11.613	-4.42332
 484	1	2	-0.011958	8.15809	-10.0509	-3.82446
 485	1	3	-0.518063	9.23888	-8.4878	-5.51052
 486	1	4	0.011666	10.1823	-10.2634	-6.08935
 487	1	5	0.843192	9.92177	-7.6907	-6.36952
 488	1	1	-0.399874	9.87119	-6.24724	-5.92015
 489	1	2	0.119224	9.05233	-6.10361	-5.20719
 490	1	2	0.109051	9.71876	-5.5981	-6.78708
 491	1	2	0.118031	10.8183	-5.99398	-5.43474
 492	1	6	-0.590955	10.5414	-8.07015	-7.3426
 493	1	4	0	2.54842	14.0209	6.5081
 494	1	2	0	9.88611	-10.4136	-3.72934

Velocities

   1	-0.000399285	0.000339693	-0.000614
   2	0.000369572	9.58652e-05	-0.000354562
   3	-0.000929067	0.000989787	-0.000463661
   4	-0.000494668	7.1086e-05	-0.00133135
   5	-0.000382372	6.15829e-05	-0.00118087
   6	0.00127477	-0.00058772	-0.000586578
   7	-0.000176938	-0.000364973	-0.00145342
   8	7.0955e-05	0.000126542	-0.000476313
   9	-0.000326088	-0.00193424	0.000618986
  10	0.00122676	0.00138785	0.00113382
  11	0.000166278	0.00113874	-0.00164912
  12	-0.000860929	-0.000859476	-0.00166429
  13	-0.000322777	0.000400528	-5.02704e-05
  14	-0.000264633	0.000433316	-0.000528106
  15	-0.000640648	0.000348315	-0.000231488
  16	-0.00011434	0.000508226	-0.000385908
  17	5.58924e-05	-1.07386e-05	-0.000488011
  18	-0.000442718	0.000212132	-0.000700367
  19	-0.000367375	-0.000152185	-0.000496537
  20	-0.000601336	-0.00022191	-0.000205587
  21	-0.000746214	-0.000750174	-0.000476641
  22	-0.000917879	-0.000102774	-0.00016396
  23	-0.000372236	-0.000125585	-0.000331069
  24	-0.000523518	-0.000177141	-0.000481706
  25	-0.000239621	0.000665763	0.000520879
  26	-0.000391594	0.000799548	7.36417e-05
  27	-1.4119e-05	0.000828919	0.000581826
  28	-0.000246511	0.00056196	0.000515337
  29	-0.000482977	0.00081707	0.000233652
  30	-0.000165316	0.00102761	0.000168335
  31	-0.000525392	0.000473837	6.54838e-05
  32	-0.000466519	0.0011027	0.000549865
  33	-0.000425553	0.000956302	0.000705022
  34	-0.00072098	0.00159843	0.000392725
  35	-0.000280108	0.00109948	0.00108423
  36	-0.000912651	-0.000365085	-0.000537764
  37	-1.00257e-05	2.52632e-06	0.000701356
  38	-0.000116426	0.000152805	0.000579305
  39	-0.000108374	-0.000219513	0.000664461
  40	2.59318e-05	-9.07944e-05	0.000767684
  41	-0.000101329	2.44525e-05	0.000672516
  42	-9.85799e-05	0.000114602	0.000203298
  43	3.44628e-06	-0.000721463	0.00052568
  44	-2.08075e-07	-0.00115307	0.000816654
  45	-5.12354e-05	-0.00103479	0.000707562
  46	-0.000311638	-0.0014486	0.000958947
  47	0.000299728	-0.00131343	0.00106411
  48	6.65061e-05	-0.0010588	0.000251022
  49	-1.11041e-05	-0.000100402	0.000877538
  50	9.1066e-05	8.73609e-05	0.00075986
  51	-2.43813e-05	2.95926e-05	0.000885921
  52	-0.000109964	-2.01158e-05	0.00101259
  53	0.00014078	0.000229715	0.000916589
  54	0.000137486	0.000106455	0.00067903
  55	1.47963e-05	0.000357571	0.00108943
  56	-0.000143288	0.000683332	0.001062
  57	-0.00048093	0.00137487	0.000927848
  58	0.000424798	0.000775022	0.00140557
  59	-0.00053942	0.000164819	0.000874242
  60	-0.00014109	0.000103636	0.00108229
  61	-0.000132736	-0.000497883	0.000439485
  62	-0.00019479	-0.000478498	0.000681371
  63	-0.00030063	-0.000659839	0.000326468
  64	-7.08413e-05	-0.000411954	0.000234491
  65	-0.000242404	-0.000650371	0.000481861
  66	-0.000374743	-0.000597609	0.000876191
  67	-0.000112367	-0.000895097	0.000324328
  68	-0.00039375	-0.000729852	0.000434298
  69	-0.000516643	-0.000555233	0.000440055
  70	-0.000462541	-0.00057576	0.000318018
  71	-0.000433559	-0.000891444	0.000680491
  72	9.74709e-05	-0.00108521	0.00023376
  73	0.000214756	-7.41375e-05	0.000286038
  74	8.61721e-05	-0.000296864	0.000623189
  75	-1.65247e-05	-0.000226737	0.000162166
  76	0.000478206	8.53449e-05	0.000457931
  77	9.60008e-05	-0.000435084	0.000967034
  78	0.000249682	-0.000137345	0.000694113
  79	-0.000321275	-0.000462455	0.000817773
  80	-2.69685e-05	-0.000639669	0.00117896
  81	4.28774e-05	-0.00087445	0.000433042
  82	-0.000534999	-0.00010585	0.00166678
  83	0.000521054	-0.00110963	0.00173418
  84	-0.000666731	-0.000280787	0.000347789
  85	0.000305709	0.000124559	-0.000204907
  86	0.000326594	0.000130539	-0.000137985
  87	0.000368972	9.35938e-05	-0.000298459
  88	0.000283068	0.000228631	-0.000229634
  89	0.000505278	0.000629215	-5.45121e-05
  90	0.000309123	-7.74171e-06	-0.000344589
  91	0.000559538	0.000723216	-0.000169605
  92	0.00064114	0.00112579	-0.000137513
  93	0.000582651	0.00210164	-3.83927e-05
  94	0.00141612	0.000814092	0.00023786
  95	-1.32895e-05	0.000703694	-0.000483779
  96	9.69086e-05	0.000259589	-0.00047724
  97	0.000240889	8.86938e-05	3.18065e-05
  98	0.000244023	9.13018e-05	-5.89885e-05
  99	0.000265929	7.81813e-05	3.38482e-05
 100	0.000237203	5.43284e-05	7.92886e-05
 101	0.000234734	6.60502e-05	9.77223e-07
 102	0.000185302	5.01417e-05	-7.16103e-05
 103	3.64976e-05	0.000160786	0.000233644
 104	3.70555e-05	-0.000441197	4.87826e-05
 105	0.000602827	-0.000581353	0.000818855
 106	-0.000414966	0.00016141	-0.000363839
 107	-0.000125833	-0.0013966	-0.000432619
 108	-0.000131449	0.000510611	0.000396422
 109	0.000250591	-1.53486e-05	8.09831e-05
 110	0.000159239	3.31907e-06	4.00824e-05
 111	0.000413891	-9.68092e-05	7.10765e-05
 112	0.000253643	7.55023e-05	0.000240097
 113	-3.4379e-05	0.000131918	0.000154784
 114	0.000116033	-0.000139158	-4.74675e-05
 115	-0.000257151	0.000104187	6.44277e-05
 116	-0.000467654	0.000211137	0.000250219
 117	-0.000821575	0.000467207	4.63592e-05
 118	-0.000549199	0.000208533	0.000770067
 119	-0.000184045	5.9811e-05	0.000126959
 120	-0.000321229	-9.25901e-06	-6.77602e-05
 121	0.000240632	-0.000328179	0.000126236
 122	0.000259469	-9.94024e-05	6.11269e-05
 123	0.000204975	-0.000448649	0.000205491
 124	0.000106882	-0.000363662	9.05395e-05
 125	0.000390227	-9.26577e-05	-4.54627e-05
 126	0.000185576	-5.46451e-05	8.49893e-05
 127	-0.000272954	-3.32229e-05	0.00109632
 128	0.000210508	-2.37002e-05	0.000144592
 129	0.000317181	-0.000628295	-0.000191729
 130	0.000367872	0.000740484	-0.000113096
 131	0.000295157	-0.000174835	-4.01999e-05
 132	-0.001031	-6.69292e-05	0.0022362
 133	0.000628867	-0.000428237	0.000207173
 134	0.000419692	-0.000342293	0.00022262
 135	0.00082005	-0.000460293	0.000211551
 136	0.000549315	-0.000651247	0.000198235
 137	0.000450943	-0.00012075	0.000380851
 138	0.000321957	-0.00036526	0.000145247
 139	-6.25829e-05	-0.00025145	0.00104101
 140	0.000190964	0.000410497	0.000972959
 141	0.000112058	0.00106095	0.000539407
 142	-6.64529e-05	0.000109362	0.000851078
 143	0.000799414	0.000570501	0.00150155
 144	-0.000673148	-0.000791819	0.00153887
 145	0.000454428	-5.0195e-05	0.000170827
 146	0.000573608	-0.000164597	0.000192466
 147	0.000509636	0.000205682	0.0001635
 148	0.000616716	-0.000172012	0.000204099
 149	0.000187472	-0.00011801	0.000200031
 150	0.000676751	-6.44109e-05	6.46886e-05
 151	2.68896e-06	0.000322456	9.36224e-05
 152	-0.000913005	0.000305506	-0.00070574
 153	-0.000953358	0.000757611	-0.000926961
 154	-0.00129141	-0.000528932	-0.000740488
 155	-0.00120765	0.000727271	-0.00111298
 156	0.000356214	0.000668278	0.0003522
 157	-0.000333131	0.00037146	2.90042e-05
 158	-2.26957e-06	-0.000109395	7.57238e-05
 159	-0.000353135	0.000771376	0.000150012
 160	-0.00067473	0.000321014	-0.000383267
 161	0.000208096	-0.000246117	-3.57369e-05