pySIMM System Object

482 atoms
481 bonds
880 angles
1151 dihedrals
40 impropers

6 atom types
7 bond types
12 angle types
10 dihedral types
1 improper types

-111.716395 111.716395 xlo xhi
-111.716395 111.716395 ylo yhi
-111.716395 111.716395 zlo zhi

Masses

   1	12.01	# c3
   2	1.008	# hc
   3	16.0	# os
   4	1.008	# h1
   5	12.01	# c
   6	16.0	# o

Pair Coeffs

   1	0.1094	3.3996695084235347	# c3
   2	0.0157	2.649532787749369	# hc
   3	0.17	3.0000123434657784	# os
   4	0.0157	2.471353044121301	# h1
   5	0.086	3.3996695084235347	# c
   6	0.21	2.959921901149463	# o

Bond Coeffs

   1	637.7	1.2183	# c,o
   2	330.6	1.0969	# c3,h1
   3	308.6	1.4316	# c3,os
   4	313.0	1.5241	# c,c3
   5	390.8	1.3584	# c,os
   6	300.9	1.5375	# c3,c3
   7	330.6	1.0969	# c3,hc

Angle Coeffs

   1	46.39	109.56	# c3,c3,h1
   2	46.93	108.77	# c,c3,hc
   3	68.0	107.97	# c3,c3,os
   4	68.89	110.72	# c3,c,os
   5	46.34	109.8	# c3,c3,hc
   6	63.28	115.98	# c,os,c3
   7	50.8	109.78	# h1,c3,os
   8	67.4	123.2	# c3,c,o
   9	39.4	107.58	# hc,c3,hc
  10	39.24	108.46	# h1,c3,h1
  11	75.32	123.25	# o,c,os
  12	62.86	111.51	# c3,c3,c3

Dihedral Coeffs

   1	1	0.0	2	180	# X,c,c3,X
   2	1	0.3833333333333333	3	0	# X,c3,os,X
   3	3	0.8	1	0	0.0	2	0	0.08	3	180	# hc,c3,c,o
   4	3	2.7	2	180	0.0	1	0	1.15	3	0	# c3,c,os,c3
   5	1	0.15555555555555556	3	0	# X,c3,c3,X
   6	2	2.7	2	180	1.4	1	180	# o,c,os,c3
   7	2	0.383	3	0	0.8	1	180	# c3,c3,os,c
   8	2	0.0	3	0	0.25	1	0	# hc,c3,c3,os
   9	1	0.16	3	0	# hc,c3,c3,c3
  10	3	0.18	3	0	0.25	2	180	0.2	1	180	# c3,c3,c3,c3

Improper Coeffs

   1	10.5	-1	2	# c,X,X,o

Atoms

   1	1	1	-0.003445	3.77457	-8.45473	-9.62906
   2	1	1	0.299845	4.21285	-9.81094	-10.2281
   3	1	2	0.023286	3.84496	-8.5177	-8.53681
   4	1	2	-0.011958	4.46779	-7.66371	-9.93492
   5	1	3	-0.518063	5.64795	-9.86268	-10.3064
   6	1	4	0.011666	3.77365	-9.96392	-11.2225
   7	1	5	0.843192	6.24929	-9.22428	-11.3454
   8	1	1	-0.399874	7.74999	-9.36491	-11.2661
   9	1	2	0.119224	8.20239	-8.9488	-12.1718
  10	1	2	0.109051	8.01292	-10.4236	-11.1776
  11	1	2	0.118031	8.12052	-8.82857	-10.387
  12	1	6	-0.590955	5.67077	-8.64838	-12.2463
  13	1	1	-0.003445	1.2917	-9.10987	-9.58673
  14	1	1	0.299845	2.3312	-8.04566	-10.0109
  15	1	2	0.023286	1.45367	-9.39184	-8.53944
  16	1	2	-0.011958	1.45322	-10.0243	-10.1731
  17	1	3	-0.518063	2.23478	-7.8975	-11.4393
  18	1	4	0.011666	2.09957	-7.09769	-9.51636
  19	1	5	0.843192	2.85015	-6.84551	-12.0433
  20	1	1	-0.399874	2.66155	-6.91991	-13.5378
  21	1	2	0.119224	1.59302	-6.97376	-13.7664
  22	1	2	0.109051	3.15885	-7.82076	-13.9129
  23	1	2	0.118031	3.1021	-6.03525	-14.0071
  24	1	6	-0.590955	3.37182	-5.90453	-11.4752
  25	1	1	-0.003445	-0.607502	-7.42608	-8.94024
  26	1	1	0.299845	-0.172754	-8.65269	-9.79001
  27	1	2	0.023286	-0.0938456	-6.53055	-9.30445
  28	1	2	-0.011958	-1.67245	-7.23672	-9.11922
  29	1	3	-0.518063	-0.998717	-9.78755	-9.45879
  30	1	4	0.011666	-0.303921	-8.40799	-10.8524
  31	1	5	0.843192	-2.26779	-9.84935	-9.94152
  32	1	1	-0.399874	-2.95012	-11.1192	-9.49553
  33	1	2	0.119224	-4.0159	-11.0636	-9.73875
  34	1	2	0.109051	-2.82237	-11.2454	-8.41587
  35	1	2	0.118031	-2.49555	-11.9682	-10.0144
  36	1	6	-0.590955	-2.79266	-9.02136	-10.6586
  37	1	1	-0.003445	-1.30005	-6.68594	-6.56495
  38	1	1	0.299845	-0.374748	-7.59269	-7.41538
  39	1	2	0.023286	-1.10036	-6.87211	-5.50918
  40	1	2	-0.011958	-2.33989	-7.00999	-6.70654
  41	1	3	-0.518063	0.993969	-7.25289	-7.1067
  42	1	4	0.011666	-0.579457	-8.63777	-7.1495
  43	1	5	0.843192	1.54103	-7.71864	-5.95232
  44	1	1	-0.399874	2.91039	-7.13674	-5.70207
  45	1	2	0.119224	2.81546	-6.25502	-5.06404
  46	1	2	0.109051	3.38211	-6.8493	-6.64655
  47	1	2	0.118031	3.53071	-7.8796	-5.19332
  48	1	6	-0.590955	1.02255	-8.5455	-5.22805
  49	1	1	-0.003445	-1.24343	-4.22077	-5.68593
  50	1	1	0.299845	-1.16723	-5.17601	-6.91024
  51	1	2	0.023286	-2.09914	-4.5129	-5.06676
  52	1	2	-0.011958	-1.48096	-3.20887	-6.03518
  53	1	3	-0.518063	-2.27869	-4.87835	-7.7789
  54	1	4	0.011666	-0.226127	-5.0049	-7.43731
  55	1	5	0.843192	-2.19945	-3.83806	-8.6455
  56	1	1	-0.399874	-3.4915	-3.68315	-9.40678
  57	1	2	0.119224	-4.28614	-3.40909	-8.70672
  58	1	2	0.109051	-3.74657	-4.633	-9.88772
  59	1	2	0.118031	-3.37732	-2.90157	-10.1643
  60	1	6	-0.590955	-1.22803	-3.13058	-8.81821
  61	1	1	-0.003445	1.3414	-3.72569	-5.55318
  62	1	1	0.299845	0.0415716	-4.1264	-4.80427
  63	1	2	0.023286	2.14884	-3.62803	-4.81729
  64	1	2	-0.011958	1.64162	-4.54327	-6.21682
  65	1	3	-0.518063	0.304075	-5.38493	-4.15061
  66	1	4	0.011666	-0.13256	-3.36552	-4.03461
  67	1	5	0.843192	-0.484083	-5.7728	-3.11269
  68	1	1	-0.399874	-0.0922516	-7.13248	-2.59558
  69	1	2	0.119224	-0.326167	-7.19847	-1.52868
  70	1	2	0.109051	0.97617	-7.30039	-2.75699
  71	1	2	0.118031	-0.650588	-7.89625	-3.14553
  72	1	6	-0.590955	-1.4131	-5.13586	-2.65944
  73	1	1	-0.003445	2.61974	-1.8645	-6.86083
  74	1	1	0.299845	1.24589	-2.42028	-6.39164
  75	1	2	0.023286	3.28211	-1.7547	-5.99469
  76	1	2	-0.011958	2.47908	-0.855511	-7.27111
  77	1	3	-0.518063	0.514735	-1.38277	-5.69671
  78	1	4	0.011666	0.667903	-2.65397	-7.28993
  79	1	5	0.843192	0.942963	-0.839607	-4.52473
  80	1	1	-0.399874	0.0444369	0.300177	-4.11292
  81	1	2	0.119224	-0.997239	0.0250248	-4.30518
  82	1	2	0.109051	0.2984	1.19075	-4.69439
  83	1	2	0.118031	0.175656	0.493486	-3.04414
  84	1	6	-0.590955	1.9344	-1.1711	-3.90664
  85	1	1	-0.003445	4.77286	-2.21847	-8.20286
  86	1	1	0.299845	3.34321	-2.73695	-7.91726
  87	1	2	0.023286	4.70043	-1.16217	-8.48872
  88	1	2	-0.011958	5.36724	-2.23629	-7.28204
  89	1	3	-0.518063	2.6345	-2.66209	-9.16784
  90	1	4	0.011666	3.4162	-3.76524	-7.54556
  91	1	5	0.843192	1.8515	-3.6991	-9.55733
  92	1	1	-0.399874	1.25828	-3.44473	-10.9192
  93	1	2	0.119224	2.06984	-3.29842	-11.6385
  94	1	2	0.109051	0.638152	-2.54384	-10.8775
  95	1	2	0.118031	0.649323	-4.30317	-11.2145
  96	1	6	-0.590955	1.67805	-4.71702	-8.91741
  97	1	1	-0.003445	5.53974	-4.54814	-9.18082
  98	1	1	0.299845	5.50849	-3.00239	-9.33068
  99	1	2	0.023286	5.95211	-4.95418	-10.1133
 100	1	2	-0.011958	4.52082	-4.94734	-9.11695
 101	1	3	-0.518063	6.88143	-2.56794	-9.39982
 102	1	4	0.011666	5.01015	-2.78527	-10.2849
 103	1	5	0.843192	7.17037	-1.34367	-9.9111
 104	1	1	-0.399874	8.65719	-1.09082	-9.86953
 105	1	2	0.119224	9.15966	-1.79997	-10.5339
 106	1	2	0.109051	9.02125	-1.23106	-8.84697
 107	1	2	0.118031	8.85976	-0.0666899	-10.1985
 108	1	6	-0.590955	6.36731	-0.556278	-10.3677
 109	1	1	-0.003445	6.50021	-6.62735	-8.07918
 110	1	1	0.299845	6.38394	-5.08296	-7.99527
 111	1	2	0.023286	6.7633	-6.90991	-9.10649
 112	1	2	-0.011958	5.50796	-7.04549	-7.8886
 113	1	3	-0.518063	5.69538	-4.71302	-6.78439
 114	1	4	0.011666	7.37965	-4.62717	-8.05081
 115	1	5	0.843192	6.4045	-4.43097	-5.66046
 116	1	1	-0.399874	5.48971	-3.88636	-4.59012
 117	1	2	0.119224	6.03059	-3.8441	-3.64252
 118	1	2	0.109051	4.62421	-4.54607	-4.47594
 119	1	2	0.118031	5.1506	-2.88487	-4.86416
 120	1	6	-0.590955	7.61877	-4.41073	-5.59409
 121	1	1	-0.003445	8.98337	-6.83528	-7.39112
 122	1	1	0.299845	7.52667	-7.28887	-7.12416
 123	1	2	0.023286	9.17951	-6.92629	-8.46597
 124	1	2	-0.011958	9.10334	-5.77412	-7.14866
 125	1	3	-0.518063	7.51406	-8.71432	-7.3456
 126	1	4	0.011666	7.26016	-7.06655	-6.08584
 127	1	5	0.843192	6.48671	-9.46794	-6.87929
 128	1	1	-0.399874	6.72811	-10.9306	-7.15425
 129	1	2	0.119224	7.67098	-11.2315	-6.68841
 130	1	2	0.109051	6.79159	-11.0916	-8.23421
 131	1	2	0.118031	5.90368	-11.5184	-6.73864
 132	1	6	-0.590955	5.54563	-9.0592	-6.23315
 133	1	1	-0.003445	9.84765	-7.57703	-5.0641
 134	1	1	0.299845	10.0402	-7.65511	-6.59965
 135	1	2	0.023286	9.85871	-6.52263	-4.77223
 136	1	2	-0.011958	8.86239	-7.97209	-4.79171
 137	1	3	-0.518063	11.3498	-7.13231	-6.89711
 138	1	4	0.011666	9.98854	-8.7087	-6.90394
 139	1	5	0.843192	11.9165	-7.4231	-8.09615
 140	1	1	-0.399874	13.2732	-6.77608	-8.21293
 141	1	2	0.119224	13.6936	-6.98955	-9.2007
 142	1	2	0.109051	13.9308	-7.1769	-7.43514
 143	1	2	0.118031	13.1706	-5.69531	-8.07818
 144	1	6	-0.590955	11.4204	-8.11036	-8.96773
 145	1	1	-0.003445	10.7867	-8.34175	-2.74357
 146	1	1	0.299845	10.9286	-8.38011	-4.29422
 147	1	2	0.023286	9.80869	-8.74187	-2.46238
 148	1	2	-0.011958	11.499	-9.05748	-2.31487
 149	1	3	-0.518063	10.7691	-9.75277	-4.70943
 150	1	4	0.011666	11.9219	-8.00944	-4.57947
 151	1	5	0.843192	11.8146	-10.6078	-4.57357
 152	1	1	-0.399874	11.426	-11.9981	-5.01142
 153	1	2	0.119224	11.0344	-11.9587	-6.03235
 154	1	2	0.109051	10.6531	-12.3851	-4.34052
 155	1	2	0.118031	12.3065	-12.6476	-4.97705
 156	1	6	-0.590955	12.9229	-10.3115	-4.17663
 157	1	1	-0.003445	9.88549	-6.44107	-1.17597
 158	1	1	0.299845	11.0623	-6.98065	-2.03699
 159	1	2	0.023286	9.66771	-7.1638	-0.378933
 160	1	2	-0.011958	10.2298	-5.54517	-0.651614
 161	1	3	-0.518063	11.481	-5.98523	-2.99133
 162	1	4	0.011666	11.8989	-7.16658	-1.34998
 163	1	5	0.843192	12.2066	-4.91708	-2.56339
 164	1	1	-0.399874	12.5595	-4.01085	-3.71644
 165	1	2	0.119224	11.7768	-4.05924	-4.47951
 166	1	2	0.109051	13.5086	-4.3407	-4.14955
 167	1	2	0.118031	12.6554	-2.98427	-3.34734
 168	1	6	-0.590955	12.5561	-4.71625	-1.41867
 169	1	1	-0.003445	7.69676	-5.07997	-1.23018
 170	1	1	0.299845	8.57698	-6.13285	-1.95453
 171	1	2	0.023286	7.54778	-5.41382	-0.197698
 172	1	2	-0.011958	6.69839	-5.04457	-1.68207
 173	1	3	-0.518063	7.84212	-7.37388	-2.02457
 174	1	4	0.011666	8.82006	-5.77351	-2.96117
 175	1	5	0.843192	6.81926	-7.51572	-2.90504
 176	1	1	-0.399874	6.22151	-8.89588	-2.81355
 177	1	2	0.119224	6.9891	-9.63603	-3.05746
 178	1	2	0.109051	5.39127	-8.98029	-3.52307
 179	1	2	0.118031	5.85905	-9.06735	-1.79609
 180	1	6	-0.590955	6.45124	-6.67871	-3.70044
 181	1	1	-0.003445	7.35269	-2.60513	-0.600246
 182	1	1	0.299845	8.29761	-3.6482	-1.25143
 183	1	2	0.023286	7.74862	-1.59379	-0.755518
 184	1	2	-0.011958	6.39011	-2.63747	-1.12626
 185	1	3	-0.518063	8.47076	-3.27272	-2.63033
 186	1	4	0.011666	9.26557	-3.64117	-0.738193
 187	1	5	0.843192	9.30402	-2.2445	-2.93631
 188	1	1	-0.399874	9.2131	-1.87747	-4.39573
 189	1	2	0.119224	9.70664	-0.914955	-4.56118
 190	1	2	0.109051	8.15997	-1.80572	-4.68463
 191	1	2	0.118031	9.69126	-2.65679	-4.99544
 192	1	6	-0.590955	10.0217	-1.66594	-2.14584
 193	1	1	-0.003445	5.93184	-1.94922	1.42918
 194	1	1	0.299845	7.1178	-2.80101	0.918226
 195	1	2	0.023286	5.95901	-0.961232	0.952009
 196	1	2	-0.011958	6.04307	-1.76012	2.50319
 197	1	3	-0.518063	8.28827	-2.38679	1.64575
 198	1	4	0.011666	6.89199	-3.84906	1.13748
 199	1	5	0.843192	9.20731	-3.32267	2.00322
 200	1	1	-0.399874	10.3346	-2.71578	2.80029
 201	1	2	0.119224	9.97448	-1.83161	3.33593
 202	1	2	0.109051	11.1401	-2.42549	2.11891
 203	1	2	0.118031	10.7036	-3.45339	3.51968
 204	1	6	-0.590955	9.12117	-4.51101	1.75821
 205	1	1	-0.003445	3.35856	-1.82248	1.7002
 206	1	1	0.299845	4.56203	-2.62073	1.13821
 207	1	2	0.023286	3.48903	-1.67134	2.77829
 208	1	2	-0.011958	3.34489	-0.819176	1.2544
 209	1	3	-0.518063	4.52772	-3.98957	1.61582
 210	1	4	0.011666	4.44299	-2.65784	0.0486786
 211	1	5	0.843192	4.65599	-4.30378	2.93873
 212	1	1	-0.399874	4.54619	-5.79373	3.13758
 213	1	2	0.119224	3.54498	-6.11847	2.83895
 214	1	2	0.109051	4.70496	-6.02826	4.19516
 215	1	2	0.118031	5.3	-6.30023	2.52769
 216	1	6	-0.590955	4.90687	-3.52357	3.83352
 217	1	1	-0.003445	1.45993	-2.26702	-0.00789385
 218	1	1	0.299845	2.00842	-2.53146	1.41997
 219	1	2	0.023286	2.29393	-2.09479	-0.69707
 220	1	2	-0.011958	0.891883	-1.32928	-0.0200383
 221	1	3	-0.518063	1.05201	-2.07239	2.39678
 222	1	4	0.011666	2.14869	-3.61156	1.53032
 223	1	5	0.843192	1.02029	-2.72502	3.59309
 224	1	1	-0.399874	0.0605881	-2.07051	4.5548
 225	1	2	0.119224	-0.682853	-2.80703	4.87406
 226	1	2	0.109051	-0.438106	-1.22198	4.07941
 227	1	2	0.118031	0.619383	-1.71568	5.42598
 228	1	6	-0.590955	1.59401	-3.7691	3.83568
 229	1	1	-0.003445	-0.701245	-3.68375	0.26939
 230	1	1	0.299845	0.592992	-3.44152	-0.554754
 231	1	2	0.023286	-1.18494	-4.60749	-0.0715283
 232	1	2	-0.011958	-0.389272	-3.88677	1.29656
 233	1	3	-0.518063	1.34708	-4.67503	-0.469662
 234	1	4	0.011666	0.334208	-3.25053	-1.60131
 235	1	5	0.843192	2.44392	-4.87363	-1.2479
 236	1	1	-0.399874	3.14386	-6.15829	-0.87732
 237	1	2	0.119224	4.00197	-6.30605	-1.54114
 238	1	2	0.109051	2.45234	-6.99964	-0.969553
 239	1	2	0.118031	3.48555	-6.09117	0.159133
 240	1	6	-0.590955	2.85751	-4.11592	-2.09943
 241	1	1	-0.003445	-2.54733	-2.3647	1.5804
 242	1	1	0.299845	-1.74893	-2.5272	0.257347
 243	1	2	0.023286	-1.89079	-1.93611	2.34518
 244	1	2	-0.011958	-3.33476	-1.61783	1.41145
 245	1	3	-0.518063	-2.73677	-2.76797	-0.764057
 246	1	4	0.011666	-1.25408	-1.56632	0.0756909
 247	1	5	0.843192	-2.45557	-2.45122	-2.0543
 248	1	1	-0.399874	-3.62742	-2.7603	-2.95288
 249	1	2	0.119224	-3.35836	-2.53747	-3.98947
 250	1	2	0.109051	-4.48709	-2.15528	-2.6509
 251	1	2	0.118031	-3.87703	-3.82184	-2.85667
 252	1	6	-0.590955	-1.47341	-1.8383	-2.42355
 253	1	1	-0.003445	-4.444	-3.44972	2.99717
 254	1	1	0.299845	-3.18434	-3.67428	2.11526
 255	1	2	0.023286	-5.16226	-2.8359	2.43934
 256	1	2	-0.011958	-4.93242	-4.42003	3.14372
 257	1	3	-0.518063	-2.17323	-4.35776	2.88187
 258	1	4	0.011666	-3.48228	-4.28309	1.25148
 259	1	5	0.843192	-2.30038	-5.6878	3.12072
 260	1	1	-0.399874	-1.08638	-6.21751	3.84063
 261	1	2	0.119224	-0.18217	-5.84284	3.34915
 262	1	2	0.109051	-1.09162	-7.31158	3.80972
 263	1	2	0.118031	-1.09677	-5.87247	4.87858
 264	1	6	-0.590955	-3.23558	-6.3766	2.76792
 265	1	1	-0.003445	-5.34255	-2.98164	5.39987
 266	1	1	0.299845	-4.17241	-2.81431	4.3877
 267	1	2	0.023286	-5.252	-3.97093	5.86253
 268	1	2	-0.011958	-5.20776	-2.27246	6.22589
 269	1	3	-0.518063	-3.89306	-1.4076	4.21692
 270	1	4	0.011666	-3.29475	-3.30895	4.82237
 271	1	5	0.843192	-3.20794	-0.766872	5.20631
 272	1	1	-0.399874	-3.0204	0.699115	4.90211
 273	1	2	0.119224	-3.92245	1.10577	4.43868
 274	1	2	0.109051	-2.17396	0.824175	4.22064
 275	1	2	0.118031	-2.82106	1.23496	5.8363
 276	1	6	-0.590955	-2.76987	-1.2947	6.20781
 277	1	1	-0.003445	-7.73672	-2.11318	5.80853
 278	1	1	0.299845	-6.76973	-2.80053	4.80665
 279	1	2	0.023286	-7.50201	-1.04143	5.82796
 280	1	2	-0.011958	-7.52634	-2.4865	6.81828
 281	1	3	-0.518063	-7.27705	-4.06771	4.31659
 282	1	4	0.011666	-6.69957	-2.12068	3.94917
 283	1	5	0.843192	-7.60245	-5.09703	5.14827
 284	1	1	-0.399874	-8.08216	-6.28861	4.3598
 285	1	2	0.119224	-8.95	-5.99717	3.75946
 286	1	2	0.109051	-8.36337	-7.0935	5.04653
 287	1	2	0.118031	-7.27928	-6.62967	3.6987
 288	1	6	-0.590955	-7.54499	-5.07076	6.36106
 289	1	1	-0.003445	-10.1536	-1.31828	6.29574
 290	1	1	0.299845	-9.24669	-2.29891	5.50875
 291	1	2	0.023286	-9.96033	-0.297332	5.94192
 292	1	2	-0.011958	-11.2087	-1.52291	6.07801
 293	1	3	-0.518063	-9.45858	-2.0938	4.10107
 294	1	4	0.011666	-9.50987	-3.3239	5.796
 295	1	5	0.843192	-10.386	-2.86835	3.47836
 296	1	1	-0.399874	-10.441	-2.55735	2.00491
 297	1	2	0.119224	-10.4443	-1.47247	1.8625
 298	1	2	0.109051	-11.3523	-2.98938	1.57891
 299	1	2	0.118031	-9.56212	-2.98972	1.51783
 300	1	6	-0.590955	-11.01	-3.77565	3.99189
 301	1	1	-0.003445	-10.638	-0.332351	8.66783
 302	1	1	0.299845	-9.87984	-1.3808	7.82043
 303	1	2	0.023286	-11.7075	-0.560487	8.74926
 304	1	2	-0.011958	-10.5769	0.630791	8.14616
 305	1	3	-0.518063	-10.0431	-2.72198	8.32389
 306	1	4	0.011666	-8.82254	-1.12457	7.94408
 307	1	5	0.843192	-11.2457	-3.35857	8.31361
 308	1	1	-0.399874	-11.0904	-4.78092	8.78675
 309	1	2	0.119224	-10.7341	-4.7815	9.82043
 310	1	2	0.109051	-10.3568	-5.28944	8.15152
 311	1	2	0.118031	-12.055	-5.29379	8.72015
 312	1	6	-0.590955	-12.3028	-2.87971	7.9573
 313	1	1	-0.003445	-9.95733	1.26129	10.5903
 314	1	1	0.299845	-9.98978	-0.206755	10.0717
 315	1	2	0.023286	-10.764	1.83816	10.1209
 316	1	2	-0.011958	-10.1885	1.27818	11.6621
 317	1	3	-0.518063	-10.7265	-1.05066	10.9806
 318	1	4	0.011666	-8.95804	-0.575727	10.009
 319	1	5	0.843192	-10.0978	-1.48746	12.1054
 320	1	1	-0.399874	-10.9919	-2.37301	12.9379
 321	1	2	0.119224	-10.5936	-2.42627	13.9566
 322	1	2	0.109051	-11.0169	-3.37482	12.4992
 323	1	2	0.118031	-12.0041	-1.95845	12.9602
 324	1	6	-0.590955	-8.94295	-1.25007	12.3984
 325	1	1	-0.003445	-8.17251	2.05147	8.85388
 326	1	1	0.299845	-8.59703	1.99102	10.3444
 327	1	2	0.023286	-8.08324	1.02948	8.46931
 328	1	2	-0.011958	-8.96654	2.54146	8.27522
 329	1	3	-0.518063	-7.54976	1.29835	11.0458
 330	1	4	0.011666	-8.67641	3.02159	10.7147
 331	1	5	0.843192	-7.48951	1.40627	12.4016
 332	1	1	-0.399874	-6.31096	0.643129	12.9506
 333	1	2	0.119224	-6.31059	-0.367331	12.5293
 334	1	2	0.109051	-6.39685	0.582112	14.0397
 335	1	2	0.118031	-5.38685	1.15768	12.6739
 336	1	6	-0.590955	-8.18986	2.13911	13.0727
 337	1	1	-0.003445	-6.17644	2.4131	7.23477
 338	1	1	0.299845	-6.81808	2.77688	8.60881
 339	1	2	0.023286	-5.26175	2.99311	7.06838
 340	1	2	-0.011958	-5.84619	1.36804	7.30333
 341	1	3	-0.518063	-7.02955	4.19918	8.7
 342	1	4	0.011666	-6.11462	2.46386	9.39105
 343	1	5	0.843192	-5.94237	5.00302	8.87551
 344	1	1	-0.399874	-6.32588	6.46103	8.89382
 345	1	2	0.119224	-5.4444	7.06365	9.13596
 346	1	2	0.109051	-7.10145	6.62907	9.6468
 347	1	2	0.118031	-6.70398	6.75027	7.90834
 348	1	6	-0.590955	-4.79817	4.61449	9.00527
 349	1	1	-0.003445	-7.30718	3.99042	5.45896
 350	1	1	0.299845	-7.10911	2.54324	6.00184
 351	1	2	0.023286	-8.17408	3.95926	4.78989
 352	1	2	-0.011958	-7.59242	4.67674	6.26436
 353	1	3	-0.518063	-6.53665	1.72794	4.9576
 354	1	4	0.011666	-8.08939	2.13076	6.26598
 355	1	5	0.843192	-7.32439	1.33934	3.92193
 356	1	1	-0.399874	-6.49328	0.784085	2.79278
 357	1	2	0.119224	-5.80712	0.0254518	3.17462
 358	1	2	0.109051	-5.91322	1.59772	2.34442
 359	1	2	0.118031	-7.15132	0.343416	2.0375
 360	1	6	-0.590955	-8.53064	1.46132	3.8862
 361	1	1	-0.003445	-6.48392	5.40239	3.42712
 362	1	1	0.299845	-6.08715	4.55324	4.67398
 363	1	2	0.023286	-7.14519	4.79112	2.80133
 364	1	2	-0.011958	-5.59066	5.54374	2.80647
 365	1	3	-0.518063	-5.22674	5.285	5.57202
 366	1	4	0.011666	-5.52146	3.70429	4.27601
 367	1	5	0.843192	-3.91923	5.4432	5.22159
 368	1	1	-0.399874	-3.18129	6.33595	6.18793
 369	1	2	0.119224	-3.36695	5.9992	7.21234
 370	1	2	0.109051	-3.53156	7.36587	6.07186
 371	1	2	0.118031	-2.10873	6.28344	5.9745
 372	1	6	-0.590955	-3.40762	4.98836	4.21725
 373	1	1	-0.003445	-6.18155	7.8182	4.31175
 374	1	1	0.299845	-7.13867	6.80238	3.6418
 375	1	2	0.023286	-6.17318	7.66833	5.39495
 376	1	2	-0.011958	-5.1693	7.5736	3.9789
 377	1	3	-0.518063	-8.35518	6.70567	4.41036
 378	1	4	0.011666	-7.37477	7.19833	2.64491
 379	1	5	0.843192	-9.46466	6.20981	3.79659
 380	1	1	-0.399874	-10.6381	6.14564	4.74245
 381	1	2	0.119224	-11.4731	5.64206	4.24313
 382	1	2	0.109051	-10.9344	7.16051	5.02277
 383	1	2	0.118031	-10.3554	5.58657	5.63901
 384	1	6	-0.590955	-9.50572	5.79842	2.65545
 385	1	1	-0.003445	-5.32637	10.2986	4.2576
 386	1	1	0.299845	-6.48048	9.30228	3.93822
 387	1	2	0.023286	-5.68267	11.3202	4.08323
 388	1	2	-0.011958	-5.07609	10.2329	5.32175
 389	1	3	-0.518063	-7.69623	9.77873	4.55611
 390	1	4	0.011666	-6.63335	9.33989	2.85156
 391	1	5	0.843192	-7.82778	9.87781	5.91034
 392	1	1	-0.399874	-9.1214	10.5568	6.28116
 393	1	2	0.119224	-9.82798	10.5055	5.44737
 394	1	2	0.109051	-8.91102	11.6052	6.51477
 395	1	2	0.118031	-9.54471	10.061	7.15951
 396	1	6	-0.590955	-7.01726	9.51827	6.73949
 397	1	1	-0.003445	-3.86849	10.9173	2.14101
 398	1	1	0.299845	-4.04887	10.0423	3.41127
 399	1	2	0.023286	-3.18182	10.3557	1.49551
 400	1	2	-0.011958	-4.82531	10.9211	1.60212
 401	1	3	-0.518063	-2.87788	9.88069	4.24346
 402	1	4	0.011666	-4.17903	9.05105	2.96688
 403	1	5	0.843192	-2.4558	10.8189	5.13027
 404	1	1	-0.399874	-1.41789	10.2424	6.05663
 405	1	2	0.119224	-0.519517	10.0019	5.48363
 406	1	2	0.109051	-1.80869	9.33171	6.51999
 407	1	2	0.118031	-1.18585	10.9727	6.83899
 408	1	6	-0.590955	-2.87421	11.9504	5.22038
 409	1	1	-0.003445	-4.27689	13.4503	2.84586
 410	1	1	0.299845	-3.34319	12.3808	2.212
 411	1	2	0.023286	-5.28835	13.2885	2.45632
 412	1	2	-0.011958	-4.3566	13.3337	3.92953
 413	1	3	-0.518063	-3.26906	12.8104	0.84613
 414	1	4	0.011666	-2.35235	12.4117	2.68277
 415	1	5	0.843192	-2.25139	12.4702	0.0319983
 416	1	1	-0.399874	-2.48653	13.0945	-1.31793
 417	1	2	0.119224	-1.5907	13.0057	-1.93727
 418	1	2	0.109051	-2.74707	14.1518	-1.18513
 419	1	2	0.118031	-3.33087	12.5879	-1.79596
 420	1	6	-0.590955	-1.24848	11.8743	0.371485
 421	1	1	-0.003445	-2.38703	15.2541	3.06656
 422	1	1	0.299845	-3.80517	14.9073	2.51356
 423	1	2	0.023286	-2.44837	16.1069	3.75565
 424	1	2	-0.011958	-2.01433	14.4185	3.67244
 425	1	3	-0.518063	-4.75818	15.8703	3.00501
 426	1	4	0.011666	-3.77629	15.0322	1.42491
 427	1	5	0.843192	-5.92062	16.0182	2.30781
 428	1	1	-0.399874	-6.7668	17.1424	2.85192
 429	1	2	0.119224	-6.22159	17.6839	3.63094
 430	1	2	0.109051	-7.69122	16.7284	3.26492
 431	1	2	0.118031	-7.00346	17.8263	2.03064
 432	1	6	-0.590955	-6.26416	15.3483	1.35313
 433	1	1	-0.003445	0.0267856	14.9084	2.07368
 434	1	1	0.299845	-1.36392	15.5702	1.93039
 435	1	2	0.023286	0.644634	15.223	1.222
 436	1	2	-0.011958	-0.111493	13.8298	1.93671
 437	1	3	-0.518063	-1.13273	16.9829	1.82559
 438	1	4	0.011666	-1.75203	15.1853	0.980097
 439	1	5	0.843192	-1.87165	17.7157	0.957476
 440	1	1	-0.399874	-1.35287	19.1308	0.883725
 441	1	2	0.119224	-0.264708	19.1081	0.767096
 442	1	2	0.109051	-1.59954	19.6567	1.81074
 443	1	2	0.118031	-1.80396	19.6433	0.0280071
 444	1	6	-0.590955	-2.72039	17.2675	0.211367
 445	1	1	-0.003445	1.29946	13.8529	4.01237
 446	1	1	0.299845	0.794204	15.1863	3.39837
 447	1	2	0.023286	0.47287	13.1349	3.96065
 448	1	2	-0.011958	2.09254	13.4368	3.37627
 449	1	3	-0.518063	1.95465	15.981	3.08555
 450	1	4	0.011666	0.131087	15.6891	4.1128
 451	1	5	0.843192	1.9135	17.3307	3.24694
 452	1	1	-0.399874	3.17078	17.9747	2.70945
 453	1	2	0.119224	3.38753	18.8814	3.2823
 454	1	2	0.109051	3.02309	18.2255	1.65481
 455	1	2	0.118031	4.01009	17.2779	2.80203
 456	1	6	-0.590955	1.01614	17.9522	3.78105
 457	1	1	-0.003445	1.5385	12.5938	6.24318
 458	1	1	0.299845	1.81416	13.9152	5.47972
 459	1	2	0.023286	0.583199	12.1846	5.90047
 460	1	2	-0.011958	1.39459	12.8039	7.31142
 461	1	3	-0.518063	1.11162	14.9292	6.22105
 462	1	4	0.011666	2.89485	14.107	5.48371
 463	1	5	0.843192	1.73182	16.1077	6.4948
 464	1	1	-0.399874	0.865649	16.9567	7.39015
 465	1	2	0.119224	0.464038	16.336	8.19733
 466	1	2	0.109051	0.0397576	17.3694	6.80271
 467	1	2	0.118031	1.46593	17.7685	7.81186
 468	1	6	-0.590955	2.86813	16.3974	6.17746
 469	1	1	-0.003445	3.79149	11.7534	7.10406
 470	1	1	0.299845	2.63628	11.5151	6.0985
 471	1	2	0.023286	4.56541	10.9809	7.02824
 472	1	2	-0.011958	3.41651	11.7573	8.13599
 473	1	3	-0.518063	1.98256	10.2589	6.37371
 474	1	4	0.011666	3.02132	11.5148	5.07018
 475	1	5	0.843192	2.61437	9.08629	6.10796
 476	1	1	-0.399874	1.70126	7.91549	6.38686
 477	1	2	0.119224	2.30458	7.0147	6.53708
 478	1	2	0.109051	1.03354	7.77314	5.53193
 479	1	2	0.118031	1.1078	8.11421	7.28453
 480	1	6	-0.590955	3.72423	8.97552	5.6332
 481	1	4	0	3.85404	-10.6175	-9.57662
 482	1	2	0	4.27168	12.7218	6.91732

Velocities

   1	7.28166e-05	-0.000419036	0.000654327
   2	-0.000146574	-0.000441149	-6.43659e-05
   3	-0.000166235	-0.000232348	0.000687446
   4	4.67705e-05	-0.000488115	0.000735511
   5	0.000127893	-0.0006445	0.00026539
   6	2.33271e-05	8.28788e-05	0.000141798
   7	-0.000223623	0.000567277	0.000614017
   8	0.000309107	0.0003777	0.000474116
   9	-0.000144636	0.00124955	0.0010064
  10	0.000142274	0.0001958	-0.00072969
  11	0.000130815	-0.000216027	0.000934321
  12	8.01059e-05	0.00193748	0.00216618
  13	0.000195071	8.72902e-05	0.000258543
  14	0.000148029	0.000104824	0.000194026
  15	0.000287308	0.000600197	0.000537263
  16	0.000255209	-0.000180924	0.0008989
  17	0.000744869	-0.000130922	-0.000123857
  18	0.000170537	0.000133894	-3.58869e-05
  19	-0.000137558	0.000105308	0.000269423
  20	0.000748345	0.000981362	7.05811e-05
  21	0.000730114	0.000710936	-0.000266292
  22	0.00127333	0.00124213	-0.000258682
  23	0.000530476	0.00125593	0.000653651
  24	-0.000873841	0.000763301	0.000908854
  25	-0.000253587	-0.000443622	0.000216071
  26	0.000317802	-3.89691e-05	-6.1424e-05
  27	-0.000403458	-0.000208675	0.000404632
  28	-0.000116677	-0.000667715	3.60724e-06
  29	0.000398881	-0.000233244	-0.000497843
  30	0.000472957	7.83236e-05	-7.70256e-05
  31	0.000363454	-5.18122e-05	-0.000433839
  32	9.55145e-05	0.000516585	5.05589e-05
  33	0.000196105	0.000363273	-0.000993425
  34	-0.000957154	0.00151438	0.000314635
  35	0.000465632	-1.13333e-05	0.0011809
  36	0.000688343	0.00018319	-0.000334613
  37	-0.000490318	-0.000216223	6.51707e-05
  38	-0.000464246	-0.000505213	0.000221663
  39	-0.000670841	-0.000140052	1.3905e-05
  40	-0.000584068	-0.000153735	6.03348e-05
  41	-0.000595737	-0.000460063	0.000131009
  42	-0.000656231	-0.000494882	0.000284174
  43	-0.000498281	-0.000234206	0.000169093
  44	-0.000299011	-0.000261702	-0.000528023
  45	5.08081e-05	-0.000218391	-0.000609086
  46	-0.000787877	-0.000446244	-0.000764457
  47	-0.000144471	-0.000232471	-0.000728738
  48	-0.000329103	1.40298e-05	0.00040418
  49	-0.000156186	0.000160226	-0.000573541
  50	-0.000237218	-0.000418648	-0.000257223
  51	-0.000465068	0.00069362	-0.000718117
  52	0.000365243	-4.32362e-06	-0.000988846
  53	2.89992e-05	-0.000425145	-0.000669139
  54	-0.000158653	-0.000650461	-9.6308e-05
  55	-0.000117849	-1.23774e-05	-2.2529e-05
  56	0.000255957	-0.000185998	-0.00069526
  57	-0.00022828	-0.000684787	-0.00101114
  58	0.000813334	-0.000136513	-0.00115293
  59	0.000380107	0.000103696	-0.000367149
  60	-0.00048719	0.000917139	0.000982208
  61	-0.000191606	1.79328e-05	3.58037e-05
  62	-0.000315617	-8.29538e-05	-0.000336969
  63	-0.000295847	-5.18141e-06	0.000230351
  64	5.98862e-06	0.000114027	5.47528e-06
  65	-0.000361896	-1.14716e-05	-0.000259614
  66	-0.000483744	-6.02679e-05	-0.000302131
  67	-0.00031278	-0.000214062	-0.000556203
  68	0.000327631	0.000373205	0.00031489
  69	0.000845846	0.00105924	0.000424944
  70	0.000385394	0.000778406	-3.11572e-05
  71	0.000500067	-0.000304137	0.00107801
  72	-0.000903526	-0.000340294	-0.000794436
  73	-0.000122448	-6.76113e-05	1.52082e-05
  74	-7.31816e-05	0.000130599	0.000236741
  75	-5.35546e-05	8.65099e-05	-5.68575e-05
  76	-0.000140434	-0.000137655	-0.000173107
  77	0.000202194	0.000180786	0.000485435
  78	-0.00028755	0.000319263	0.000306974
  79	0.000692155	7.916e-05	0.000525823
  80	0.000833916	0.000382095	0.000501432
  81	0.000740058	0.000322931	0.00122832
  82	0.000548199	6.6832e-05	-7.08788e-05
  83	0.00149887	0.000846067	0.00031889
  84	0.000615057	0.000148424	0.000135923
  85	-0.000182731	-0.000130997	0.000171374
  86	-0.000165743	-0.000209601	0.000103938
  87	-0.000202805	-8.99337e-05	0.000289795
  88	-0.000256487	-0.000164779	0.000218391
  89	-0.000171045	-0.000400739	7.61959e-05
  90	-0.00012267	-0.000190881	0.000190617
  91	-0.000492962	-0.000157284	0.000359085
  92	-0.000592242	-0.000473403	0.000413099
  93	-0.000596201	-0.000618966	0.000357248
  94	-0.000569474	-0.000424271	0.000240935
  95	-0.000598743	-0.00050239	0.000562776
  96	-0.000680851	-0.000117109	0.000680008
  97	-2.94205e-06	2.97566e-05	1.61708e-06
  98	-5.95698e-05	4.70969e-05	0.000153798
  99	0.000228638	0.000182178	4.57263e-05
 100	7.36826e-07	-3.40648e-05	-0.000207739
 101	-7.01829e-05	0.000105108	0.000352841
 102	-2.82126e-06	0.000137078	0.00015113
 103	-0.00015434	0.000120166	0.000151097
 104	-0.000108878	0.00010705	0.000125688
 105	-9.01199e-05	-0.000146217	0.000420401
 106	-0.000116602	0.000547968	0.00017906
 107	-0.000124456	-1.85644e-05	-0.000310616
 108	-8.48072e-05	-0.000163157	-0.000119419
 109	-0.000449067	-1.10608e-05	0.000393752
 110	-0.00012813	7.08744e-06	5.40605e-05
 111	-0.000973259	-0.00040746	0.000377611
 112	-0.000501209	0.000346221	0.000990563
 113	2.2613e-05	0.000202892	7.5483e-05
 114	-2.36912e-05	-0.000238844	-6.10675e-05
 115	0.000136087	9.52953e-05	-2.06159e-05
 116	0.000364677	-0.000449293	0.000379541
 117	0.00098302	0.00040729	-8.29205e-06
 118	0.00115328	-0.00137052	0.00117835
 119	-0.000930555	-0.000909705	0.000290625
 120	0.000195542	-0.000108602	-0.000136706
 121	-0.000212044	0.000113596	-4.5268e-05
 122	-0.000254622	9.12082e-05	0.000257316
 123	-0.000320103	-9.0688e-05	-4.03208e-05
 124	-0.000163757	0.000179809	-0.000254679
 125	7.8606e-05	0.000138958	0.000167762
 126	-0.00010793	9.50117e-05	0.000291404
 127	-0.000769587	4.2421e-05	-0.000389912
 128	0.000378342	-9.17328e-05	-0.00081356
 129	0.000310506	0.000378792	-0.000600438
 130	0.000571242	4.66022e-05	-0.000726986
 131	0.000447754	-0.000355788	-0.000938642
 132	-0.000516545	-0.00057105	-0.00143672
 133	-0.000272473	-1.5289e-05	-0.000103301
 134	-7.84677e-05	0.000309383	-7.12822e-05
 135	-0.000840503	-6.79369e-05	0.000144443
 136	-0.000112737	-0.000561233	-0.000294444
 137	-0.000128507	0.000544909	-1.82342e-05
 138	0.00011657	0.000319771	-0.000174963
 139	0.000243696	-1.35403e-06	0.000347772
 140	0.000201483	-6.92355e-05	7.79215e-05
 141	0.000147385	-0.00026116	9.4743e-05
 142	0.000313259	9.11911e-05	9.24232e-05
 143	0.000316959	-2.25175e-05	-0.000135806
 144	0.000483786	-0.000793757	0.000624939
 145	-0.00028571	7.99002e-05	-0.000222949
 146	-6.88518e-06	0.000281926	-0.000171916
 147	-0.000412255	0.000210795	-0.000500475
 148	-0.000548406	-0.000115874	-0.000117852
 149	0.000341328	0.000351912	-0.000397467
 150	-8.76536e-05	0.000613776	2.63496e-06
 151	0.000456057	0.000402563	7.14199e-05
 152	0.000381847	0.000465367	-0.000270848
 153	0.000937224	0.000644539	-0.000451316
 154	-2.11966e-05	0.000604135	-0.000692856
 155	0.000274231	0.000330124	0.000168384
 156	0.000217212	0.000118992	0.000586611
 157	9.98017e-06	-2.76564e-05	2.13046e-05
 158	-0.000109394	1.08969e-05	-0.000130495
 159	0.000181135	3.71936e-05	0.000137882
 160	4.07074e-05	5.52425e-05	-0.000140531
 161	-0.000300515	0.000110862	-0.000118776
 162	-5.53451e-06	-8.56413e-05	-0.000295539
 163	-0.000449017	0.000261416	8.96509e-05
 164	-0.000963159	0.000534069	3.65932e-05
 165	-0.00149669	0.00106678	0.000611315
 166	-0.00138794	0.00039422	-0.000716869
 167	-0.000360799	0.000371509	0.000385333
 168	-0.000527084	0.000243101	-0.000122223
 169	-4.84227e-05	-0.00031714	0.000406452
 170	-0.000103314	-0.000152044	0.000194828
 171	0.000404476	-0.00030044	0.000475191
 172	-0.00021326	-0.000466896	0.000794776