

################################################################################
##################################    Init    ##################################
################################################################################
units           real
atom_style      full
pair_style      lj/cut/coul/long 12.0  12.0
kspace_style    pppm 1e-4
bond_style      harmonic
angle_style     harmonic
dihedral_style  fourier
improper_style  cvff
special_bonds   amber
pair_modify     mix arithmetic
read_data       temp.lmps
  orthogonal box = (-56.3316 -56.3316 -56.3316) to (56.3316 56.3316 56.3316)
  1 by 1 by 1 MPI processor grid
  reading atoms ...
  24 atoms
  reading velocities ...
  24 velocities
  scanning bonds ...
  4 = max bonds/atom
  scanning angles ...
  6 = max angles/atom
  scanning dihedrals ...
  13 = max dihedrals/atom
  scanning impropers ...
  1 = max impropers/atom
  reading bonds ...
  23 bonds
  reading angles ...
  38 angles
  reading dihedrals ...
  42 dihedrals
  reading impropers ...
  2 impropers
  4 = max # of 1-2 neighbors
  6 = max # of 1-3 neighbors
  13 = max # of 1-4 neighbors
  15 = max # of special neighbors
  special bonds CPU = 0.000237942 secs
  read_data CPU = 0.00342083 secs
################################################################################

timestep        1
fix             pysimm_md all nve/limit 0.1
run             2000
PPPM initialization ...
  using 12-bit tables for long-range coulomb (../kspace.cpp:332)
  G vector (1/distance) = 0.111172
  grid = 12 12 12
  stencil order = 5
  estimated absolute RMS force accuracy = 0.0252824
  estimated relative force accuracy = 7.61372e-05
  using double precision KISS FFT
  3d grid and FFT values/proc = 4913 1728
Neighbor list info ...
  update every 1 steps, delay 10 steps, check yes
  max neighbors/atom: 2000, page size: 100000
  master list distance cutoff = 14
  ghost atom cutoff = 14
  binsize = 7, bins = 17 17 17
  1 neighbor lists, perpetual/occasional/extra = 1 0 0
  (1) pair lj/cut/coul/long, perpetual
      attributes: half, newton on
      pair build: half/bin/newton
      stencil: half/bin/3d/newton
      bin: standard
Per MPI rank memory allocation (min/avg/max) = 14.01 | 14.01 | 14.01 Mbytes
Step Temp E_pair E_mol TotEng Press 
       0    1.7988266    63.100065 1.530691e+27 1.530691e+27    30.929306 
    2000    1102.6248   -115.02773    64.566244    25.132959   -5.0774756 
Loop time of 0.809975 on 1 procs for 2000 steps with 24 atoms

Performance: 213.340 ns/day, 0.112 hours/ns, 2469.212 timesteps/s
99.7% CPU use with 1 MPI tasks x no OpenMP threads

MPI task timing breakdown:
Section |  min time  |  avg time  |  max time  |%varavg| %total
---------------------------------------------------------------
Pair    | 0.018494   | 0.018494   | 0.018494   |   0.0 |  2.28
Bond    | 0.017437   | 0.017437   | 0.017437   |   0.0 |  2.15
Kspace  | 0.76733    | 0.76733    | 0.76733    |   0.0 | 94.73
Neigh   | 0.001965   | 0.001965   | 0.001965   |   0.0 |  0.24
Comm    | 0.00071788 | 0.00071788 | 0.00071788 |   0.0 |  0.09
Output  | 1.6928e-05 | 1.6928e-05 | 1.6928e-05 |   0.0 |  0.00
Modify  | 0.0014405  | 0.0014405  | 0.0014405  |   0.0 |  0.18
Other   |            | 0.002573   |            |       |  0.32

Nlocal:    24 ave 24 max 24 min
Histogram: 1 0 0 0 0 0 0 0 0 0
Nghost:    0 ave 0 max 0 min
Histogram: 1 0 0 0 0 0 0 0 0 0
Neighs:    276 ave 276 max 276 min
Histogram: 1 0 0 0 0 0 0 0 0 0

Total # of neighbors = 276
Ave neighs/atom = 11.5
Ave special neighs/atom = 8.58333
Neighbor list builds = 92
Dangerous builds = 0
unfix pysimm_md
min_style cg
minimize 0.001 0.001 10000 100000
WARNING: Using 'neigh_modify every 1 delay 0 check yes' setting during minimization (../min.cpp:190)
PPPM initialization ...
  using 12-bit tables for long-range coulomb (../kspace.cpp:332)
  G vector (1/distance) = 0.111172
  grid = 12 12 12
  stencil order = 5
  estimated absolute RMS force accuracy = 0.0252824
  estimated relative force accuracy = 7.61372e-05
  using double precision KISS FFT
  3d grid and FFT values/proc = 4913 1728
Per MPI rank memory allocation (min/avg/max) = 15.14 | 15.14 | 15.14 Mbytes
Step Temp E_pair E_mol TotEng Press 
    2000    1102.6248   -115.02773    64.566244    25.132959   -5.0774756 
    2012    1102.6248   -114.41586    16.570505   -22.250906    2.1576588 
Loop time of 0.00983977 on 1 procs for 12 steps with 24 atoms

91.5% CPU use with 1 MPI tasks x no OpenMP threads

Minimization stats:
  Stopping criterion = energy tolerance
  Energy initial, next-to-last, final = 
        -50.4614873519     -97.7635254795     -97.8453516644
  Force two-norm initial, final = 313.565 8.95306
  Force max component initial, final = 141.333 2.94674
  Final line search alpha, max atom move = 0.0189567 0.0558604
  Iterations, force evaluations = 12 24

MPI task timing breakdown:
Section |  min time  |  avg time  |  max time  |%varavg| %total
---------------------------------------------------------------
Pair    | 0.00035453 | 0.00035453 | 0.00035453 |   0.0 |  3.60
Bond    | 0.00023556 | 0.00023556 | 0.00023556 |   0.0 |  2.39
Kspace  | 0.0091581  | 0.0091581  | 0.0091581  |   0.0 | 93.07
Neigh   | 0          | 0          | 0          |   0.0 |  0.00
Comm    | 1.2159e-05 | 1.2159e-05 | 1.2159e-05 |   0.0 |  0.12
Output  | 0          | 0          | 0          |   0.0 |  0.00
Modify  | 0          | 0          | 0          |   0.0 |  0.00
Other   |            | 7.939e-05  |            |       |  0.81

Nlocal:    24 ave 24 max 24 min
Histogram: 1 0 0 0 0 0 0 0 0 0
Nghost:    0 ave 0 max 0 min
Histogram: 1 0 0 0 0 0 0 0 0 0
Neighs:    276 ave 276 max 276 min
Histogram: 1 0 0 0 0 0 0 0 0 0

Total # of neighbors = 276
Ave neighs/atom = 11.5
Ave special neighs/atom = 8.58333
Neighbor list builds = 0
Dangerous builds = 0
write_dump all custom pysimm.dump.tmp id q x y z vx vy vz
quit


################################################################################
##################################    Init    ##################################
################################################################################
units           real
atom_style      full
pair_style      lj/cut/coul/long 12.0  12.0
kspace_style    pppm 1e-4
bond_style      harmonic
angle_style     harmonic
dihedral_style  fourier
improper_style  cvff
special_bonds   amber
pair_modify     mix arithmetic
read_data       temp.lmps
  orthogonal box = (-56.3316 -56.3316 -56.3316) to (56.3316 56.3316 56.3316)
  1 by 1 by 1 MPI processor grid
  reading atoms ...
  36 atoms
  reading velocities ...
  36 velocities
  scanning bonds ...
  4 = max bonds/atom
  scanning angles ...
  6 = max angles/atom
  scanning dihedrals ...
  13 = max dihedrals/atom
  scanning impropers ...
  1 = max impropers/atom
  reading bonds ...
  35 bonds
  reading angles ...
  60 angles
  reading dihedrals ...
  71 dihedrals
  reading impropers ...
  3 impropers
  4 = max # of 1-2 neighbors
  7 = max # of 1-3 neighbors
  14 = max # of 1-4 neighbors
  18 = max # of special neighbors
  special bonds CPU = 0.000201941 secs
  read_data CPU = 0.00325608 secs
################################################################################

timestep        1
fix             pysimm_md all nve/limit 0.1
run             2000
PPPM initialization ...
  using 12-bit tables for long-range coulomb (../kspace.cpp:332)
  G vector (1/distance) = 0.111174
  grid = 12 12 12
  stencil order = 5
  estimated absolute RMS force accuracy = 0.0309656
  estimated relative force accuracy = 9.32519e-05
  using double precision KISS FFT
  3d grid and FFT values/proc = 4913 1728
Neighbor list info ...
  update every 1 steps, delay 10 steps, check yes
  max neighbors/atom: 2000, page size: 100000
  master list distance cutoff = 14
  ghost atom cutoff = 14
  binsize = 7, bins = 17 17 17
  1 neighbor lists, perpetual/occasional/extra = 1 0 0
  (1) pair lj/cut/coul/long, perpetual
      attributes: half, newton on
      pair build: half/bin/newton
      stencil: half/bin/3d/newton
      bin: standard
Per MPI rank memory allocation (min/avg/max) = 14.2 | 14.2 | 14.2 Mbytes
Step Temp E_pair E_mol TotEng Press 
       0    725.17282   -57.455199 -1.3480207e+28 -1.3480207e+28 -5.3464728e+41 
    2000    1089.2434   -174.61508    101.25087    40.274746    4.1021336 
Loop time of 0.774056 on 1 procs for 2000 steps with 36 atoms

Performance: 223.240 ns/day, 0.108 hours/ns, 2583.793 timesteps/s
100.0% CPU use with 1 MPI tasks x no OpenMP threads

MPI task timing breakdown:
Section |  min time  |  avg time  |  max time  |%varavg| %total
---------------------------------------------------------------
Pair    | 0.034461   | 0.034461   | 0.034461   |   0.0 |  4.45
Bond    | 0.024462   | 0.024462   | 0.024462   |   0.0 |  3.16
Kspace  | 0.70743    | 0.70743    | 0.70743    |   0.0 | 91.39
Neigh   | 0.0026343  | 0.0026343  | 0.0026343  |   0.0 |  0.34
Comm    | 0.00069928 | 0.00069928 | 0.00069928 |   0.0 |  0.09
Output  | 1.3113e-05 | 1.3113e-05 | 1.3113e-05 |   0.0 |  0.00
Modify  | 0.0018919  | 0.0018919  | 0.0018919  |   0.0 |  0.24
Other   |            | 0.002469   |            |       |  0.32

Nlocal:    36 ave 36 max 36 min
Histogram: 1 0 0 0 0 0 0 0 0 0
Nghost:    0 ave 0 max 0 min
Histogram: 1 0 0 0 0 0 0 0 0 0
Neighs:    630 ave 630 max 630 min
Histogram: 1 0 0 0 0 0 0 0 0 0

Total # of neighbors = 630
Ave neighs/atom = 17.5
Ave special neighs/atom = 9.22222
Neighbor list builds = 88
Dangerous builds = 0
unfix pysimm_md
min_style cg
minimize 0.001 0.001 10000 100000
WARNING: Using 'neigh_modify every 1 delay 0 check yes' setting during minimization (../min.cpp:190)
PPPM initialization ...
  using 12-bit tables for long-range coulomb (../kspace.cpp:332)
  G vector (1/distance) = 0.111174
  grid = 12 12 12
  stencil order = 5
  estimated absolute RMS force accuracy = 0.0309656
  estimated relative force accuracy = 9.32519e-05
  using double precision KISS FFT
  3d grid and FFT values/proc = 4913 1728
Per MPI rank memory allocation (min/avg/max) = 15.33 | 15.33 | 15.33 Mbytes
Step Temp E_pair E_mol TotEng Press 
    2000    1089.2434   -174.61508    101.25087    40.274746    4.1021336 
    2019    1089.2434   -176.59263     30.71484   -32.238826    3.2143269 
Loop time of 0.0153511 on 1 procs for 19 steps with 36 atoms

97.7% CPU use with 1 MPI tasks x no OpenMP threads

Minimization stats:
  Stopping criterion = energy tolerance
  Energy initial, next-to-last, final = 
        -73.3642180381     -145.742908496     -145.877789973
  Force two-norm initial, final = 311.046 13.0721
  Force max component initial, final = 83.8314 3.44421
  Final line search alpha, max atom move = 0.00667605 0.0229937
  Iterations, force evaluations = 19 38

MPI task timing breakdown:
Section |  min time  |  avg time  |  max time  |%varavg| %total
---------------------------------------------------------------
Pair    | 0.0010989  | 0.0010989  | 0.0010989  |   0.0 |  7.16
Bond    | 0.00052547 | 0.00052547 | 0.00052547 |   0.0 |  3.42
Kspace  | 0.013612   | 0.013612   | 0.013612   |   0.0 | 88.67
Neigh   | 0          | 0          | 0          |   0.0 |  0.00
Comm    | 9.7752e-06 | 9.7752e-06 | 9.7752e-06 |   0.0 |  0.06
Output  | 0          | 0          | 0          |   0.0 |  0.00
Modify  | 0          | 0          | 0          |   0.0 |  0.00
Other   |            | 0.0001051  |            |       |  0.68

Nlocal:    36 ave 36 max 36 min
Histogram: 1 0 0 0 0 0 0 0 0 0
Nghost:    0 ave 0 max 0 min
Histogram: 1 0 0 0 0 0 0 0 0 0
Neighs:    630 ave 630 max 630 min
Histogram: 1 0 0 0 0 0 0 0 0 0

Total # of neighbors = 630
Ave neighs/atom = 17.5
Ave special neighs/atom = 9.22222
Neighbor list builds = 0
Dangerous builds = 0
write_dump all custom pysimm.dump.tmp id q x y z vx vy vz
quit


################################################################################
##################################    Init    ##################################
################################################################################
units           real
atom_style      full
pair_style      lj/cut/coul/long 12.0  12.0
kspace_style    pppm 1e-4
bond_style      harmonic
angle_style     harmonic
dihedral_style  fourier
improper_style  cvff
special_bonds   amber
pair_modify     mix arithmetic
read_data       temp.lmps
  orthogonal box = (-56.3316 -56.3316 -56.3316) to (56.3316 56.3316 56.3316)
  1 by 1 by 1 MPI processor grid
  reading atoms ...
  48 atoms
  reading velocities ...
  48 velocities
  scanning bonds ...
  4 = max bonds/atom
  scanning angles ...
  6 = max angles/atom
  scanning dihedrals ...
  13 = max dihedrals/atom
  scanning impropers ...
  1 = max impropers/atom
  reading bonds ...
  47 bonds
  reading angles ...
  82 angles
  reading dihedrals ...
  100 dihedrals
  reading impropers ...
  4 impropers
  4 = max # of 1-2 neighbors
  7 = max # of 1-3 neighbors
  15 = max # of 1-4 neighbors
  19 = max # of special neighbors
  special bonds CPU = 0.000225067 secs
  read_data CPU = 0.00350308 secs
################################################################################

timestep        1
fix             pysimm_md all nve/limit 0.1
run             2000
PPPM initialization ...
  using 12-bit tables for long-range coulomb (../kspace.cpp:332)
  G vector (1/distance) = 0.111172
  grid = 12 12 12
  stencil order = 5
  estimated absolute RMS force accuracy = 0.0357548
  estimated relative force accuracy = 0.000107674
  using double precision KISS FFT
  3d grid and FFT values/proc = 4913 1728
Neighbor list info ...
  update every 1 steps, delay 10 steps, check yes
  max neighbors/atom: 2000, page size: 100000
  master list distance cutoff = 14
  ghost atom cutoff = 14
  binsize = 7, bins = 17 17 17
  1 neighbor lists, perpetual/occasional/extra = 1 0 0
  (1) pair lj/cut/coul/long, perpetual
      attributes: half, newton on
      pair build: half/bin/newton
      stencil: half/bin/3d/newton
      bin: standard
Per MPI rank memory allocation (min/avg/max) = 14.27 | 14.27 | 14.27 Mbytes
Step Temp E_pair E_mol TotEng Press 
       0    811.57853   -106.96962 2.7600527e+26 2.7600527e+26 -1.0877427e+37 
    2000    879.07577   -229.11875    149.89761    43.935679   -3.8256409 
Loop time of 0.861059 on 1 procs for 2000 steps with 48 atoms

Performance: 200.683 ns/day, 0.120 hours/ns, 2322.721 timesteps/s
100.0% CPU use with 1 MPI tasks x no OpenMP threads

MPI task timing breakdown:
Section |  min time  |  avg time  |  max time  |%varavg| %total
---------------------------------------------------------------
Pair    | 0.056508   | 0.056508   | 0.056508   |   0.0 |  6.56
Bond    | 0.03299    | 0.03299    | 0.03299    |   0.0 |  3.83
Kspace  | 0.76201    | 0.76201    | 0.76201    |   0.0 | 88.50
Neigh   | 0.0044999  | 0.0044999  | 0.0044999  |   0.0 |  0.52
Comm    | 0.00068474 | 0.00068474 | 0.00068474 |   0.0 |  0.08
Output  | 1.4067e-05 | 1.4067e-05 | 1.4067e-05 |   0.0 |  0.00
Modify  | 0.0020759  | 0.0020759  | 0.0020759  |   0.0 |  0.24
Other   |            | 0.002278   |            |       |  0.26

Nlocal:    48 ave 48 max 48 min
Histogram: 1 0 0 0 0 0 0 0 0 0
Nghost:    0 ave 0 max 0 min
Histogram: 1 0 0 0 0 0 0 0 0 0
Neighs:    1128 ave 1128 max 1128 min
Histogram: 1 0 0 0 0 0 0 0 0 0

Total # of neighbors = 1128
Ave neighs/atom = 23.5
Ave special neighs/atom = 9.54167
Neighbor list builds = 107
Dangerous builds = 0
unfix pysimm_md
min_style cg
minimize 0.001 0.001 10000 100000
WARNING: Using 'neigh_modify every 1 delay 0 check yes' setting during minimization (../min.cpp:190)
PPPM initialization ...
  using 12-bit tables for long-range coulomb (../kspace.cpp:332)
  G vector (1/distance) = 0.111172
  grid = 12 12 12
  stencil order = 5
  estimated absolute RMS force accuracy = 0.0357548
  estimated relative force accuracy = 0.000107674
  using double precision KISS FFT
  3d grid and FFT values/proc = 4913 1728
Per MPI rank memory allocation (min/avg/max) = 15.39 | 15.39 | 15.39 Mbytes
Step Temp E_pair E_mol TotEng Press 
    2000    879.07577   -229.11875    149.89761    43.935679   -3.8256409 
    2035    879.07577   -236.16147    40.676901   -72.327745    4.4648921 
Loop time of 0.0302858 on 1 procs for 35 steps with 48 atoms

99.0% CPU use with 1 MPI tasks x no OpenMP threads

Minimization stats:
  Stopping criterion = energy tolerance
  Energy initial, next-to-last, final = 
        -79.2211419983     -195.325938333     -195.484566053
  Force two-norm initial, final = 353.687 18.4717
  Force max component initial, final = 90.0028 6.75113
  Final line search alpha, max atom move = 0.00399393 0.0269635
  Iterations, force evaluations = 35 70

MPI task timing breakdown:
Section |  min time  |  avg time  |  max time  |%varavg| %total
---------------------------------------------------------------
Pair    | 0.003351   | 0.003351   | 0.003351   |   0.0 | 11.06
Bond    | 0.0013092  | 0.0013092  | 0.0013092  |   0.0 |  4.32
Kspace  | 0.025359   | 0.025359   | 0.025359   |   0.0 | 83.73
Neigh   | 4.5061e-05 | 4.5061e-05 | 4.5061e-05 |   0.0 |  0.15
Comm    | 2.0981e-05 | 2.0981e-05 | 2.0981e-05 |   0.0 |  0.07
Output  | 0          | 0          | 0          |   0.0 |  0.00
Modify  | 0          | 0          | 0          |   0.0 |  0.00
Other   |            | 0.000201   |            |       |  0.66

Nlocal:    48 ave 48 max 48 min
Histogram: 1 0 0 0 0 0 0 0 0 0
Nghost:    0 ave 0 max 0 min
Histogram: 1 0 0 0 0 0 0 0 0 0
Neighs:    1128 ave 1128 max 1128 min
Histogram: 1 0 0 0 0 0 0 0 0 0

Total # of neighbors = 1128
Ave neighs/atom = 23.5
Ave special neighs/atom = 9.54167
Neighbor list builds = 1
Dangerous builds = 0
write_dump all custom pysimm.dump.tmp id q x y z vx vy vz
quit


################################################################################
##################################    Init    ##################################
################################################################################
units           real
atom_style      full
pair_style      lj/cut/coul/long 12.0  12.0
kspace_style    pppm 1e-4
bond_style      harmonic
angle_style     harmonic
dihedral_style  fourier
improper_style  cvff
special_bonds   amber
pair_modify     mix arithmetic
read_data       temp.lmps
  orthogonal box = (-56.3316 -56.3316 -56.3316) to (56.3316 56.3316 56.3316)
  1 by 1 by 1 MPI processor grid
  reading atoms ...
  60 atoms
  reading velocities ...
  60 velocities
  scanning bonds ...
  4 = max bonds/atom
  scanning angles ...
  6 = max angles/atom
  scanning dihedrals ...
  13 = max dihedrals/atom
  scanning impropers ...
  1 = max impropers/atom
  reading bonds ...
  59 bonds
  reading angles ...
  104 angles
  reading dihedrals ...
  129 dihedrals
  reading impropers ...
  5 impropers
  4 = max # of 1-2 neighbors
  7 = max # of 1-3 neighbors
  15 = max # of 1-4 neighbors
  19 = max # of special neighbors
  special bonds CPU = 0.000218153 secs
  read_data CPU = 0.00352907 secs
################################################################################

timestep        1
fix             pysimm_md all nve/limit 0.1
run             2000
PPPM initialization ...
  using 12-bit tables for long-range coulomb (../kspace.cpp:332)
  G vector (1/distance) = 0.111172
  grid = 12 12 12
  stencil order = 5
  estimated absolute RMS force accuracy = 0.039975
  estimated relative force accuracy = 0.000120384
  using double precision KISS FFT
  3d grid and FFT values/proc = 4913 1728
Neighbor list info ...
  update every 1 steps, delay 10 steps, check yes
  max neighbors/atom: 2000, page size: 100000
  master list distance cutoff = 14
  ghost atom cutoff = 14
  binsize = 7, bins = 17 17 17
  1 neighbor lists, perpetual/occasional/extra = 1 0 0
  (1) pair lj/cut/coul/long, perpetual
      attributes: half, newton on
      pair build: half/bin/newton
      stencil: half/bin/3d/newton
      bin: standard
Per MPI rank memory allocation (min/avg/max) = 14.27 | 14.27 | 14.27 Mbytes
Step Temp E_pair E_mol TotEng Press 
       0    700.63148    402.30882 1.0858484e+23 1.0858484e+23 7.8530807e+31 
    2000    861.17016   -290.41566    189.48619    50.522624   -2.8630704 
Loop time of 0.889227 on 1 procs for 2000 steps with 60 atoms

Performance: 194.326 ns/day, 0.124 hours/ns, 2249.145 timesteps/s
99.5% CPU use with 1 MPI tasks x no OpenMP threads

MPI task timing breakdown:
Section |  min time  |  avg time  |  max time  |%varavg| %total
---------------------------------------------------------------
Pair    | 0.093256   | 0.093256   | 0.093256   |   0.0 | 10.49
Bond    | 0.04305    | 0.04305    | 0.04305    |   0.0 |  4.84
Kspace  | 0.74143    | 0.74143    | 0.74143    |   0.0 | 83.38
Neigh   | 0.0056305  | 0.0056305  | 0.0056305  |   0.0 |  0.63
Comm    | 0.00075483 | 0.00075483 | 0.00075483 |   0.0 |  0.08
Output  | 2.2888e-05 | 2.2888e-05 | 2.2888e-05 |   0.0 |  0.00
Modify  | 0.0024381  | 0.0024381  | 0.0024381  |   0.0 |  0.27
Other   |            | 0.002648   |            |       |  0.30

Nlocal:    60 ave 60 max 60 min
Histogram: 1 0 0 0 0 0 0 0 0 0
Nghost:    0 ave 0 max 0 min
Histogram: 1 0 0 0 0 0 0 0 0 0
Neighs:    1770 ave 1770 max 1770 min
Histogram: 1 0 0 0 0 0 0 0 0 0

Total # of neighbors = 1770
Ave neighs/atom = 29.5
Ave special neighs/atom = 9.73333
Neighbor list builds = 94
Dangerous builds = 0
unfix pysimm_md
min_style cg
minimize 0.001 0.001 10000 100000
WARNING: Using 'neigh_modify every 1 delay 0 check yes' setting during minimization (../min.cpp:190)
PPPM initialization ...
  using 12-bit tables for long-range coulomb (../kspace.cpp:332)
  G vector (1/distance) = 0.111172
  grid = 12 12 12
  stencil order = 5
  estimated absolute RMS force accuracy = 0.039975
  estimated relative force accuracy = 0.000120384
  using double precision KISS FFT
  3d grid and FFT values/proc = 4913 1728
Per MPI rank memory allocation (min/avg/max) = 15.39 | 15.39 | 15.39 Mbytes
Step Temp E_pair E_mol TotEng Press 
    2000    861.17016   -290.41566    189.48619    50.522624   -2.8630704 
    2023    861.17016   -304.25535    53.624634   -99.178622    4.6771234 
Loop time of 0.0223379 on 1 procs for 23 steps with 60 atoms

98.5% CPU use with 1 MPI tasks x no OpenMP threads

Minimization stats:
  Stopping criterion = energy tolerance
  Energy initial, next-to-last, final = 
        -100.929471077     -250.417752669     -250.630717037
  Force two-norm initial, final = 434.788 18.1825
  Force max component initial, final = 107.276 5.3064
  Final line search alpha, max atom move = 0.0106828 0.0566873
  Iterations, force evaluations = 23 46

MPI task timing breakdown:
Section |  min time  |  avg time  |  max time  |%varavg| %total
---------------------------------------------------------------
Pair    | 0.0034146  | 0.0034146  | 0.0034146  |   0.0 | 15.29
Bond    | 0.001112   | 0.001112   | 0.001112   |   0.0 |  4.98
Kspace  | 0.017647   | 0.017647   | 0.017647   |   0.0 | 79.00
Neigh   | 0          | 0          | 0          |   0.0 |  0.00
Comm    | 1.7166e-05 | 1.7166e-05 | 1.7166e-05 |   0.0 |  0.08
Output  | 0          | 0          | 0          |   0.0 |  0.00
Modify  | 0          | 0          | 0          |   0.0 |  0.00
Other   |            | 0.0001469  |            |       |  0.66

Nlocal:    60 ave 60 max 60 min
Histogram: 1 0 0 0 0 0 0 0 0 0
Nghost:    0 ave 0 max 0 min
Histogram: 1 0 0 0 0 0 0 0 0 0
Neighs:    1770 ave 1770 max 1770 min
Histogram: 1 0 0 0 0 0 0 0 0 0

Total # of neighbors = 1770
Ave neighs/atom = 29.5
Ave special neighs/atom = 9.73333
Neighbor list builds = 0
Dangerous builds = 0
write_dump all custom pysimm.dump.tmp id q x y z vx vy vz
quit


################################################################################
##################################    Init    ##################################
################################################################################
units           real
atom_style      full
pair_style      lj/cut/coul/long 12.0  12.0
kspace_style    pppm 1e-4
bond_style      harmonic
angle_style     harmonic
dihedral_style  fourier
improper_style  cvff
special_bonds   amber
pair_modify     mix arithmetic
read_data       temp.lmps
  orthogonal box = (-56.3316 -56.3316 -56.3316) to (56.3316 56.3316 56.3316)
  1 by 1 by 1 MPI processor grid
  reading atoms ...
  72 atoms
  reading velocities ...
  72 velocities
  scanning bonds ...
  4 = max bonds/atom
  scanning angles ...
  6 = max angles/atom
  scanning dihedrals ...
  13 = max dihedrals/atom
  scanning impropers ...
  1 = max impropers/atom
  reading bonds ...
  71 bonds
  reading angles ...
  126 angles
  reading dihedrals ...
  158 dihedrals
  reading impropers ...
  6 impropers
  4 = max # of 1-2 neighbors
  7 = max # of 1-3 neighbors
  15 = max # of 1-4 neighbors
  19 = max # of special neighbors
  special bonds CPU = 0.000236034 secs
  read_data CPU = 0.00356603 secs
################################################################################

timestep        1
fix             pysimm_md all nve/limit 0.1
run             2000
PPPM initialization ...
  using 12-bit tables for long-range coulomb (../kspace.cpp:332)
  G vector (1/distance) = 0.128343
  grid = 15 15 15
  stencil order = 5
  estimated absolute RMS force accuracy = 0.0242201
  estimated relative force accuracy = 7.29382e-05
  using double precision KISS FFT
  3d grid and FFT values/proc = 8000 3375
Neighbor list info ...
  update every 1 steps, delay 10 steps, check yes
  max neighbors/atom: 2000, page size: 100000
  master list distance cutoff = 14
  ghost atom cutoff = 14
  binsize = 7, bins = 17 17 17
  1 neighbor lists, perpetual/occasional/extra = 1 0 0
  (1) pair lj/cut/coul/long, perpetual
      attributes: half, newton on
      pair build: half/bin/newton
      stencil: half/bin/3d/newton
      bin: standard
Per MPI rank memory allocation (min/avg/max) = 14.53 | 14.53 | 14.53 Mbytes
Step Temp E_pair E_mol TotEng Press 
       0    715.91145    32313.082 1.3645472e+27 1.3645472e+27 1.0877427e+37 
    2000    910.32174   -351.52347    233.53434    74.669091    2.1091248 
Loop time of 1.53894 on 1 procs for 2000 steps with 72 atoms

Performance: 112.285 ns/day, 0.214 hours/ns, 1299.595 timesteps/s
99.5% CPU use with 1 MPI tasks x no OpenMP threads

MPI task timing breakdown:
Section |  min time  |  avg time  |  max time  |%varavg| %total
---------------------------------------------------------------
Pair    | 0.12653    | 0.12653    | 0.12653    |   0.0 |  8.22
Bond    | 0.051424   | 0.051424   | 0.051424   |   0.0 |  3.34
Kspace  | 1.3462     | 1.3462     | 1.3462     |   0.0 | 87.47
Neigh   | 0.0081377  | 0.0081377  | 0.0081377  |   0.0 |  0.53
Comm    | 0.00089669 | 0.00089669 | 0.00089669 |   0.0 |  0.06
Output  | 2.0027e-05 | 2.0027e-05 | 2.0027e-05 |   0.0 |  0.00
Modify  | 0.0029333  | 0.0029333  | 0.0029333  |   0.0 |  0.19
Other   |            | 0.002815   |            |       |  0.18

Nlocal:    72 ave 72 max 72 min
Histogram: 1 0 0 0 0 0 0 0 0 0
Nghost:    0 ave 0 max 0 min
Histogram: 1 0 0 0 0 0 0 0 0 0
Neighs:    2540 ave 2540 max 2540 min
Histogram: 1 0 0 0 0 0 0 0 0 0

Total # of neighbors = 2540
Ave neighs/atom = 35.2778
Ave special neighs/atom = 9.86111
Neighbor list builds = 107
Dangerous builds = 0
unfix pysimm_md
min_style cg
minimize 0.001 0.001 10000 100000
WARNING: Using 'neigh_modify every 1 delay 0 check yes' setting during minimization (../min.cpp:190)
PPPM initialization ...
  using 12-bit tables for long-range coulomb (../kspace.cpp:332)
  G vector (1/distance) = 0.128343
  grid = 15 15 15
  stencil order = 5
  estimated absolute RMS force accuracy = 0.0242201
  estimated relative force accuracy = 7.29382e-05
  using double precision KISS FFT
  3d grid and FFT values/proc = 8000 3375
Per MPI rank memory allocation (min/avg/max) = 15.65 | 15.65 | 15.65 Mbytes
Step Temp E_pair E_mol TotEng Press 
    2000    910.32174   -351.52347    233.53434    74.669091    2.1091248 
    2032    910.32174   -366.23284    66.690995   -106.88362    6.0067271 
Loop time of 0.0560858 on 1 procs for 32 steps with 72 atoms

99.8% CPU use with 1 MPI tasks x no OpenMP threads

Minimization stats:
  Stopping criterion = energy tolerance
  Energy initial, next-to-last, final = 
        -117.989138638     -299.305364923     -299.541849126
  Force two-norm initial, final = 444.177 24.4366
  Force max component initial, final = 105.301 4.63968
  Final line search alpha, max atom move = 0.00340485 0.0157974
  Iterations, force evaluations = 32 64

MPI task timing breakdown:
Section |  min time  |  avg time  |  max time  |%varavg| %total
---------------------------------------------------------------
Pair    | 0.00686    | 0.00686    | 0.00686    |   0.0 | 12.23
Bond    | 0.0019102  | 0.0019102  | 0.0019102  |   0.0 |  3.41
Kspace  | 0.047034   | 0.047034   | 0.047034   |   0.0 | 83.86
Neigh   | 0          | 0          | 0          |   0.0 |  0.00
Comm    | 2.6226e-05 | 2.6226e-05 | 2.6226e-05 |   0.0 |  0.05
Output  | 0          | 0          | 0          |   0.0 |  0.00
Modify  | 0          | 0          | 0          |   0.0 |  0.00
Other   |            | 0.0002551  |            |       |  0.45

Nlocal:    72 ave 72 max 72 min
Histogram: 1 0 0 0 0 0 0 0 0 0
Nghost:    0 ave 0 max 0 min
Histogram: 1 0 0 0 0 0 0 0 0 0
Neighs:    2541 ave 2541 max 2541 min
Histogram: 1 0 0 0 0 0 0 0 0 0

Total # of neighbors = 2541
Ave neighs/atom = 35.2917
Ave special neighs/atom = 9.86111
Neighbor list builds = 0
Dangerous builds = 0
write_dump all custom pysimm.dump.tmp id q x y z vx vy vz
quit


################################################################################
##################################    Init    ##################################
################################################################################
units           real
atom_style      full
pair_style      lj/cut/coul/long 12.0  12.0
kspace_style    pppm 1e-4
bond_style      harmonic
angle_style     harmonic
dihedral_style  fourier
improper_style  cvff
special_bonds   amber
pair_modify     mix arithmetic
read_data       temp.lmps
  orthogonal box = (-56.3316 -56.3316 -56.3316) to (56.3316 56.3316 56.3316)
  1 by 1 by 1 MPI processor grid
  reading atoms ...
  84 atoms
  reading velocities ...
  84 velocities
  scanning bonds ...
  4 = max bonds/atom
  scanning angles ...
  6 = max angles/atom
  scanning dihedrals ...
  13 = max dihedrals/atom
  scanning impropers ...
  1 = max impropers/atom
  reading bonds ...
  83 bonds
  reading angles ...
  148 angles
  reading dihedrals ...
  187 dihedrals
  reading impropers ...
  7 impropers
  4 = max # of 1-2 neighbors
  7 = max # of 1-3 neighbors
  15 = max # of 1-4 neighbors
  19 = max # of special neighbors
  special bonds CPU = 0.00019002 secs
  read_data CPU = 0.00365305 secs
################################################################################

timestep        1
fix             pysimm_md all nve/limit 0.1
run             2000
PPPM initialization ...
  using 12-bit tables for long-range coulomb (../kspace.cpp:332)
  G vector (1/distance) = 0.128343
  grid = 15 15 15
  stencil order = 5
  estimated absolute RMS force accuracy = 0.0261607
  estimated relative force accuracy = 7.87823e-05
  using double precision KISS FFT
  3d grid and FFT values/proc = 8000 3375
Neighbor list info ...
  update every 1 steps, delay 10 steps, check yes
  max neighbors/atom: 2000, page size: 100000
  master list distance cutoff = 14
  ghost atom cutoff = 14
  binsize = 7, bins = 17 17 17
  1 neighbor lists, perpetual/occasional/extra = 1 0 0
  (1) pair lj/cut/coul/long, perpetual
      attributes: half, newton on
      pair build: half/bin/newton
      stencil: half/bin/3d/newton
      bin: standard
Per MPI rank memory allocation (min/avg/max) = 14.53 | 14.53 | 14.53 Mbytes
Step Temp E_pair E_mol TotEng Press 
       0    778.95794   -297.17616 8.9196058e+28 8.9196058e+28 -1.7821576e+41 
    2000    758.59396   -407.31641    249.07529    29.440513   -16.848873 
Loop time of 1.61166 on 1 procs for 2000 steps with 84 atoms

Performance: 107.219 ns/day, 0.224 hours/ns, 1240.955 timesteps/s
100.0% CPU use with 1 MPI tasks x no OpenMP threads

MPI task timing breakdown:
Section |  min time  |  avg time  |  max time  |%varavg| %total
---------------------------------------------------------------
Pair    | 0.15218    | 0.15218    | 0.15218    |   0.0 |  9.44
Bond    | 0.058982   | 0.058982   | 0.058982   |   0.0 |  3.66
Kspace  | 1.3843     | 1.3843     | 1.3843     |   0.0 | 85.89
Neigh   | 0.0093319  | 0.0093319  | 0.0093319  |   0.0 |  0.58
Comm    | 0.00074649 | 0.00074649 | 0.00074649 |   0.0 |  0.05
Output  | 2.2888e-05 | 2.2888e-05 | 2.2888e-05 |   0.0 |  0.00
Modify  | 0.0032585  | 0.0032585  | 0.0032585  |   0.0 |  0.20
Other   |            | 0.002821   |            |       |  0.18

Nlocal:    84 ave 84 max 84 min
Histogram: 1 0 0 0 0 0 0 0 0 0
Nghost:    0 ave 0 max 0 min
Histogram: 1 0 0 0 0 0 0 0 0 0
Neighs:    3452 ave 3452 max 3452 min
Histogram: 1 0 0 0 0 0 0 0 0 0

Total # of neighbors = 3452
Ave neighs/atom = 41.0952
Ave special neighs/atom = 9.95238
Neighbor list builds = 98
Dangerous builds = 0
unfix pysimm_md
min_style cg
minimize 0.001 0.001 10000 100000
WARNING: Using 'neigh_modify every 1 delay 0 check yes' setting during minimization (../min.cpp:190)
PPPM initialization ...
  using 12-bit tables for long-range coulomb (../kspace.cpp:332)
  G vector (1/distance) = 0.128343
  grid = 15 15 15
  stencil order = 5
  estimated absolute RMS force accuracy = 0.0261607
  estimated relative force accuracy = 7.87823e-05
  using double precision KISS FFT
  3d grid and FFT values/proc = 8000 3375
Per MPI rank memory allocation (min/avg/max) = 15.65 | 15.65 | 15.65 Mbytes
Step Temp E_pair E_mol TotEng Press 
    2000    758.59396   -407.31641    249.07529    29.440513   -16.848873 
    2029    758.59396   -421.79972    75.189975   -158.92811    5.4195396 
Loop time of 0.0496941 on 1 procs for 29 steps with 84 atoms

98.6% CPU use with 1 MPI tasks x no OpenMP threads

Minimization stats:
  Stopping criterion = energy tolerance
  Energy initial, next-to-last, final = 
        -158.241120738     -346.374681991     -346.609747969
  Force two-norm initial, final = 503.48 31.8297
  Force max component initial, final = 100.942 7.47217
  Final line search alpha, max atom move = 0.00246437 0.0184142
  Iterations, force evaluations = 29 58

MPI task timing breakdown:
Section |  min time  |  avg time  |  max time  |%varavg| %total
---------------------------------------------------------------
Pair    | 0.0074494  | 0.0074494  | 0.0074494  |   0.0 | 14.99
Bond    | 0.0018761  | 0.0018761  | 0.0018761  |   0.0 |  3.78
Kspace  | 0.04005    | 0.04005    | 0.04005    |   0.0 | 80.59
Neigh   | 9.7036e-05 | 9.7036e-05 | 9.7036e-05 |   0.0 |  0.20
Comm    | 2.1935e-05 | 2.1935e-05 | 2.1935e-05 |   0.0 |  0.04
Output  | 0          | 0          | 0          |   0.0 |  0.00
Modify  | 0          | 0          | 0          |   0.0 |  0.00
Other   |            | 0.0002     |            |       |  0.40

Nlocal:    84 ave 84 max 84 min
Histogram: 1 0 0 0 0 0 0 0 0 0
Nghost:    0 ave 0 max 0 min
Histogram: 1 0 0 0 0 0 0 0 0 0
Neighs:    3451 ave 3451 max 3451 min
Histogram: 1 0 0 0 0 0 0 0 0 0

Total # of neighbors = 3451
Ave neighs/atom = 41.0833
Ave special neighs/atom = 9.95238
Neighbor list builds = 1
Dangerous builds = 0
write_dump all custom pysimm.dump.tmp id q x y z vx vy vz
quit


################################################################################
##################################    Init    ##################################
################################################################################
units           real
atom_style      full
pair_style      lj/cut/coul/long 12.0  12.0
kspace_style    pppm 1e-4
bond_style      harmonic
angle_style     harmonic
dihedral_style  fourier
improper_style  cvff
special_bonds   amber
pair_modify     mix arithmetic
read_data       temp.lmps
  orthogonal box = (-56.3316 -56.3316 -56.3316) to (56.3316 56.3316 56.3316)
  1 by 1 by 1 MPI processor grid
  reading atoms ...
  96 atoms
  reading velocities ...
  96 velocities
  scanning bonds ...
  4 = max bonds/atom
  scanning angles ...
  6 = max angles/atom
  scanning dihedrals ...
  13 = max dihedrals/atom
  scanning impropers ...
  1 = max impropers/atom
  reading bonds ...
  95 bonds
  reading angles ...
  170 angles
  reading dihedrals ...
  216 dihedrals
  reading impropers ...
  8 impropers
  4 = max # of 1-2 neighbors
  7 = max # of 1-3 neighbors
  15 = max # of 1-4 neighbors
  19 = max # of special neighbors
  special bonds CPU = 0.000185966 secs
  read_data CPU = 0.00376701 secs
################################################################################

timestep        1
fix             pysimm_md all nve/limit 0.1
run             2000
PPPM initialization ...
  using 12-bit tables for long-range coulomb (../kspace.cpp:332)
  G vector (1/distance) = 0.128343
  grid = 15 15 15
  stencil order = 5
  estimated absolute RMS force accuracy = 0.027967
  estimated relative force accuracy = 8.42218e-05
  using double precision KISS FFT
  3d grid and FFT values/proc = 8000 3375
Neighbor list info ...
  update every 1 steps, delay 10 steps, check yes
  max neighbors/atom: 2000, page size: 100000
  master list distance cutoff = 14
  ghost atom cutoff = 14
  binsize = 7, bins = 17 17 17
  1 neighbor lists, perpetual/occasional/extra = 1 0 0
  (1) pair lj/cut/coul/long, perpetual
      attributes: half, newton on
      pair build: half/bin/newton
      stencil: half/bin/3d/newton
      bin: standard
Per MPI rank memory allocation (min/avg/max) = 14.53 | 14.53 | 14.53 Mbytes
Step Temp E_pair E_mol TotEng Press 
       0    662.98956   -30.381461 9.4062656e+23 9.4062656e+23 -3.3195272e+32 
    2000    801.07361   -480.08055    260.23133    6.9963553   0.69940756 
Loop time of 1.61957 on 1 procs for 2000 steps with 96 atoms

Performance: 106.695 ns/day, 0.225 hours/ns, 1234.894 timesteps/s
99.9% CPU use with 1 MPI tasks x no OpenMP threads

MPI task timing breakdown:
Section |  min time  |  avg time  |  max time  |%varavg| %total
---------------------------------------------------------------
Pair    | 0.19353    | 0.19353    | 0.19353    |   0.0 | 11.95
Bond    | 0.066773   | 0.066773   | 0.066773   |   0.0 |  4.12
Kspace  | 1.3405     | 1.3405     | 1.3405     |   0.0 | 82.77
Neigh   | 0.011516   | 0.011516   | 0.011516   |   0.0 |  0.71
Comm    | 0.00082779 | 0.00082779 | 0.00082779 |   0.0 |  0.05
Output  | 2.0027e-05 | 2.0027e-05 | 2.0027e-05 |   0.0 |  0.00
Modify  | 0.0034678  | 0.0034678  | 0.0034678  |   0.0 |  0.21
Other   |            | 0.002884   |            |       |  0.18

Nlocal:    96 ave 96 max 96 min
Histogram: 1 0 0 0 0 0 0 0 0 0
Nghost:    0 ave 0 max 0 min
Histogram: 1 0 0 0 0 0 0 0 0 0
Neighs:    4498 ave 4498 max 4498 min
Histogram: 1 0 0 0 0 0 0 0 0 0

Total # of neighbors = 4498
Ave neighs/atom = 46.8542
Ave special neighs/atom = 10.0208
Neighbor list builds = 98
Dangerous builds = 0
unfix pysimm_md
min_style cg
minimize 0.001 0.001 10000 100000
WARNING: Using 'neigh_modify every 1 delay 0 check yes' setting during minimization (../min.cpp:190)
PPPM initialization ...
  using 12-bit tables for long-range coulomb (../kspace.cpp:332)
  G vector (1/distance) = 0.128343
  grid = 15 15 15
  stencil order = 5
  estimated absolute RMS force accuracy = 0.027967
  estimated relative force accuracy = 8.42218e-05
  using double precision KISS FFT
  3d grid and FFT values/proc = 8000 3375
Per MPI rank memory allocation (min/avg/max) = 15.66 | 15.66 | 15.66 Mbytes
Step Temp E_pair E_mol TotEng Press 
    2000    801.07361   -480.08055    260.23133    6.9963553   0.69940756 
    2022    801.07361   -486.65791     85.25255   -174.55977    6.5816394 
Loop time of 0.039716 on 1 procs for 22 steps with 96 atoms

100.7% CPU use with 1 MPI tasks x no OpenMP threads

Minimization stats:
  Stopping criterion = energy tolerance
  Energy initial, next-to-last, final = 
        -219.849229535     -401.023976509     -401.405356431
  Force two-norm initial, final = 487.917 27.8875
  Force max component initial, final = 124.191 9.86751
  Final line search alpha, max atom move = 0.00452359 0.0446366
  Iterations, force evaluations = 22 43

MPI task timing breakdown:
Section |  min time  |  avg time  |  max time  |%varavg| %total
---------------------------------------------------------------
Pair    | 0.0071709  | 0.0071709  | 0.0071709  |   0.0 | 18.06
Bond    | 0.0016088  | 0.0016088  | 0.0016088  |   0.0 |  4.05
Kspace  | 0.030747   | 0.030747   | 0.030747   |   0.0 | 77.42
Neigh   | 0          | 0          | 0          |   0.0 |  0.00
Comm    | 1.1683e-05 | 1.1683e-05 | 1.1683e-05 |   0.0 |  0.03
Output  | 0          | 0          | 0          |   0.0 |  0.00
Modify  | 0          | 0          | 0          |   0.0 |  0.00
Other   |            | 0.0001771  |            |       |  0.45

Nlocal:    96 ave 96 max 96 min
Histogram: 1 0 0 0 0 0 0 0 0 0
Nghost:    0 ave 0 max 0 min
Histogram: 1 0 0 0 0 0 0 0 0 0
Neighs:    4502 ave 4502 max 4502 min
Histogram: 1 0 0 0 0 0 0 0 0 0

Total # of neighbors = 4502
Ave neighs/atom = 46.8958
Ave special neighs/atom = 10.0208
Neighbor list builds = 0
Dangerous builds = 0
write_dump all custom pysimm.dump.tmp id q x y z vx vy vz
quit


################################################################################
##################################    Init    ##################################
################################################################################
units           real
atom_style      full
pair_style      lj/cut/coul/long 12.0  12.0
kspace_style    pppm 1e-4
bond_style      harmonic
angle_style     harmonic
dihedral_style  fourier
improper_style  cvff
special_bonds   amber
pair_modify     mix arithmetic
read_data       temp.lmps
  orthogonal box = (-56.3316 -56.3316 -56.3316) to (56.3316 56.3316 56.3316)
  1 by 1 by 1 MPI processor grid
  reading atoms ...
  108 atoms
  reading velocities ...
  108 velocities
  scanning bonds ...
  4 = max bonds/atom
  scanning angles ...
  6 = max angles/atom
  scanning dihedrals ...
  13 = max dihedrals/atom
  scanning impropers ...
  1 = max impropers/atom
  reading bonds ...
  107 bonds
  reading angles ...
  192 angles
  reading dihedrals ...
  245 dihedrals
  reading impropers ...
  9 impropers
  4 = max # of 1-2 neighbors
  7 = max # of 1-3 neighbors
  15 = max # of 1-4 neighbors
  19 = max # of special neighbors
  special bonds CPU = 0.000244141 secs
  read_data CPU = 0.00395417 secs
################################################################################

timestep        1
fix             pysimm_md all nve/limit 0.1
run             2000
PPPM initialization ...
  using 12-bit tables for long-range coulomb (../kspace.cpp:332)
  G vector (1/distance) = 0.128343
  grid = 15 15 15
  stencil order = 5
  estimated absolute RMS force accuracy = 0.0296635
  estimated relative force accuracy = 8.93307e-05
  using double precision KISS FFT
  3d grid and FFT values/proc = 8000 3375
Neighbor list info ...
  update every 1 steps, delay 10 steps, check yes
  max neighbors/atom: 2000, page size: 100000
  master list distance cutoff = 14
  ghost atom cutoff = 14
  binsize = 7, bins = 17 17 17
  1 neighbor lists, perpetual/occasional/extra = 1 0 0
  (1) pair lj/cut/coul/long, perpetual
      attributes: half, newton on
      pair build: half/bin/newton
      stencil: half/bin/3d/newton
      bin: standard
Per MPI rank memory allocation (min/avg/max) = 14.53 | 14.53 | 14.53 Mbytes
Step Temp E_pair E_mol TotEng Press 
       0    711.42698     23301.92 3.9382267e+28 3.9382267e+28     4601.063 
    2000    832.79263   -522.55737    303.28843    46.347503     11.57584 
Loop time of 1.77206 on 1 procs for 2000 steps with 108 atoms

Performance: 97.514 ns/day, 0.246 hours/ns, 1128.630 timesteps/s
100.0% CPU use with 1 MPI tasks x no OpenMP threads

MPI task timing breakdown:
Section |  min time  |  avg time  |  max time  |%varavg| %total
---------------------------------------------------------------
Pair    | 0.24014    | 0.24014    | 0.24014    |   0.0 | 13.55
Bond    | 0.075328   | 0.075328   | 0.075328   |   0.0 |  4.25
Kspace  | 1.4338     | 1.4338     | 1.4338     |   0.0 | 80.91
Neigh   | 0.015128   | 0.015128   | 0.015128   |   0.0 |  0.85
Comm    | 0.00086904 | 0.00086904 | 0.00086904 |   0.0 |  0.05
Output  | 1.6928e-05 | 1.6928e-05 | 1.6928e-05 |   0.0 |  0.00
Modify  | 0.0039809  | 0.0039809  | 0.0039809  |   0.0 |  0.22
Other   |            | 0.00284    |            |       |  0.16

Nlocal:    108 ave 108 max 108 min
Histogram: 1 0 0 0 0 0 0 0 0 0
Nghost:    0 ave 0 max 0 min
Histogram: 1 0 0 0 0 0 0 0 0 0
Neighs:    5381 ave 5381 max 5381 min
Histogram: 1 0 0 0 0 0 0 0 0 0

Total # of neighbors = 5381
Ave neighs/atom = 49.8241
Ave special neighs/atom = 10.0741
Neighbor list builds = 108
Dangerous builds = 0
unfix pysimm_md
min_style cg
minimize 0.001 0.001 10000 100000
WARNING: Using 'neigh_modify every 1 delay 0 check yes' setting during minimization (../min.cpp:190)
PPPM initialization ...
  using 12-bit tables for long-range coulomb (../kspace.cpp:332)
  G vector (1/distance) = 0.128343
  grid = 15 15 15
  stencil order = 5
  estimated absolute RMS force accuracy = 0.0296635
  estimated relative force accuracy = 8.93307e-05
  using double precision KISS FFT
  3d grid and FFT values/proc = 8000 3375
Per MPI rank memory allocation (min/avg/max) = 15.66 | 15.66 | 15.66 Mbytes
Step Temp E_pair E_mol TotEng Press 
    2000    832.79263   -522.55737    303.28843    46.347503     11.57584 
    2036    832.79263   -549.62548    90.890949   -193.11809    9.0040134 
Loop time of 0.0692749 on 1 procs for 36 steps with 108 atoms

99.6% CPU use with 1 MPI tasks x no OpenMP threads

Minimization stats:
  Stopping criterion = energy tolerance
  Energy initial, next-to-last, final = 
        -219.268938952     -458.396492573     -458.734527132
  Force two-norm initial, final = 548.948 24.7884
  Force max component initial, final = 116.628 5.97076
  Final line search alpha, max atom move = 0.0057188 0.0341456
  Iterations, force evaluations = 36 72

MPI task timing breakdown:
Section |  min time  |  avg time  |  max time  |%varavg| %total
---------------------------------------------------------------
Pair    | 0.013999   | 0.013999   | 0.013999   |   0.0 | 20.21
Bond    | 0.0029457  | 0.0029457  | 0.0029457  |   0.0 |  4.25
Kspace  | 0.051873   | 0.051873   | 0.051873   |   0.0 | 74.88
Neigh   | 0.000139   | 0.000139   | 0.000139   |   0.0 |  0.20
Comm    | 2.4557e-05 | 2.4557e-05 | 2.4557e-05 |   0.0 |  0.04
Output  | 0          | 0          | 0          |   0.0 |  0.00
Modify  | 0          | 0          | 0          |   0.0 |  0.00
Other   |            | 0.0002933  |            |       |  0.42

Nlocal:    108 ave 108 max 108 min
Histogram: 1 0 0 0 0 0 0 0 0 0
Nghost:    0 ave 0 max 0 min
Histogram: 1 0 0 0 0 0 0 0 0 0
Neighs:    5342 ave 5342 max 5342 min
Histogram: 1 0 0 0 0 0 0 0 0 0

Total # of neighbors = 5342
Ave neighs/atom = 49.463
Ave special neighs/atom = 10.0741
Neighbor list builds = 1
Dangerous builds = 0
write_dump all custom pysimm.dump.tmp id q x y z vx vy vz
quit


################################################################################
##################################    Init    ##################################
################################################################################
units           real
atom_style      full
pair_style      lj/cut/coul/long 12.0  12.0
kspace_style    pppm 1e-4
bond_style      harmonic
angle_style     harmonic
dihedral_style  fourier
improper_style  cvff
special_bonds   amber
pair_modify     mix arithmetic
read_data       temp.lmps
  orthogonal box = (-56.3316 -56.3316 -56.3316) to (56.3316 56.3316 56.3316)
  1 by 1 by 1 MPI processor grid
  reading atoms ...
  120 atoms
  reading velocities ...
  120 velocities
  scanning bonds ...
  4 = max bonds/atom
  scanning angles ...
  6 = max angles/atom
  scanning dihedrals ...
  13 = max dihedrals/atom
  scanning impropers ...
  1 = max impropers/atom
  reading bonds ...
  119 bonds
  reading angles ...
  214 angles
  reading dihedrals ...
  274 dihedrals
  reading impropers ...
  10 impropers
  4 = max # of 1-2 neighbors
  7 = max # of 1-3 neighbors
  15 = max # of 1-4 neighbors
  19 = max # of special neighbors
  special bonds CPU = 0.000276089 secs
  read_data CPU = 0.00393605 secs
################################################################################

timestep        1
fix             pysimm_md all nve/limit 0.1
run             2000
PPPM initialization ...
  using 12-bit tables for long-range coulomb (../kspace.cpp:332)
  G vector (1/distance) = 0.128343
  grid = 15 15 15
  stencil order = 5
  estimated absolute RMS force accuracy = 0.0312681
  estimated relative force accuracy = 9.41628e-05
  using double precision KISS FFT
  3d grid and FFT values/proc = 8000 3375
Neighbor list info ...
  update every 1 steps, delay 10 steps, check yes
  max neighbors/atom: 2000, page size: 100000
  master list distance cutoff = 14
  ghost atom cutoff = 14
  binsize = 7, bins = 17 17 17
  1 neighbor lists, perpetual/occasional/extra = 1 0 0
  (1) pair lj/cut/coul/long, perpetual
      attributes: half, newton on
      pair build: half/bin/newton
      stencil: half/bin/3d/newton
      bin: standard
Per MPI rank memory allocation (min/avg/max) = 14.53 | 14.53 | 14.53 Mbytes
Step Temp E_pair E_mol TotEng Press 
       0    748.98733   -493.93501 6.3481471e+24 6.3481471e+24    28.030037 
    2000    750.32347    -599.9593    304.53186   -29.275406    6.3697699 
Loop time of 1.83228 on 1 procs for 2000 steps with 120 atoms

Performance: 94.309 ns/day, 0.254 hours/ns, 1091.536 timesteps/s
100.0% CPU use with 1 MPI tasks x no OpenMP threads

MPI task timing breakdown:
Section |  min time  |  avg time  |  max time  |%varavg| %total
---------------------------------------------------------------
Pair    | 0.29424    | 0.29424    | 0.29424    |   0.0 | 16.06
Bond    | 0.084652   | 0.084652   | 0.084652   |   0.0 |  4.62
Kspace  | 1.4286     | 1.4286     | 1.4286     |   0.0 | 77.97
Neigh   | 0.016225   | 0.016225   | 0.016225   |   0.0 |  0.89
Comm    | 0.0011847  | 0.0011847  | 0.0011847  |   0.0 |  0.06
Output  | 1.502e-05  | 1.502e-05  | 1.502e-05  |   0.0 |  0.00
Modify  | 0.0042684  | 0.0042684  | 0.0042684  |   0.0 |  0.23
Other   |            | 0.00307    |            |       |  0.17

Nlocal:    120 ave 120 max 120 min
Histogram: 1 0 0 0 0 0 0 0 0 0
Nghost:    3 ave 3 max 3 min
Histogram: 1 0 0 0 0 0 0 0 0 0
Neighs:    6665 ave 6665 max 6665 min
Histogram: 1 0 0 0 0 0 0 0 0 0

Total # of neighbors = 6665
Ave neighs/atom = 55.5417
Ave special neighs/atom = 10.1167
Neighbor list builds = 95
Dangerous builds = 0
unfix pysimm_md
min_style cg
minimize 0.001 0.001 10000 100000
WARNING: Using 'neigh_modify every 1 delay 0 check yes' setting during minimization (../min.cpp:190)
PPPM initialization ...
  using 12-bit tables for long-range coulomb (../kspace.cpp:332)
  G vector (1/distance) = 0.128343
  grid = 15 15 15
  stencil order = 5
  estimated absolute RMS force accuracy = 0.0312681
  estimated relative force accuracy = 9.41628e-05
  using double precision KISS FFT
  3d grid and FFT values/proc = 8000 3375
Per MPI rank memory allocation (min/avg/max) = 15.66 | 15.66 | 15.66 Mbytes
Step Temp E_pair E_mol TotEng Press 
    2000    750.32347    -599.9593    304.53186   -29.275406    6.3697699 
    2031    750.32347   -613.19173    106.88097   -240.15873    7.7234036 
Loop time of 0.0642469 on 1 procs for 31 steps with 120 atoms

101.2% CPU use with 1 MPI tasks x no OpenMP threads

Minimization stats:
  Stopping criterion = energy tolerance
  Energy initial, next-to-last, final = 
        -295.427442376     -505.888278741     -506.310767618
  Force two-norm initial, final = 532.491 36.493
  Force max component initial, final = 98.4687 8.32322
  Final line search alpha, max atom move = 0.00229415 0.0190947
  Iterations, force evaluations = 31 62

MPI task timing breakdown:
Section |  min time  |  avg time  |  max time  |%varavg| %total
---------------------------------------------------------------
Pair    | 0.015394   | 0.015394   | 0.015394   |   0.0 | 23.96
Bond    | 0.0029247  | 0.0029247  | 0.0029247  |   0.0 |  4.55
Kspace  | 0.045633   | 0.045633   | 0.045633   |   0.0 | 71.03
Neigh   | 0          | 0          | 0          |   0.0 |  0.00
Comm    | 2.5272e-05 | 2.5272e-05 | 2.5272e-05 |   0.0 |  0.04
Output  | 0          | 0          | 0          |   0.0 |  0.00
Modify  | 0          | 0          | 0          |   0.0 |  0.00
Other   |            | 0.0002704  |            |       |  0.42

Nlocal:    120 ave 120 max 120 min
Histogram: 1 0 0 0 0 0 0 0 0 0
Nghost:    3 ave 3 max 3 min
Histogram: 1 0 0 0 0 0 0 0 0 0
Neighs:    6661 ave 6661 max 6661 min
Histogram: 1 0 0 0 0 0 0 0 0 0

Total # of neighbors = 6661
Ave neighs/atom = 55.5083
Ave special neighs/atom = 10.1167
Neighbor list builds = 0
Dangerous builds = 0
write_dump all custom pysimm.dump.tmp id q x y z vx vy vz
quit


################################################################################
##################################    Init    ##################################
################################################################################
units           real
atom_style      full
pair_style      lj/cut/coul/long 12.0  12.0
kspace_style    pppm 1e-4
bond_style      harmonic
angle_style     harmonic
dihedral_style  fourier
improper_style  cvff
special_bonds   amber
pair_modify     mix arithmetic
read_data       temp.lmps
  orthogonal box = (-70.9734 -70.9734 -70.9734) to (70.9734 70.9734 70.9734)
  1 by 1 by 1 MPI processor grid
  reading atoms ...
  132 atoms
  reading velocities ...
  132 velocities
  scanning bonds ...
  4 = max bonds/atom
  scanning angles ...
  6 = max angles/atom
  scanning dihedrals ...
  13 = max dihedrals/atom
  scanning impropers ...
  1 = max impropers/atom
  reading bonds ...
  131 bonds
  reading angles ...
  236 angles
  reading dihedrals ...
  303 dihedrals
  reading impropers ...
  11 impropers
  4 = max # of 1-2 neighbors
  7 = max # of 1-3 neighbors
  15 = max # of 1-4 neighbors
  19 = max # of special neighbors
  special bonds CPU = 0.000247002 secs
  read_data CPU = 0.00405598 secs
################################################################################

timestep        1
fix             pysimm_md all nve/limit 0.1
run             2000
PPPM initialization ...
  using 12-bit tables for long-range coulomb (../kspace.cpp:332)
  G vector (1/distance) = 0.115449
  grid = 16 16 16
  stencil order = 5
  estimated absolute RMS force accuracy = 0.036464
  estimated relative force accuracy = 0.00010981
  using double precision KISS FFT
  3d grid and FFT values/proc = 9261 4096
Neighbor list info ...
  update every 1 steps, delay 10 steps, check yes
  max neighbors/atom: 2000, page size: 100000
  master list distance cutoff = 14
  ghost atom cutoff = 14
  binsize = 7, bins = 21 21 21
  1 neighbor lists, perpetual/occasional/extra = 1 0 0
  (1) pair lj/cut/coul/long, perpetual
      attributes: half, newton on
      pair build: half/bin/newton
      stencil: half/bin/3d/newton
      bin: standard
Per MPI rank memory allocation (min/avg/max) = 14.67 | 14.67 | 14.67 Mbytes
Step Temp E_pair E_mol TotEng Press 
       0    681.74955    5051547.7 1.182133e+22 1.182133e+22 2.8365101e+30 
    2000    958.47494   -649.22519    383.55066    108.59663  -0.78315412 
Loop time of 2.13447 on 1 procs for 2000 steps with 132 atoms

Performance: 80.957 ns/day, 0.296 hours/ns, 937.002 timesteps/s
100.1% CPU use with 1 MPI tasks x no OpenMP threads

MPI task timing breakdown:
Section |  min time  |  avg time  |  max time  |%varavg| %total
---------------------------------------------------------------
Pair    | 0.34031    | 0.34031    | 0.34031    |   0.0 | 15.94
Bond    | 0.092424   | 0.092424   | 0.092424   |   0.0 |  4.33
Kspace  | 1.6704     | 1.6704     | 1.6704     |   0.0 | 78.26
Neigh   | 0.022606   | 0.022606   | 0.022606   |   0.0 |  1.06
Comm    | 0.00096059 | 0.00096059 | 0.00096059 |   0.0 |  0.05
Output  | 1.812e-05  | 1.812e-05  | 1.812e-05  |   0.0 |  0.00
Modify  | 0.0046198  | 0.0046198  | 0.0046198  |   0.0 |  0.22
Other   |            | 0.003086   |            |       |  0.14

Nlocal:    132 ave 132 max 132 min
Histogram: 1 0 0 0 0 0 0 0 0 0
Nghost:    0 ave 0 max 0 min
Histogram: 1 0 0 0 0 0 0 0 0 0
Neighs:    8103 ave 8103 max 8103 min
Histogram: 1 0 0 0 0 0 0 0 0 0

Total # of neighbors = 8103
Ave neighs/atom = 61.3864
Ave special neighs/atom = 10.1515
Neighbor list builds = 116
Dangerous builds = 0
unfix pysimm_md
min_style cg
minimize 0.001 0.001 10000 100000
WARNING: Using 'neigh_modify every 1 delay 0 check yes' setting during minimization (../min.cpp:190)
PPPM initialization ...
  using 12-bit tables for long-range coulomb (../kspace.cpp:332)
  G vector (1/distance) = 0.115449
  grid = 16 16 16
  stencil order = 5
  estimated absolute RMS force accuracy = 0.036464
  estimated relative force accuracy = 0.00010981
  using double precision KISS FFT
  3d grid and FFT values/proc = 9261 4096
Per MPI rank memory allocation (min/avg/max) = 15.8 | 15.8 | 15.8 Mbytes
Step Temp E_pair E_mol TotEng Press 
    2000    958.47494   -649.22519    383.55066    108.59663  -0.78315412 
    2033    958.47494   -678.50717    127.35948   -176.87653    5.0380546 
Loop time of 0.077003 on 1 procs for 33 steps with 132 atoms

100.0% CPU use with 1 MPI tasks x no OpenMP threads

Minimization stats:
  Stopping criterion = energy tolerance
  Energy initial, next-to-last, final = 
        -265.674530718     -550.600980013     -551.147689118
  Force two-norm initial, final = 562.382 37.4145
  Force max component initial, final = 91.3893 7.95329
  Final line search alpha, max atom move = 0.00384987 0.0306191
  Iterations, force evaluations = 33 66

MPI task timing breakdown:
Section |  min time  |  avg time  |  max time  |%varavg| %total
---------------------------------------------------------------
Pair    | 0.018553   | 0.018553   | 0.018553   |   0.0 | 24.09
Bond    | 0.0033135  | 0.0033135  | 0.0033135  |   0.0 |  4.30
Kspace  | 0.054622   | 0.054622   | 0.054622   |   0.0 | 70.94
Neigh   | 0.00018692 | 0.00018692 | 0.00018692 |   0.0 |  0.24
Comm    | 2.4557e-05 | 2.4557e-05 | 2.4557e-05 |   0.0 |  0.03
Output  | 0          | 0          | 0          |   0.0 |  0.00
Modify  | 0          | 0          | 0          |   0.0 |  0.00
Other   |            | 0.0003026  |            |       |  0.39

Nlocal:    132 ave 132 max 132 min
Histogram: 1 0 0 0 0 0 0 0 0 0
Nghost:    0 ave 0 max 0 min
Histogram: 1 0 0 0 0 0 0 0 0 0
Neighs:    8119 ave 8119 max 8119 min
Histogram: 1 0 0 0 0 0 0 0 0 0

Total # of neighbors = 8119
Ave neighs/atom = 61.5076
Ave special neighs/atom = 10.1515
Neighbor list builds = 1
Dangerous builds = 0
write_dump all custom pysimm.dump.tmp id q x y z vx vy vz
quit


################################################################################
##################################    Init    ##################################
################################################################################
units           real
atom_style      full
pair_style      lj/cut/coul/long 12.0  12.0
kspace_style    pppm 1e-4
bond_style      harmonic
angle_style     harmonic
dihedral_style  fourier
improper_style  cvff
special_bonds   amber
pair_modify     mix arithmetic
read_data       temp.lmps
  orthogonal box = (-73.2644 -73.2644 -73.2644) to (73.2644 73.2644 73.2644)
  1 by 1 by 1 MPI processor grid
  reading atoms ...
  144 atoms
  reading velocities ...
  144 velocities
  scanning bonds ...
  4 = max bonds/atom
  scanning angles ...
  6 = max angles/atom
  scanning dihedrals ...
  13 = max dihedrals/atom
  scanning impropers ...
  1 = max impropers/atom
  reading bonds ...
  143 bonds
  reading angles ...
  258 angles
  reading dihedrals ...
  332 dihedrals
  reading impropers ...
  12 impropers
  4 = max # of 1-2 neighbors
  7 = max # of 1-3 neighbors
  15 = max # of 1-4 neighbors
  19 = max # of special neighbors
  special bonds CPU = 0.000296831 secs
  read_data CPU = 0.00435805 secs
################################################################################

timestep        1
fix             pysimm_md all nve/limit 0.1
run             2000
PPPM initialization ...
  using 12-bit tables for long-range coulomb (../kspace.cpp:332)
  G vector (1/distance) = 0.113042
  grid = 16 16 16
  stencil order = 5
  estimated absolute RMS force accuracy = 0.0393061
  estimated relative force accuracy = 0.000118369
  using double precision KISS FFT
  3d grid and FFT values/proc = 9261 4096
Neighbor list info ...
  update every 1 steps, delay 10 steps, check yes
  max neighbors/atom: 2000, page size: 100000
  master list distance cutoff = 14
  ghost atom cutoff = 14
  binsize = 7, bins = 21 21 21
  1 neighbor lists, perpetual/occasional/extra = 1 0 0
  (1) pair lj/cut/coul/long, perpetual
      attributes: half, newton on
      pair build: half/bin/newton
      stencil: half/bin/3d/newton
      bin: standard
Per MPI rank memory allocation (min/avg/max) = 14.67 | 14.67 | 14.67 Mbytes
Step Temp E_pair E_mol TotEng Press 
       0    878.18804    47910.507    1139.8461    49424.686    4233.0595 
    2000    880.09238   -707.19313    395.64333    63.594715    1.5180219 
Loop time of 2.3071 on 1 procs for 2000 steps with 144 atoms

Performance: 74.899 ns/day, 0.320 hours/ns, 866.889 timesteps/s
100.0% CPU use with 1 MPI tasks x no OpenMP threads

MPI task timing breakdown:
Section |  min time  |  avg time  |  max time  |%varavg| %total
---------------------------------------------------------------
Pair    | 0.39265    | 0.39265    | 0.39265    |   0.0 | 17.02
Bond    | 0.10621    | 0.10621    | 0.10621    |   0.0 |  4.60
Kspace  | 1.7738     | 1.7738     | 1.7738     |   0.0 | 76.88
Neigh   | 0.025012   | 0.025012   | 0.025012   |   0.0 |  1.08
Comm    | 0.00099659 | 0.00099659 | 0.00099659 |   0.0 |  0.04
Output  | 2.0981e-05 | 2.0981e-05 | 2.0981e-05 |   0.0 |  0.00
Modify  | 0.0051787  | 0.0051787  | 0.0051787  |   0.0 |  0.22
Other   |            | 0.003241   |            |       |  0.14

Nlocal:    144 ave 144 max 144 min
Histogram: 1 0 0 0 0 0 0 0 0 0
Nghost:    0 ave 0 max 0 min
Histogram: 1 0 0 0 0 0 0 0 0 0
Neighs:    9483 ave 9483 max 9483 min
Histogram: 1 0 0 0 0 0 0 0 0 0

Total # of neighbors = 9483
Ave neighs/atom = 65.8542
Ave special neighs/atom = 10.1806
Neighbor list builds = 113
Dangerous builds = 0
unfix pysimm_md
min_style cg
minimize 0.001 0.001 10000 100000
WARNING: Using 'neigh_modify every 1 delay 0 check yes' setting during minimization (../min.cpp:190)
PPPM initialization ...
  using 12-bit tables for long-range coulomb (../kspace.cpp:332)
  G vector (1/distance) = 0.113042
  grid = 16 16 16
  stencil order = 5
  estimated absolute RMS force accuracy = 0.0393061
  estimated relative force accuracy = 0.000118369
  using double precision KISS FFT
  3d grid and FFT values/proc = 9261 4096
Per MPI rank memory allocation (min/avg/max) = 15.8 | 15.8 | 15.8 Mbytes
Step Temp E_pair E_mol TotEng Press 
    2000    880.09238   -707.19313    395.64333    63.594715    1.5180219 
    2015    880.09238   -731.86491    157.99383   -198.72657    4.8405992 
Loop time of 0.112433 on 1 procs for 15 steps with 144 atoms

101.4% CPU use with 1 MPI tasks x no OpenMP threads

Minimization stats:
  Stopping criterion = linesearch alpha is zero
  Energy initial, next-to-last, final = 
        -311.549798249     -573.871081681     -573.871081681
  Force two-norm initial, final = 609.08 64.7375
  Force max component initial, final = 139.764 19.4727
  Final line search alpha, max atom move = 2.21818e-12 4.31938e-11
  Iterations, force evaluations = 15 89

MPI task timing breakdown:
Section |  min time  |  avg time  |  max time  |%varavg| %total
---------------------------------------------------------------
Pair    | 0.029843   | 0.029843   | 0.029843   |   0.0 | 26.54
Bond    | 0.0050147  | 0.0050147  | 0.0050147  |   0.0 |  4.46
Kspace  | 0.077199   | 0.077199   | 0.077199   |   0.0 | 68.66
Neigh   | 0          | 0          | 0          |   0.0 |  0.00
Comm    | 3.3617e-05 | 3.3617e-05 | 3.3617e-05 |   0.0 |  0.03
Output  | 0          | 0          | 0          |   0.0 |  0.00
Modify  | 0          | 0          | 0          |   0.0 |  0.00
Other   |            | 0.0003431  |            |       |  0.31

Nlocal:    144 ave 144 max 144 min
Histogram: 1 0 0 0 0 0 0 0 0 0
Nghost:    0 ave 0 max 0 min
Histogram: 1 0 0 0 0 0 0 0 0 0
Neighs:    9501 ave 9501 max 9501 min
Histogram: 1 0 0 0 0 0 0 0 0 0

Total # of neighbors = 9501
Ave neighs/atom = 65.9792
Ave special neighs/atom = 10.1806
Neighbor list builds = 0
Dangerous builds = 0
write_dump all custom pysimm.dump.tmp id q x y z vx vy vz
quit


################################################################################
##################################    Init    ##################################
################################################################################
units           real
atom_style      full
pair_style      lj/cut/coul/long 12.0  12.0
kspace_style    pppm 1e-4
bond_style      harmonic
angle_style     harmonic
dihedral_style  fourier
improper_style  cvff
special_bonds   amber
pair_modify     mix arithmetic
read_data       temp.lmps
  orthogonal box = (-75.4205 -75.4205 -75.4205) to (75.4205 75.4205 75.4205)
  1 by 1 by 1 MPI processor grid
  reading atoms ...
  156 atoms
  reading velocities ...
  156 velocities
  scanning bonds ...
  4 = max bonds/atom
  scanning angles ...
  6 = max angles/atom
  scanning dihedrals ...
  13 = max dihedrals/atom
  scanning impropers ...
  1 = max impropers/atom
  reading bonds ...
  155 bonds
  reading angles ...
  280 angles
  reading dihedrals ...
  361 dihedrals
  reading impropers ...
  13 impropers
  4 = max # of 1-2 neighbors
  7 = max # of 1-3 neighbors
  15 = max # of 1-4 neighbors
  19 = max # of special neighbors
  special bonds CPU = 0.000273943 secs
  read_data CPU = 0.00439 secs
################################################################################

timestep        1
fix             pysimm_md all nve/limit 0.1
run             2000
PPPM initialization ...
  using 12-bit tables for long-range coulomb (../kspace.cpp:332)
  G vector (1/distance) = 0.119815
  grid = 18 18 18
  stencil order = 5
  estimated absolute RMS force accuracy = 0.0312119
  estimated relative force accuracy = 9.39937e-05
  using double precision KISS FFT
  3d grid and FFT values/proc = 12167 5832
Neighbor list info ...
  update every 1 steps, delay 10 steps, check yes
  max neighbors/atom: 2000, page size: 100000
  master list distance cutoff = 14
  ghost atom cutoff = 14
  binsize = 7, bins = 22 22 22
  1 neighbor lists, perpetual/occasional/extra = 1 0 0
  (1) pair lj/cut/coul/long, perpetual
      attributes: half, newton on
      pair build: half/bin/newton
      stencil: half/bin/3d/newton
      bin: standard
Per MPI rank memory allocation (min/avg/max) = 14.94 | 14.94 | 14.94 Mbytes
Step Temp E_pair E_mol TotEng Press 
       0    812.09008    152092.07    1158.2333    153625.51    12220.696 
    2000    1004.8519   -764.69472    545.70756    245.28008    3.1094767 
Loop time of 3.18206 on 1 procs for 2000 steps with 156 atoms

Performance: 54.304 ns/day, 0.442 hours/ns, 628.523 timesteps/s
100.0% CPU use with 1 MPI tasks x no OpenMP threads

MPI task timing breakdown:
Section |  min time  |  avg time  |  max time  |%varavg| %total
---------------------------------------------------------------
Pair    | 0.44267    | 0.44267    | 0.44267    |   0.0 | 13.91
Bond    | 0.1153     | 0.1153     | 0.1153     |   0.0 |  3.62
Kspace  | 2.5762     | 2.5762     | 2.5762     |   0.0 | 80.96
Neigh   | 0.036076   | 0.036076   | 0.036076   |   0.0 |  1.13
Comm    | 0.0027106  | 0.0027106  | 0.0027106  |   0.0 |  0.09
Output  | 4.0054e-05 | 4.0054e-05 | 4.0054e-05 |   0.0 |  0.00
Modify  | 0.0056443  | 0.0056443  | 0.0056443  |   0.0 |  0.18
Other   |            | 0.003392   |            |       |  0.11

Nlocal:    156 ave 156 max 156 min
Histogram: 1 0 0 0 0 0 0 0 0 0
Nghost:    141 ave 141 max 141 min
Histogram: 1 0 0 0 0 0 0 0 0 0
Neighs:    10436 ave 10436 max 10436 min
Histogram: 1 0 0 0 0 0 0 0 0 0

Total # of neighbors = 10436
Ave neighs/atom = 66.8974
Ave special neighs/atom = 10.2051
Neighbor list builds = 129
Dangerous builds = 0
unfix pysimm_md
min_style cg
minimize 0.001 0.001 10000 100000
WARNING: Using 'neigh_modify every 1 delay 0 check yes' setting during minimization (../min.cpp:190)
PPPM initialization ...
  using 12-bit tables for long-range coulomb (../kspace.cpp:332)
  G vector (1/distance) = 0.119815
  grid = 18 18 18
  stencil order = 5
  estimated absolute RMS force accuracy = 0.0312119
  estimated relative force accuracy = 9.39937e-05
  using double precision KISS FFT
  3d grid and FFT values/proc = 12167 5832
Per MPI rank memory allocation (min/avg/max) = 16.08 | 16.08 | 16.08 Mbytes
Step Temp E_pair E_mol TotEng Press 
    2000    1004.8519   -764.69472    545.70756    245.28008    3.1094767 
    2029    1004.8519   -796.07574     188.4952    -143.3133    5.3148049 
Loop time of 0.106965 on 1 procs for 29 steps with 156 atoms

99.1% CPU use with 1 MPI tasks x no OpenMP threads

Minimization stats:
  Stopping criterion = energy tolerance
  Energy initial, next-to-last, final = 
        -218.987165055     -607.147654391     -607.580539832
  Force two-norm initial, final = 715.994 39.1882
  Force max component initial, final = 125.864 6.868
  Final line search alpha, max atom move = 0.00415215 0.0285169
  Iterations, force evaluations = 29 58

MPI task timing breakdown:
Section |  min time  |  avg time  |  max time  |%varavg| %total
---------------------------------------------------------------
Pair    | 0.022454   | 0.022454   | 0.022454   |   0.0 | 20.99
Bond    | 0.0038257  | 0.0038257  | 0.0038257  |   0.0 |  3.58
Kspace  | 0.080271   | 0.080271   | 0.080271   |   0.0 | 75.04
Neigh   | 0          | 0          | 0          |   0.0 |  0.00
Comm    | 7.844e-05  | 7.844e-05  | 7.844e-05  |   0.0 |  0.07
Output  | 0          | 0          | 0          |   0.0 |  0.00
Modify  | 0          | 0          | 0          |   0.0 |  0.00
Other   |            | 0.0003362  |            |       |  0.31

Nlocal:    156 ave 156 max 156 min
Histogram: 1 0 0 0 0 0 0 0 0 0
Nghost:    142 ave 142 max 142 min
Histogram: 1 0 0 0 0 0 0 0 0 0
Neighs:    10439 ave 10439 max 10439 min
Histogram: 1 0 0 0 0 0 0 0 0 0

Total # of neighbors = 10439
Ave neighs/atom = 66.9167
Ave special neighs/atom = 10.2051
Neighbor list builds = 0
Dangerous builds = 0
write_dump all custom pysimm.dump.tmp id q x y z vx vy vz
quit


################################################################################
##################################    Init    ##################################
################################################################################
units           real
atom_style      full
pair_style      lj/cut/coul/long 12.0  12.0
kspace_style    pppm 1e-4
bond_style      harmonic
angle_style     harmonic
dihedral_style  fourier
improper_style  cvff
special_bonds   amber
pair_modify     mix arithmetic
read_data       temp.lmps
  orthogonal box = (-77.4598 -77.4598 -77.4598) to (77.4598 77.4598 77.4598)
  1 by 1 by 1 MPI processor grid
  reading atoms ...
  168 atoms
  reading velocities ...
  168 velocities
  scanning bonds ...
  4 = max bonds/atom
  scanning angles ...
  6 = max angles/atom
  scanning dihedrals ...
  13 = max dihedrals/atom
  scanning impropers ...
  1 = max impropers/atom
  reading bonds ...
  167 bonds
  reading angles ...
  302 angles
  reading dihedrals ...
  390 dihedrals
  reading impropers ...
  14 impropers
  4 = max # of 1-2 neighbors
  7 = max # of 1-3 neighbors
  15 = max # of 1-4 neighbors
  19 = max # of special neighbors
  special bonds CPU = 0.000291109 secs
  read_data CPU = 0.00439191 secs
################################################################################

timestep        1
fix             pysimm_md all nve/limit 0.1
run             2000
PPPM initialization ...
  using 12-bit tables for long-range coulomb (../kspace.cpp:332)
  G vector (1/distance) = 0.117765
  grid = 18 18 18
  stencil order = 5
  estimated absolute RMS force accuracy = 0.0333804
  estimated relative force accuracy = 0.000100524
  using double precision KISS FFT
  3d grid and FFT values/proc = 12167 5832
Neighbor list info ...
  update every 1 steps, delay 10 steps, check yes
  max neighbors/atom: 2000, page size: 100000
  master list distance cutoff = 14
  ghost atom cutoff = 14
  binsize = 7, bins = 23 23 23
  1 neighbor lists, perpetual/occasional/extra = 1 0 0
  (1) pair lj/cut/coul/long, perpetual
      attributes: half, newton on
      pair build: half/bin/newton
      stencil: half/bin/3d/newton
      bin: standard
Per MPI rank memory allocation (min/avg/max) = 14.95 | 14.95 | 14.95 Mbytes
Step Temp E_pair E_mol TotEng Press 
       0     932.7709   -857.00694    1191.6462    798.96823   -12.820194 
    2000    652.38751   -803.35776    490.32235     11.72002   0.53851608 
Loop time of 3.3641 on 1 procs for 2000 steps with 168 atoms

Performance: 51.366 ns/day, 0.467 hours/ns, 594.512 timesteps/s
100.0% CPU use with 1 MPI tasks x no OpenMP threads

MPI task timing breakdown:
Section |  min time  |  avg time  |  max time  |%varavg| %total
---------------------------------------------------------------
Pair    | 0.50067    | 0.50067    | 0.50067    |   0.0 | 14.88
Bond    | 0.12507    | 0.12507    | 0.12507    |   0.0 |  3.72
Kspace  | 2.6982     | 2.6982     | 2.6982     |   0.0 | 80.21
Neigh   | 0.029598   | 0.029598   | 0.029598   |   0.0 |  0.88
Comm    | 0.0011201  | 0.0011201  | 0.0011201  |   0.0 |  0.03
Output  | 2.0981e-05 | 2.0981e-05 | 2.0981e-05 |   0.0 |  0.00
Modify  | 0.0059247  | 0.0059247  | 0.0059247  |   0.0 |  0.18
Other   |            | 0.003499   |            |       |  0.10

Nlocal:    168 ave 168 max 168 min
Histogram: 1 0 0 0 0 0 0 0 0 0
Nghost:    0 ave 0 max 0 min
Histogram: 1 0 0 0 0 0 0 0 0 0
Neighs:    10545 ave 10545 max 10545 min
Histogram: 1 0 0 0 0 0 0 0 0 0

Total # of neighbors = 10545
Ave neighs/atom = 62.7679
Ave special neighs/atom = 10.2262
Neighbor list builds = 102
Dangerous builds = 0
unfix pysimm_md
min_style cg
minimize 0.001 0.001 10000 100000
WARNING: Using 'neigh_modify every 1 delay 0 check yes' setting during minimization (../min.cpp:190)
PPPM initialization ...
  using 12-bit tables for long-range coulomb (../kspace.cpp:332)
  G vector (1/distance) = 0.117765
  grid = 18 18 18
  stencil order = 5
  estimated absolute RMS force accuracy = 0.0333804
  estimated relative force accuracy = 0.000100524
  using double precision KISS FFT
  3d grid and FFT values/proc = 12167 5832
Per MPI rank memory allocation (min/avg/max) = 16.08 | 16.08 | 16.08 Mbytes
Step Temp E_pair E_mol TotEng Press 
    2000    652.38751   -803.35776    490.32235     11.72002   0.53851608 
    2037    652.38751   -859.31852    159.98499    -374.5781    3.0527737 
Loop time of 0.128646 on 1 procs for 37 steps with 168 atoms

99.5% CPU use with 1 MPI tasks x no OpenMP threads

Minimization stats:
  Stopping criterion = energy tolerance
  Energy initial, next-to-last, final = 
        -313.035402675     -698.857046676     -699.333522299
  Force two-norm initial, final = 701.604 34.1453
  Force max component initial, final = 138.227 4.78737
  Final line search alpha, max atom move = 0.0028535 0.0136608
  Iterations, force evaluations = 37 74

MPI task timing breakdown:
Section |  min time  |  avg time  |  max time  |%varavg| %total
---------------------------------------------------------------
Pair    | 0.027108   | 0.027108   | 0.027108   |   0.0 | 21.07
Bond    | 0.0050411  | 0.0050411  | 0.0050411  |   0.0 |  3.92
Kspace  | 0.095762   | 0.095762   | 0.095762   |   0.0 | 74.44
Neigh   | 0.00028419 | 0.00028419 | 0.00028419 |   0.0 |  0.22
Comm    | 2.6464e-05 | 2.6464e-05 | 2.6464e-05 |   0.0 |  0.02
Output  | 0          | 0          | 0          |   0.0 |  0.00
Modify  | 0          | 0          | 0          |   0.0 |  0.00
Other   |            | 0.0004237  |            |       |  0.33

Nlocal:    168 ave 168 max 168 min
Histogram: 1 0 0 0 0 0 0 0 0 0
Nghost:    0 ave 0 max 0 min
Histogram: 1 0 0 0 0 0 0 0 0 0
Neighs:    10535 ave 10535 max 10535 min
Histogram: 1 0 0 0 0 0 0 0 0 0

Total # of neighbors = 10535
Ave neighs/atom = 62.7083
Ave special neighs/atom = 10.2262
Neighbor list builds = 1
Dangerous builds = 0
write_dump all custom pysimm.dump.tmp id q x y z vx vy vz
quit


################################################################################
##################################    Init    ##################################
################################################################################
units           real
atom_style      full
pair_style      lj/cut/coul/long 12.0  12.0
kspace_style    pppm 1e-4
bond_style      harmonic
angle_style     harmonic
dihedral_style  fourier
improper_style  cvff
special_bonds   amber
pair_modify     mix arithmetic
read_data       temp.lmps
  orthogonal box = (-79.3971 -79.3971 -79.3971) to (79.3971 79.3971 79.3971)
  1 by 1 by 1 MPI processor grid
  reading atoms ...
  180 atoms
  reading velocities ...
  180 velocities
  scanning bonds ...
  4 = max bonds/atom
  scanning angles ...
  6 = max angles/atom
  scanning dihedrals ...
  13 = max dihedrals/atom
  scanning impropers ...
  1 = max impropers/atom
  reading bonds ...
  179 bonds
  reading angles ...
  324 angles
  reading dihedrals ...
  419 dihedrals
  reading impropers ...
  15 impropers
  4 = max # of 1-2 neighbors
  7 = max # of 1-3 neighbors
  15 = max # of 1-4 neighbors
  19 = max # of special neighbors
  special bonds CPU = 0.000254869 secs
  read_data CPU = 0.00443411 secs
################################################################################

timestep        1
fix             pysimm_md all nve/limit 0.1
run             2000
PPPM initialization ...
  using 12-bit tables for long-range coulomb (../kspace.cpp:332)
  G vector (1/distance) = 0.115878
  grid = 18 18 18
  stencil order = 5
  estimated absolute RMS force accuracy = 0.0354776
  estimated relative force accuracy = 0.00010684
  using double precision KISS FFT
  3d grid and FFT values/proc = 12167 5832
Neighbor list info ...
  update every 1 steps, delay 10 steps, check yes
  max neighbors/atom: 2000, page size: 100000
  master list distance cutoff = 14
  ghost atom cutoff = 14
  binsize = 7, bins = 23 23 23
  1 neighbor lists, perpetual/occasional/extra = 1 0 0
  (1) pair lj/cut/coul/long, perpetual
      attributes: half, newton on
      pair build: half/bin/newton
      stencil: half/bin/3d/newton
      bin: standard
Per MPI rank memory allocation (min/avg/max) = 14.95 | 14.95 | 14.95 Mbytes
Step Temp E_pair E_mol TotEng Press 
       0    608.76749   -918.37021    1164.2477    570.69452   -13.456417 
    2000    562.52784   -910.93943    395.38459   -215.40966  -0.94493067 
Loop time of 3.34872 on 1 procs for 2000 steps with 180 atoms

Performance: 51.602 ns/day, 0.465 hours/ns, 597.243 timesteps/s
100.0% CPU use with 1 MPI tasks x no OpenMP threads

MPI task timing breakdown:
Section |  min time  |  avg time  |  max time  |%varavg| %total
---------------------------------------------------------------
Pair    | 0.51275    | 0.51275    | 0.51275    |   0.0 | 15.31
Bond    | 0.13304    | 0.13304    | 0.13304    |   0.0 |  3.97
Kspace  | 2.6616     | 2.6616     | 2.6616     |   0.0 | 79.48
Neigh   | 0.029937   | 0.029937   | 0.029937   |   0.0 |  0.89
Comm    | 0.0010872  | 0.0010872  | 0.0010872  |   0.0 |  0.03
Output  | 2.0981e-05 | 2.0981e-05 | 2.0981e-05 |   0.0 |  0.00
[...]
PPPM initialization ...
  using 12-bit tables for long-range coulomb (../kspace.cpp:332)
  G vector (1/distance) = 0.116559
  grid = 27 27 27
  stencil order = 5
  estimated absolute RMS force accuracy = 0.0338639
  estimated relative force accuracy = 0.00010198
  using double precision KISS FFT
  3d grid and FFT values/proc = 32768 19683
Per MPI rank memory allocation (min/avg/max) = 18.22 | 18.22 | 18.22 Mbytes
Step Temp E_pair E_mol TotEng Press 
    2000    170.03634   -2974.0527    711.05671   -1977.6417  -0.10437965 
    2013    170.03634   -2983.5878    472.65986   -2225.5737   0.87619325 
Loop time of 0.175764 on 1 procs for 13 steps with 564 atoms

100.1% CPU use with 1 MPI tasks x no OpenMP threads

Minimization stats:
  Stopping criterion = energy tolerance
  Energy initial, next-to-last, final = 
        -2262.99598098     -2509.06022465     -2510.92798121
  Force two-norm initial, final = 602.827 63.6373
  Force max component initial, final = 111.752 12.2666
  Final line search alpha, max atom move = 0.00371116 0.0455234
  Iterations, force evaluations = 13 26

MPI task timing breakdown:
Section |  min time  |  avg time  |  max time  |%varavg| %total
---------------------------------------------------------------
Pair    | 0.05028    | 0.05028    | 0.05028    |   0.0 | 28.61
Bond    | 0.0058484  | 0.0058484  | 0.0058484  |   0.0 |  3.33
Kspace  | 0.11927    | 0.11927    | 0.11927    |   0.0 | 67.86
Neigh   | 0          | 0          | 0          |   0.0 |  0.00
Comm    | 9.5367e-06 | 9.5367e-06 | 9.5367e-06 |   0.0 |  0.01
Output  | 0          | 0          | 0          |   0.0 |  0.00
Modify  | 0          | 0          | 0          |   0.0 |  0.00
Other   |            | 0.0003545  |            |       |  0.20

Nlocal:    564 ave 564 max 564 min
Histogram: 1 0 0 0 0 0 0 0 0 0
Nghost:    0 ave 0 max 0 min
Histogram: 1 0 0 0 0 0 0 0 0 0
Neighs:    59346 ave 59346 max 59346 min
Histogram: 1 0 0 0 0 0 0 0 0 0

Total # of neighbors = 59346
Ave neighs/atom = 105.223
Ave special neighs/atom = 10.4184
Neighbor list builds = 0
Dangerous builds = 0
write_dump all custom pysimm.dump.tmp id q x y z vx vy vz
quit


################################################################################
##################################    Init    ##################################
################################################################################
units           real
atom_style      full
pair_style      lj/cut/coul/long 12.0  12.0
kspace_style    pppm 1e-4
bond_style      harmonic
angle_style     harmonic
dihedral_style  fourier
improper_style  cvff
special_bonds   amber
pair_modify     mix arithmetic
read_data       temp.lmps
  orthogonal box = (-118.885 -118.885 -118.885) to (118.885 118.885 118.885)
  1 by 1 by 1 MPI processor grid
  reading atoms ...
  576 atoms
  reading velocities ...
  576 velocities
  scanning bonds ...
  4 = max bonds/atom
  scanning angles ...
  6 = max angles/atom
  scanning dihedrals ...
  13 = max dihedrals/atom
  scanning impropers ...
  1 = max impropers/atom
  reading bonds ...
  575 bonds
  reading angles ...
  1050 angles
  reading dihedrals ...
  1376 dihedrals
  reading impropers ...
  48 impropers
  4 = max # of 1-2 neighbors
  7 = max # of 1-3 neighbors
  15 = max # of 1-4 neighbors
  19 = max # of special neighbors
  special bonds CPU = 0.000512123 secs
  read_data CPU = 0.00739884 secs
################################################################################

timestep        1
fix             pysimm_md all nve/limit 0.1
run             2000
PPPM initialization ...
  using 12-bit tables for long-range coulomb (../kspace.cpp:332)
  G vector (1/distance) = 0.116012
  grid = 27 27 27
  stencil order = 5
  estimated absolute RMS force accuracy = 0.0344819
  estimated relative force accuracy = 0.000103841
  using double precision KISS FFT
  3d grid and FFT values/proc = 32768 19683
Neighbor list info ...
  update every 1 steps, delay 10 steps, check yes
  max neighbors/atom: 2000, page size: 100000
  master list distance cutoff = 14
  ghost atom cutoff = 14
  binsize = 7, bins = 34 34 34
  1 neighbor lists, perpetual/occasional/extra = 1 0 0
  (1) pair lj/cut/coul/long, perpetual
      attributes: half, newton on
      pair build: half/bin/newton
      stencil: half/bin/3d/newton
      bin: standard
Per MPI rank memory allocation (min/avg/max) = 17.1 | 17.1 | 17.1 Mbytes
Step Temp E_pair E_mol TotEng Press 
       0    166.52375   -3044.1354    1462.5921   -1296.1273   -3.9826928 
    2000    200.34299   -3044.4294     653.0672   -2047.9811  -0.30245779 
Loop time of 12.366 on 1 procs for 2000 steps with 576 atoms

Performance: 13.974 ns/day, 1.718 hours/ns, 161.734 timesteps/s
100.0% CPU use with 1 MPI tasks x no OpenMP threads

MPI task timing breakdown:
Section |  min time  |  avg time  |  max time  |%varavg| %total
---------------------------------------------------------------
Pair    | 2.5483     | 2.5483     | 2.5483     |   0.0 | 20.61
Bond    | 0.41739    | 0.41739    | 0.41739    |   0.0 |  3.38
Kspace  | 9.2418     | 9.2418     | 9.2418     |   0.0 | 74.74
Neigh   | 0.13213    | 0.13213    | 0.13213    |   0.0 |  1.07
Comm    | 0.0016096  | 0.0016096  | 0.0016096  |   0.0 |  0.01
Output  | 2.3842e-05 | 2.3842e-05 | 2.3842e-05 |   0.0 |  0.00
Modify  | 0.018276   | 0.018276   | 0.018276   |   0.0 |  0.15
Other   |            | 0.006487   |            |       |  0.05

Nlocal:    576 ave 576 max 576 min
Histogram: 1 0 0 0 0 0 0 0 0 0
Nghost:    0 ave 0 max 0 min
Histogram: 1 0 0 0 0 0 0 0 0 0
Neighs:    60770 ave 60770 max 60770 min
Histogram: 1 0 0 0 0 0 0 0 0 0

Total # of neighbors = 60770
Ave neighs/atom = 105.503
Ave special neighs/atom = 10.4201
Neighbor list builds = 85
Dangerous builds = 0
unfix pysimm_md
min_style cg
minimize 0.001 0.001 10000 100000
WARNING: Using 'neigh_modify every 1 delay 0 check yes' setting during minimization (../min.cpp:190)
PPPM initialization ...
  using 12-bit tables for long-range coulomb (../kspace.cpp:332)
  G vector (1/distance) = 0.116012
  grid = 27 27 27
  stencil order = 5
  estimated absolute RMS force accuracy = 0.0344819
  estimated relative force accuracy = 0.000103841
  using double precision KISS FFT
  3d grid and FFT values/proc = 32768 19683
Per MPI rank memory allocation (min/avg/max) = 18.23 | 18.23 | 18.23 Mbytes
Step Temp E_pair E_mol TotEng Press 
    2000    200.34299   -3044.4294     653.0672   -2047.9811  -0.30245779 
    2011    200.34299   -3058.9776    491.66768   -2223.9289   0.71941413 
Loop time of 0.169123 on 1 procs for 11 steps with 576 atoms

99.9% CPU use with 1 MPI tasks x no OpenMP threads

Minimization stats:
  Stopping criterion = energy tolerance
  Energy initial, next-to-last, final = 
        -2391.36214818     -2565.21156747      -2567.3099453
  Force two-norm initial, final = 472.784 65.4462
  Force max component initial, final = 100.409 22.3694
  Final line search alpha, max atom move = 0.00418014 0.0935074
  Iterations, force evaluations = 11 22

MPI task timing breakdown:
Section |  min time  |  avg time  |  max time  |%varavg| %total
---------------------------------------------------------------
Pair    | 0.049997   | 0.049997   | 0.049997   |   0.0 | 29.56
Bond    | 0.0056441  | 0.0056441  | 0.0056441  |   0.0 |  3.34
Kspace  | 0.11307    | 0.11307    | 0.11307    |   0.0 | 66.85
Neigh   | 0          | 0          | 0          |   0.0 |  0.00
Comm    | 9.5367e-06 | 9.5367e-06 | 9.5367e-06 |   0.0 |  0.01
Output  | 0          | 0          | 0          |   0.0 |  0.00
Modify  | 0          | 0          | 0          |   0.0 |  0.00
Other   |            | 0.0004063  |            |       |  0.24

Nlocal:    576 ave 576 max 576 min
Histogram: 1 0 0 0 0 0 0 0 0 0
Nghost:    0 ave 0 max 0 min
Histogram: 1 0 0 0 0 0 0 0 0 0
Neighs:    60779 ave 60779 max 60779 min
Histogram: 1 0 0 0 0 0 0 0 0 0

Total # of neighbors = 60779
Ave neighs/atom = 105.519
Ave special neighs/atom = 10.4201
Neighbor list builds = 0
Dangerous builds = 0
write_dump all custom pysimm.dump.tmp id q x y z vx vy vz
quit


################################################################################
##################################    Init    ##################################
################################################################################
units           real
atom_style      full
pair_style      lj/cut/coul/long 12.0  12.0
kspace_style    pppm 1e-4
bond_style      harmonic
angle_style     harmonic
dihedral_style  fourier
improper_style  cvff
special_bonds   amber
pair_modify     mix arithmetic
read_data       temp.lmps
  orthogonal box = (-119.723 -119.723 -119.723) to (119.723 119.723 119.723)
  1 by 1 by 1 MPI processor grid
  reading atoms ...
  588 atoms
  reading velocities ...
  588 velocities
  scanning bonds ...
  4 = max bonds/atom
  scanning angles ...
  6 = max angles/atom
  scanning dihedrals ...
  13 = max dihedrals/atom
  scanning impropers ...
  1 = max impropers/atom
  reading bonds ...
  587 bonds
  reading angles ...
  1072 angles
  reading dihedrals ...
  1405 dihedrals
  reading impropers ...
  49 impropers
  4 = max # of 1-2 neighbors
  7 = max # of 1-3 neighbors
  15 = max # of 1-4 neighbors
  19 = max # of special neighbors
  special bonds CPU = 0.000558853 secs
  read_data CPU = 0.00764298 secs
################################################################################

timestep        1
fix             pysimm_md all nve/limit 0.1
run             2000
PPPM initialization ...
  using 12-bit tables for long-range coulomb (../kspace.cpp:332)
  G vector (1/distance) = 0.115478
  grid = 27 27 27
  stencil order = 5
  estimated absolute RMS force accuracy = 0.0350939
  estimated relative force accuracy = 0.000105684
  using double precision KISS FFT
  3d grid and FFT values/proc = 32768 19683
Neighbor list info ...
  update every 1 steps, delay 10 steps, check yes
  max neighbors/atom: 2000, page size: 100000
  master list distance cutoff = 14
  ghost atom cutoff = 14
  binsize = 7, bins = 35 35 35
  1 neighbor lists, perpetual/occasional/extra = 1 0 0
  (1) pair lj/cut/coul/long, perpetual
      attributes: half, newton on
      pair build: half/bin/newton
      stencil: half/bin/3d/newton
      bin: standard
Per MPI rank memory allocation (min/avg/max) = 17.12 | 17.12 | 17.12 Mbytes
Step Temp E_pair E_mol TotEng Press 
       0    196.28257   -3116.8185    1504.7561   -1268.6198   -4.1243555 
    2000     163.1429   -3102.5373    719.50741    -2097.573  -0.62055091 
Loop time of 12.2855 on 1 procs for 2000 steps with 588 atoms

Performance: 14.065 ns/day, 1.706 hours/ns, 162.793 timesteps/s
100.0% CPU use with 1 MPI tasks x no OpenMP threads

MPI task timing breakdown:
Section |  min time  |  avg time  |  max time  |%varavg| %total
---------------------------------------------------------------
Pair    | 2.5693     | 2.5693     | 2.5693     |   0.0 | 20.91
Bond    | 0.42427    | 0.42427    | 0.42427    |   0.0 |  3.45
Kspace  | 9.1172     | 9.1172     | 9.1172     |   0.0 | 74.21
Neigh   | 0.14814    | 0.14814    | 0.14814    |   0.0 |  1.21
Comm    | 0.0018706  | 0.0018706  | 0.0018706  |   0.0 |  0.02
Output  | 2.2888e-05 | 2.2888e-05 | 2.2888e-05 |   0.0 |  0.00
Modify  | 0.018512   | 0.018512   | 0.018512   |   0.0 |  0.15
Other   |            | 0.006179   |            |       |  0.05

Nlocal:    588 ave 588 max 588 min
Histogram: 1 0 0 0 0 0 0 0 0 0
Nghost:    0 ave 0 max 0 min
Histogram: 1 0 0 0 0 0 0 0 0 0
Neighs:    61579 ave 61579 max 61579 min
Histogram: 1 0 0 0 0 0 0 0 0 0

Total # of neighbors = 61579
Ave neighs/atom = 104.726
Ave special neighs/atom = 10.4218
Neighbor list builds = 95
Dangerous builds = 0
unfix pysimm_md
min_style cg
minimize 0.001 0.001 10000 100000
WARNING: Using 'neigh_modify every 1 delay 0 check yes' setting during minimization (../min.cpp:190)
PPPM initialization ...
  using 12-bit tables for long-range coulomb (../kspace.cpp:332)
  G vector (1/distance) = 0.115478
  grid = 27 27 27
  stencil order = 5
  estimated absolute RMS force accuracy = 0.0350939
  estimated relative force accuracy = 0.000105684
  using double precision KISS FFT
  3d grid and FFT values/proc = 32768 19683
Per MPI rank memory allocation (min/avg/max) = 18.24 | 18.24 | 18.24 Mbytes
Step Temp E_pair E_mol TotEng Press 
    2000     163.1429   -3102.5373    719.50741    -2097.573  -0.62055091 
    2015     163.1429   -3124.5642    506.85847   -2332.2488   0.65387606 
Loop time of 0.207242 on 1 procs for 15 steps with 588 atoms

99.9% CPU use with 1 MPI tasks x no OpenMP threads

Minimization stats:
  Stopping criterion = energy tolerance
  Energy initial, next-to-last, final = 
        -2383.02987364     -2616.32711767     -2617.70572405
  Force two-norm initial, final = 523.207 62.1158
  Force max component initial, final = 88.12 12.6115
  Final line search alpha, max atom move = 0.0046666 0.058853
  Iterations, force evaluations = 15 30

MPI task timing breakdown:
Section |  min time  |  avg time  |  max time  |%varavg| %total
---------------------------------------------------------------
Pair    | 0.061106   | 0.061106   | 0.061106   |   0.0 | 29.49
Bond    | 0.0070691  | 0.0070691  | 0.0070691  |   0.0 |  3.41
Kspace  | 0.13863    | 0.13863    | 0.13863    |   0.0 | 66.89
Neigh   | 0          | 0          | 0          |   0.0 |  0.00
Comm    | 1.2398e-05 | 1.2398e-05 | 1.2398e-05 |   0.0 |  0.01
Output  | 0          | 0          | 0          |   0.0 |  0.00
Modify  | 0          | 0          | 0          |   0.0 |  0.00
Other   |            | 0.0004234  |            |       |  0.20

Nlocal:    588 ave 588 max 588 min
Histogram: 1 0 0 0 0 0 0 0 0 0
Nghost:    0 ave 0 max 0 min
Histogram: 1 0 0 0 0 0 0 0 0 0
Neighs:    61579 ave 61579 max 61579 min
Histogram: 1 0 0 0 0 0 0 0 0 0

Total # of neighbors = 61579
Ave neighs/atom = 104.726
Ave special neighs/atom = 10.4218
Neighbor list builds = 0
Dangerous builds = 0
write_dump all custom pysimm.dump.tmp id q x y z vx vy vz
quit


################################################################################
##################################    Init    ##################################
################################################################################
units           real
atom_style      full
pair_style      lj/cut/coul/long 12.0  12.0
kspace_style    pppm 1e-4
bond_style      harmonic
angle_style     harmonic
dihedral_style  fourier
improper_style  cvff
special_bonds   amber
pair_modify     mix arithmetic
read_data       temp.lmps
  orthogonal box = (-120.548 -120.548 -120.548) to (120.548 120.548 120.548)
  1 by 1 by 1 MPI processor grid
  reading atoms ...
  600 atoms
  reading velocities ...
  600 velocities
  scanning bonds ...
  4 = max bonds/atom
  scanning angles ...
  6 = max angles/atom
  scanning dihedrals ...
  13 = max dihedrals/atom
  scanning impropers ...
  1 = max impropers/atom
  reading bonds ...
  599 bonds
  reading angles ...
  1094 angles
  reading dihedrals ...
  1434 dihedrals
  reading impropers ...
  50 impropers
  4 = max # of 1-2 neighbors
  7 = max # of 1-3 neighbors
  15 = max # of 1-4 neighbors
  19 = max # of special neighbors
  special bonds CPU = 0.000494957 secs
  read_data CPU = 0.0076201 secs
################################################################################

timestep        1
fix             pysimm_md all nve/limit 0.1
run             2000
PPPM initialization ...
  using 12-bit tables for long-range coulomb (../kspace.cpp:332)
  G vector (1/distance) = 0.114956
  grid = 27 27 27
  stencil order = 5
  estimated absolute RMS force accuracy = 0.0357002
  estimated relative force accuracy = 0.00010751
  using double precision KISS FFT
  3d grid and FFT values/proc = 32768 19683
Neighbor list info ...
  update every 1 steps, delay 10 steps, check yes
  max neighbors/atom: 2000, page size: 100000
  master list distance cutoff = 14
  ghost atom cutoff = 14
  binsize = 7, bins = 35 35 35
  1 neighbor lists, perpetual/occasional/extra = 1 0 0
  (1) pair lj/cut/coul/long, perpetual
      attributes: half, newton on
      pair build: half/bin/newton
      stencil: half/bin/3d/newton
      bin: standard
Per MPI rank memory allocation (min/avg/max) = 17.12 | 17.12 | 17.12 Mbytes
Step Temp E_pair E_mol TotEng Press 
       0    159.90915   -3183.5095    1521.3601   -1376.6307    -4.093292 
    2000    160.15215   -3148.0564     700.7736   -2161.3303   0.70813083 
Loop time of 12.4173 on 1 procs for 2000 steps with 600 atoms

Performance: 13.916 ns/day, 1.725 hours/ns, 161.065 timesteps/s
100.0% CPU use with 1 MPI tasks x no OpenMP threads

MPI task timing breakdown:
Section |  min time  |  avg time  |  max time  |%varavg| %total
---------------------------------------------------------------
Pair    | 2.7081     | 2.7081     | 2.7081     |   0.0 | 21.81
Bond    | 0.43397    | 0.43397    | 0.43397    |   0.0 |  3.49
Kspace  | 9.1077     | 9.1077     | 9.1077     |   0.0 | 73.35
Neigh   | 0.14014    | 0.14014    | 0.14014    |   0.0 |  1.13
Comm    | 0.00177    | 0.00177    | 0.00177    |   0.0 |  0.01
Output  | 2.408e-05  | 2.408e-05  | 2.408e-05  |   0.0 |  0.00
Modify  | 0.019035   | 0.019035   | 0.019035   |   0.0 |  0.15
Other   |            | 0.006603   |            |       |  0.05

Nlocal:    600 ave 600 max 600 min
Histogram: 1 0 0 0 0 0 0 0 0 0
Nghost:    0 ave 0 max 0 min
Histogram: 1 0 0 0 0 0 0 0 0 0
Neighs:    66033 ave 66033 max 66033 min
Histogram: 1 0 0 0 0 0 0 0 0 0

Total # of neighbors = 66033
Ave neighs/atom = 110.055
Ave special neighs/atom = 10.4233
Neighbor list builds = 84
Dangerous builds = 0
unfix pysimm_md
min_style cg
minimize 0.001 0.001 10000 100000
WARNING: Using 'neigh_modify every 1 delay 0 check yes' setting during minimization (../min.cpp:190)
PPPM initialization ...
  using 12-bit tables for long-range coulomb (../kspace.cpp:332)
  G vector (1/distance) = 0.114956
  grid = 27 27 27
  stencil order = 5
  estimated absolute RMS force accuracy = 0.0357002
  estimated relative force accuracy = 0.00010751
  using double precision KISS FFT
  3d grid and FFT values/proc = 32768 19683
Per MPI rank memory allocation (min/avg/max) = 18.25 | 18.25 | 18.25 Mbytes
Step Temp E_pair E_mol TotEng Press 
    2000    160.15215   -3148.0564     700.7736   -2161.3303   0.70813083 
    2011    160.15215   -3167.7975    504.80422   -2377.0408    1.0778089 
Loop time of 0.158958 on 1 procs for 11 steps with 600 atoms

100.0% CPU use with 1 MPI tasks x no OpenMP threads

Minimization stats:
  Stopping criterion = energy tolerance
  Energy initial, next-to-last, final = 
        -2447.28283797     -2661.43760141     -2662.99333244
  Force two-norm initial, final = 554.603 63.6145
  Force max component initial, final = 112.333 18.7381
  Final line search alpha, max atom move = 0.00369272 0.0691946
  Iterations, force evaluations = 11 22

MPI task timing breakdown:
Section |  min time  |  avg time  |  max time  |%varavg| %total
---------------------------------------------------------------
Pair    | 0.047656   | 0.047656   | 0.047656   |   0.0 | 29.98
Bond    | 0.0052831  | 0.0052831  | 0.0052831  |   0.0 |  3.32
Kspace  | 0.10568    | 0.10568    | 0.10568    |   0.0 | 66.48
Neigh   | 0          | 0          | 0          |   0.0 |  0.00
Comm    | 7.1526e-06 | 7.1526e-06 | 7.1526e-06 |   0.0 |  0.00
Output  | 0          | 0          | 0          |   0.0 |  0.00
Modify  | 0          | 0          | 0          |   0.0 |  0.00
Other   |            | 0.0003345  |            |       |  0.21

Nlocal:    600 ave 600 max 600 min
Histogram: 1 0 0 0 0 0 0 0 0 0
Nghost:    0 ave 0 max 0 min
Histogram: 1 0 0 0 0 0 0 0 0 0
Neighs:    66098 ave 66098 max 66098 min
Histogram: 1 0 0 0 0 0 0 0 0 0

Total # of neighbors = 66098
Ave neighs/atom = 110.163
Ave special neighs/atom = 10.4233
Neighbor list builds = 0
Dangerous builds = 0
write_dump all custom pysimm.dump.tmp id q x y z vx vy vz
quit
