

################################################################################
##################################    Init    ##################################
################################################################################
units           real
atom_style      full
pair_style      lj/cut/coul/long 12.0  12.0
kspace_style    pppm 1e-4
bond_style      harmonic
angle_style     harmonic
dihedral_style  fourier
improper_style  cvff
special_bonds   amber
pair_modify     mix arithmetic
read_data       temp.lmps
  orthogonal box = (-104.17 -104.17 -104.17) to (104.17 104.17 104.17)
  1 by 1 by 1 MPI processor grid
  reading atoms ...
  532 atoms
  reading velocities ...
  532 velocities
  scanning bonds ...
  3 = max bonds/atom
  scanning angles ...
  6 = max angles/atom
  scanning dihedrals ...
  24 = max dihedrals/atom
  scanning impropers ...
  2 = max impropers/atom
  reading bonds ...
  581 bonds
  reading angles ...
  1020 angles
  reading dihedrals ...
  1536 dihedrals
  reading impropers ...
  160 impropers
  4 = max # of 1-2 neighbors
  10 = max # of 1-3 neighbors
  19 = max # of 1-4 neighbors
  22 = max # of special neighbors
  special bonds CPU = 0.000550985 secs
  read_data CPU = 0.00772715 secs
################################################################################

min_style cg
minimize 1e-06 1e-06 1000000 10000000
WARNING: Using 'neigh_modify every 1 delay 0 check yes' setting during minimization (../min.cpp:190)
PPPM initialization ...
  using 12-bit tables for long-range coulomb (../kspace.cpp:332)
  G vector (1/distance) = 0.0879336
  grid = 16 16 16
  stencil order = 5
  estimated absolute RMS force accuracy = 0.0352085
  estimated relative force accuracy = 0.000106029
  using double precision KISS FFT
  3d grid and FFT values/proc = 9261 4096
Neighbor list info ...
  update every 1 steps, delay 0 steps, check yes
  max neighbors/atom: 2000, page size: 100000
  master list distance cutoff = 14
  ghost atom cutoff = 14
  binsize = 7, bins = 30 30 30
  1 neighbor lists, perpetual/occasional/extra = 1 0 0
  (1) pair lj/cut/coul/long, perpetual
      attributes: half, newton on
      pair build: half/bin/newton
      stencil: half/bin/3d/newton
      bin: standard
Per MPI rank memory allocation (min/avg/max) = 19.75 | 19.75 | 19.75 Mbytes
Step Temp E_pair E_mol TotEng Press 
       0     253.0654    353.80327    791.54599    1545.9037   -1.0089153 
      11     253.0654    352.32199    613.42019    1366.2967    1.6553619 
Loop time of 0.173248 on 1 procs for 11 steps with 532 atoms

99.8% CPU use with 1 MPI tasks x no OpenMP threads

Minimization stats:
  Stopping criterion = linesearch alpha is zero
  Energy initial, next-to-last, final = 
         1145.34925979      965.742187107      965.742187107
  Force two-norm initial, final = 727.354 31.7622
  Force max component initial, final = 393.996 8.73529
  Final line search alpha, max atom move = 8.79358e-12 7.68145e-11
  Iterations, force evaluations = 11 78

MPI task timing breakdown:
Section |  min time  |  avg time  |  max time  |%varavg| %total
---------------------------------------------------------------
Pair    | 0.062676   | 0.062676   | 0.062676   |   0.0 | 36.18
Bond    | 0.019817   | 0.019817   | 0.019817   |   0.0 | 11.44
Kspace  | 0.090035   | 0.090035   | 0.090035   |   0.0 | 51.97
Neigh   | 0          | 0          | 0          |   0.0 |  0.00
Comm    | 2.4319e-05 | 2.4319e-05 | 2.4319e-05 |   0.0 |  0.01
Output  | 0          | 0          | 0          |   0.0 |  0.00
Modify  | 0          | 0          | 0          |   0.0 |  0.00
Other   |            | 0.0006955  |            |       |  0.40

Nlocal:    532 ave 532 max 532 min
Histogram: 1 0 0 0 0 0 0 0 0 0
Nghost:    0 ave 0 max 0 min
Histogram: 1 0 0 0 0 0 0 0 0 0
Neighs:    22094 ave 22094 max 22094 min
Histogram: 1 0 0 0 0 0 0 0 0 0

Total # of neighbors = 22094
Ave neighs/atom = 41.5301
Ave special neighs/atom = 11.0789
Neighbor list builds = 0
Dangerous builds = 0
write_dump all custom pysimm.dump.tmp id q x y z vx vy vz
quit


################################################################################
##################################    Init    ##################################
################################################################################
units           real
atom_style      full
pair_style      lj/cut/coul/long 12.0  12.0
kspace_style    pppm 1e-4
bond_style      harmonic
angle_style     harmonic
dihedral_style  fourier
improper_style  cvff
special_bonds   amber
pair_modify     mix arithmetic
read_data       temp.lmps
  orthogonal box = (-131.247 -131.247 -131.247) to (131.247 131.247 131.247)
  1 by 1 by 1 MPI processor grid
  reading atoms ...
  585 atoms
  reading velocities ...
  585 velocities
  scanning bonds ...
  3 = max bonds/atom
  scanning angles ...
  6 = max angles/atom
  scanning dihedrals ...
  24 = max dihedrals/atom
  scanning impropers ...
  2 = max impropers/atom
  reading bonds ...
  639 bonds
  reading angles ...
  1122 angles
  reading dihedrals ...
  1690 dihedrals
  reading impropers ...
  176 impropers
  4 = max # of 1-2 neighbors
  10 = max # of 1-3 neighbors
  19 = max # of 1-4 neighbors
  22 = max # of special neighbors
  special bonds CPU = 0.000607967 secs
  read_data CPU = 0.00876403 secs
################################################################################

min_style cg
minimize 1e-06 1e-06 1000000 10000000
WARNING: Using 'neigh_modify every 1 delay 0 check yes' setting during minimization (../min.cpp:190)
PPPM initialization ...
WARNING: System is not charge neutral, net charge = -1.1e-05 (../kspace.cpp:313)
  using 12-bit tables for long-range coulomb (../kspace.cpp:332)
  G vector (1/distance) = 0.0733832
  grid = 16 16 16
  stencil order = 5
  estimated absolute RMS force accuracy = 0.0366179
  estimated relative force accuracy = 0.000110274
  using double precision KISS FFT
  3d grid and FFT values/proc = 9261 4096
Neighbor list info ...
  update every 1 steps, delay 0 steps, check yes
  max neighbors/atom: 2000, page size: 100000
  master list distance cutoff = 14
  ghost atom cutoff = 14
  binsize = 7, bins = 38 38 38
  1 neighbor lists, perpetual/occasional/extra = 1 0 0
  (1) pair lj/cut/coul/long, perpetual
      attributes: half, newton on
      pair build: half/bin/newton
      stencil: half/bin/3d/newton
      bin: standard
Per MPI rank memory allocation (min/avg/max) = 19.9 | 19.9 | 19.9 Mbytes
Step Temp E_pair E_mol TotEng Press 
       0    879.13252    373.52016    935.78529    2839.6932    1.1147808 
       9    879.13252    371.13533    755.46009    2656.9832    2.5535587 
Loop time of 0.203871 on 1 procs for 9 steps with 585 atoms

100.0% CPU use with 1 MPI tasks x no OpenMP threads

Minimization stats:
  Stopping criterion = linesearch alpha is zero
  Energy initial, next-to-last, final = 
         1309.30544895      1126.59542205      1126.59542205
  Force two-norm initial, final = 726.967 37.3699
  Force max component initial, final = 286.083 7.00302
  Final line search alpha, max atom move = 8.38551e-12 5.87239e-11
  Iterations, force evaluations = 9 75

MPI task timing breakdown:
Section |  min time  |  avg time  |  max time  |%varavg| %total
---------------------------------------------------------------
Pair    | 0.086792   | 0.086792   | 0.086792   |   0.0 | 42.57
Bond    | 0.021969   | 0.021969   | 0.021969   |   0.0 | 10.78
Kspace  | 0.094291   | 0.094291   | 0.094291   |   0.0 | 46.25
Neigh   | 0          | 0          | 0          |   0.0 |  0.00
Comm    | 5.0068e-05 | 5.0068e-05 | 5.0068e-05 |   0.0 |  0.02
Output  | 0          | 0          | 0          |   0.0 |  0.00
Modify  | 0          | 0          | 0          |   0.0 |  0.00
Other   |            | 0.0007689  |            |       |  0.38

Nlocal:    585 ave 585 max 585 min
Histogram: 1 0 0 0 0 0 0 0 0 0
Nghost:    0 ave 0 max 0 min
Histogram: 1 0 0 0 0 0 0 0 0 0
Neighs:    29743 ave 29743 max 29743 min
Histogram: 1 0 0 0 0 0 0 0 0 0

Total # of neighbors = 29743
Ave neighs/atom = 50.8427
Ave special neighs/atom = 11.0838
Neighbor list builds = 0
Dangerous builds = 0
write_dump all custom pysimm.dump.tmp id q x y z vx vy vz
quit


################################################################################
##################################    Init    ##################################
################################################################################
units           real
atom_style      full
pair_style      lj/cut/coul/long 12.0  12.0
kspace_style    pppm 1e-4
bond_style      harmonic
angle_style     harmonic
dihedral_style  fourier
improper_style  cvff
special_bonds   amber
pair_modify     mix arithmetic
read_data       temp.lmps
  orthogonal box = (-135.483 -135.483 -135.483) to (135.483 135.483 135.483)
  1 by 1 by 1 MPI processor grid
  reading atoms ...
  638 atoms
  reading velocities ...
  638 velocities
  scanning bonds ...
  3 = max bonds/atom
  scanning angles ...
  6 = max angles/atom
  scanning dihedrals ...
  24 = max dihedrals/atom
  scanning impropers ...
  2 = max impropers/atom
  reading bonds ...
  697 bonds
  reading angles ...
  1224 angles
  reading dihedrals ...
  1844 dihedrals
  reading impropers ...
  192 impropers
  4 = max # of 1-2 neighbors
  10 = max # of 1-3 neighbors
  19 = max # of 1-4 neighbors
  22 = max # of special neighbors
  special bonds CPU = 0.000622034 secs
  read_data CPU = 0.00869083 secs
################################################################################

min_style cg
minimize 1e-06 1e-06 1000000 10000000
WARNING: Using 'neigh_modify every 1 delay 0 check yes' setting during minimization (../min.cpp:190)
PPPM initialization ...
WARNING: System is not charge neutral, net charge = -1.2e-05 (../kspace.cpp:313)
  using 12-bit tables for long-range coulomb (../kspace.cpp:332)
  G vector (1/distance) = 0.0786002
  grid = 18 18 18
  stencil order = 5
  estimated absolute RMS force accuracy = 0.0325392
  estimated relative force accuracy = 9.79907e-05
  using double precision KISS FFT
  3d grid and FFT values/proc = 12167 5832
Neighbor list info ...
  update every 1 steps, delay 0 steps, check yes
  max neighbors/atom: 2000, page size: 100000
  master list distance cutoff = 14
  ghost atom cutoff = 14
  binsize = 7, bins = 39 39 39
  1 neighbor lists, perpetual/occasional/extra = 1 0 0
  (1) pair lj/cut/coul/long, perpetual
      attributes: half, newton on
      pair build: half/bin/newton
      stencil: half/bin/3d/newton
      bin: standard
Per MPI rank memory allocation (min/avg/max) = 20.19 | 20.19 | 20.19 Mbytes
Step Temp E_pair E_mol TotEng Press 
       0    1419.0777    439.26883    1121.9862    4255.7657    4.2873568 
      20    1419.0777    439.96553    920.62514    4055.1013     5.769646 
Loop time of 0.311031 on 1 procs for 20 steps with 638 atoms

100.0% CPU use with 1 MPI tasks x no OpenMP threads

Minimization stats:
  Stopping criterion = linesearch alpha is zero
  Energy initial, next-to-last, final = 
         1561.25501499      1360.59066236      1360.59066236
  Force two-norm initial, final = 728.652 55.282
  Force max component initial, final = 386.006 15.8348
  Final line search alpha, max atom move = 2.10776e-12 3.33759e-11
  Iterations, force evaluations = 20 96

MPI task timing breakdown:
Section |  min time  |  avg time  |  max time  |%varavg| %total
---------------------------------------------------------------
Pair    | 0.1217     | 0.1217     | 0.1217     |   0.0 | 39.13
Bond    | 0.029647   | 0.029647   | 0.029647   |   0.0 |  9.53
Kspace  | 0.15854    | 0.15854    | 0.15854    |   0.0 | 50.97
Neigh   | 0          | 0          | 0          |   0.0 |  0.00
Comm    | 2.5749e-05 | 2.5749e-05 | 2.5749e-05 |   0.0 |  0.01
Output  | 0          | 0          | 0          |   0.0 |  0.00
Modify  | 0          | 0          | 0          |   0.0 |  0.00
Other   |            | 0.001116   |            |       |  0.36

Nlocal:    638 ave 638 max 638 min
Histogram: 1 0 0 0 0 0 0 0 0 0
Nghost:    0 ave 0 max 0 min
Histogram: 1 0 0 0 0 0 0 0 0 0
Neighs:    36700 ave 36700 max 36700 min
Histogram: 1 0 0 0 0 0 0 0 0 0

Total # of neighbors = 36700
Ave neighs/atom = 57.5235
Ave special neighs/atom = 11.0878
Neighbor list builds = 0
Dangerous builds = 0
write_dump all custom pysimm.dump.tmp id q x y z vx vy vz
quit


################################################################################
##################################    Init    ##################################
################################################################################
units           real
atom_style      full
pair_style      lj/cut/coul/long 12.0  12.0
kspace_style    pppm 1e-4
bond_style      harmonic
angle_style     harmonic
dihedral_style  fourier
improper_style  cvff
special_bonds   amber
pair_modify     mix arithmetic
read_data       temp.lmps
  orthogonal box = (-139.47 -139.47 -139.47) to (139.47 139.47 139.47)
  1 by 1 by 1 MPI processor grid
  reading atoms ...
  691 atoms
  reading velocities ...
  691 velocities
  scanning bonds ...
  3 = max bonds/atom
  scanning angles ...
  6 = max angles/atom
  scanning dihedrals ...
  24 = max dihedrals/atom
  scanning impropers ...
  2 = max impropers/atom
  reading bonds ...
  755 bonds
  reading angles ...
  1326 angles
  reading dihedrals ...
  1998 dihedrals
  reading impropers ...
  208 impropers
  4 = max # of 1-2 neighbors
  10 = max # of 1-3 neighbors
  19 = max # of 1-4 neighbors
  22 = max # of special neighbors
  special bonds CPU = 0.000659943 secs
  read_data CPU = 0.00931597 secs
################################################################################

min_style cg
minimize 1e-06 1e-06 1000000 10000000
WARNING: Using 'neigh_modify every 1 delay 0 check yes' setting during minimization (../min.cpp:190)
PPPM initialization ...
WARNING: System is not charge neutral, net charge = -1.3e-05 (../kspace.cpp:313)
  using 12-bit tables for long-range coulomb (../kspace.cpp:332)
  G vector (1/distance) = 0.0768134
  grid = 18 18 18
  stencil order = 5
  estimated absolute RMS force accuracy = 0.0337513
  estimated relative force accuracy = 0.000101641
  using double precision KISS FFT
  3d grid and FFT values/proc = 12167 5832
Neighbor list info ...
  update every 1 steps, delay 0 steps, check yes
  max neighbors/atom: 2000, page size: 100000
  master list distance cutoff = 14
  ghost atom cutoff = 14
  binsize = 7, bins = 40 40 40
  1 neighbor lists, perpetual/occasional/extra = 1 0 0
  (1) pair lj/cut/coul/long, perpetual
      attributes: half, newton on
      pair build: half/bin/newton
      stencil: half/bin/3d/newton
      bin: standard
Per MPI rank memory allocation (min/avg/max) = 20.22 | 20.22 | 20.22 Mbytes
Step Temp E_pair E_mol TotEng Press 
       0    1195.4989    464.70501    1209.2378    4132.7958    4.2625784 
      39    1195.4989    440.82417    979.04063    3878.7178    4.8382494 
Loop time of 0.474029 on 1 procs for 39 steps with 691 atoms

100.0% CPU use with 1 MPI tasks x no OpenMP threads

Minimization stats:
  Stopping criterion = linesearch alpha is zero
  Energy initial, next-to-last, final = 
         1673.94279046      1419.86479341      1419.86479341
  Force two-norm initial, final = 730.033 63.7022
  Force max component initial, final = 393.531 12.7332
  Final line search alpha, max atom move = 1.84222e-12 2.34574e-11
  Iterations, force evaluations = 39 134

MPI task timing breakdown:
Section |  min time  |  avg time  |  max time  |%varavg| %total
---------------------------------------------------------------
Pair    | 0.2034     | 0.2034     | 0.2034     |   0.0 | 42.91
Bond    | 0.044299   | 0.044299   | 0.044299   |   0.0 |  9.35
Kspace  | 0.22306    | 0.22306    | 0.22306    |   0.0 | 47.06
Neigh   | 0.0014241  | 0.0014241  | 0.0014241  |   0.0 |  0.30
Comm    | 6.7234e-05 | 6.7234e-05 | 6.7234e-05 |   0.0 |  0.01
Output  | 0          | 0          | 0          |   0.0 |  0.00
Modify  | 0          | 0          | 0          |   0.0 |  0.00
Other   |            | 0.001782   |            |       |  0.38

Nlocal:    691 ave 691 max 691 min
Histogram: 1 0 0 0 0 0 0 0 0 0
Nghost:    0 ave 0 max 0 min
Histogram: 1 0 0 0 0 0 0 0 0 0
Neighs:    43865 ave 43865 max 43865 min
Histogram: 1 0 0 0 0 0 0 0 0 0

Total # of neighbors = 43865
Ave neighs/atom = 63.4805
Ave special neighs/atom = 11.0912
Neighbor list builds = 1
Dangerous builds = 0
write_dump all custom pysimm.dump.tmp id q x y z vx vy vz
quit


################################################################################
##################################    Init    ##################################
################################################################################
units           real
atom_style      full
pair_style      lj/cut/coul/long 12.0  12.0
kspace_style    pppm 1e-4
bond_style      harmonic
angle_style     harmonic
dihedral_style  fourier
improper_style  cvff
special_bonds   amber
pair_modify     mix arithmetic
read_data       temp.lmps
  orthogonal box = (-143.242 -143.242 -143.242) to (143.242 143.242 143.242)
  1 by 1 by 1 MPI processor grid
  reading atoms ...
  744 atoms
  reading velocities ...
  744 velocities
  scanning bonds ...
  3 = max bonds/atom
  scanning angles ...
  6 = max angles/atom
  scanning dihedrals ...
  24 = max dihedrals/atom
  scanning impropers ...
  2 = max impropers/atom
  reading bonds ...
  813 bonds
  reading angles ...
  1428 angles
  reading dihedrals ...
  2152 dihedrals
  reading impropers ...
  224 impropers
  4 = max # of 1-2 neighbors
  10 = max # of 1-3 neighbors
  19 = max # of 1-4 neighbors
  22 = max # of special neighbors
  special bonds CPU = 0.000696898 secs
  read_data CPU = 0.00966811 secs
################################################################################

min_style cg
minimize 1e-06 1e-06 1000000 10000000
WARNING: Using 'neigh_modify every 1 delay 0 check yes' setting during minimization (../min.cpp:190)
PPPM initialization ...
WARNING: System is not charge neutral, net charge = -1.4e-05 (../kspace.cpp:313)
  using 12-bit tables for long-range coulomb (../kspace.cpp:332)
  G vector (1/distance) = 0.0751944
  grid = 18 18 18
  stencil order = 5
  estimated absolute RMS force accuracy = 0.0348678
  estimated relative force accuracy = 0.000105003
  using double precision KISS FFT
  3d grid and FFT values/proc = 12167 5832
Neighbor list info ...
  update every 1 steps, delay 0 steps, check yes
  max neighbors/atom: 2000, page size: 100000
  master list distance cutoff = 14
  ghost atom cutoff = 14
  binsize = 7, bins = 41 41 41
  1 neighbor lists, perpetual/occasional/extra = 1 0 0
  (1) pair lj/cut/coul/long, perpetual
      attributes: half, newton on
      pair build: half/bin/newton
      stencil: half/bin/3d/newton
      bin: standard
Per MPI rank memory allocation (min/avg/max) = 20.25 | 20.25 | 20.25 Mbytes
Step Temp E_pair E_mol TotEng Press 
       0    1179.0093    497.98671    1278.8135    4388.0015    4.8651081 
      22    1179.0093    470.39472    1058.9097    4140.5057    5.4146258 
Loop time of 0.426163 on 1 procs for 22 steps with 744 atoms

99.9% CPU use with 1 MPI tasks x no OpenMP threads

Minimization stats:
  Stopping criterion = linesearch alpha is zero
  Energy initial, next-to-last, final = 
         1776.80022926      1529.30438434      1529.30438434
  Force two-norm initial, final = 737.281 78.2153
  Force max component initial, final = 348.976 14.2133
  Final line search alpha, max atom move = 1.16891e-12 1.66142e-11
  Iterations, force evaluations = 22 102

MPI task timing breakdown:
Section |  min time  |  avg time  |  max time  |%varavg| %total
---------------------------------------------------------------
Pair    | 0.21139    | 0.21139    | 0.21139    |   0.0 | 49.60
Bond    | 0.037268   | 0.037268   | 0.037268   |   0.0 |  8.75
Kspace  | 0.17611    | 0.17611    | 0.17611    |   0.0 | 41.32
Neigh   | 0          | 0          | 0          |   0.0 |  0.00
Comm    | 4.5061e-05 | 4.5061e-05 | 4.5061e-05 |   0.0 |  0.01
Output  | 0          | 0          | 0          |   0.0 |  0.00
Modify  | 0          | 0          | 0          |   0.0 |  0.00
Other   |            | 0.001354   |            |       |  0.32

Nlocal:    744 ave 744 max 744 min
Histogram: 1 0 0 0 0 0 0 0 0 0
Nghost:    0 ave 0 max 0 min
Histogram: 1 0 0 0 0 0 0 0 0 0
Neighs:    60733 ave 60733 max 60733 min
Histogram: 1 0 0 0 0 0 0 0 0 0

Total # of neighbors = 60733
Ave neighs/atom = 81.6304
Ave special neighs/atom = 11.0941
Neighbor list builds = 0
Dangerous builds = 0
write_dump all custom pysimm.dump.tmp id q x y z vx vy vz
quit


################################################################################
##################################    Init    ##################################
################################################################################
units           real
atom_style      full
pair_style      lj/cut/coul/long 12.0  12.0
kspace_style    pppm 1e-4
bond_style      harmonic
angle_style     harmonic
dihedral_style  fourier
improper_style  cvff
special_bonds   amber
pair_modify     mix arithmetic
read_data       temp.lmps
  orthogonal box = (-146.824 -146.824 -146.824) to (146.824 146.824 146.824)
  1 by 1 by 1 MPI processor grid
  reading atoms ...
  797 atoms
  reading velocities ...
  797 velocities
  scanning bonds ...
  3 = max bonds/atom
  scanning angles ...
  6 = max angles/atom
  scanning dihedrals ...
  24 = max dihedrals/atom
  scanning impropers ...
  2 = max impropers/atom
  reading bonds ...
  871 bonds
  reading angles ...
  1530 angles
  reading dihedrals ...
  2306 dihedrals
  reading impropers ...
  240 impropers
  4 = max # of 1-2 neighbors
  10 = max # of 1-3 neighbors
  19 = max # of 1-4 neighbors
  22 = max # of special neighbors
  special bonds CPU = 0.000749111 secs
  read_data CPU = 0.0101068 secs
################################################################################

min_style cg
minimize 1e-06 1e-06 1000000 10000000
WARNING: Using 'neigh_modify every 1 delay 0 check yes' setting during minimization (../min.cpp:190)
PPPM initialization ...
WARNING: System is not charge neutral, net charge = -1.5e-05 (../kspace.cpp:313)
  using 12-bit tables for long-range coulomb (../kspace.cpp:332)
  G vector (1/distance) = 0.0737168
  grid = 18 18 18
  stencil order = 5
  estimated absolute RMS force accuracy = 0.0359012
  estimated relative force accuracy = 0.000108115
  using double precision KISS FFT
  3d grid and FFT values/proc = 12167 5832
Neighbor list info ...
  update every 1 steps, delay 0 steps, check yes
  max neighbors/atom: 2000, page size: 100000
  master list distance cutoff = 14
  ghost atom cutoff = 14
  binsize = 7, bins = 42 42 42
  1 neighbor lists, perpetual/occasional/extra = 1 0 0
  (1) pair lj/cut/coul/long, perpetual
      attributes: half, newton on
      pair build: half/bin/newton
      stencil: half/bin/3d/newton
      bin: standard
Per MPI rank memory allocation (min/avg/max) = 20.28 | 20.28 | 20.28 Mbytes
Step Temp E_pair E_mol TotEng Press 
       0    1023.4097    538.48255    1267.4046    4234.1567    3.4603096 
      16    1023.4097    536.89267    1071.8506    4037.0129    4.5746753 
Loop time of 0.349769 on 1 procs for 16 steps with 797 atoms

100.1% CPU use with 1 MPI tasks x no OpenMP threads

Minimization stats:
  Stopping criterion = linesearch alpha is zero
  Energy initial, next-to-last, final = 
         1805.88717394      1608.74331673      1608.74331673
  Force two-norm initial, final = 728.716 50.2278
  Force max component initial, final = 359.193 9.73452
  Final line search alpha, max atom move = 4.20313e-12 4.09154e-11
  Iterations, force evaluations = 16 89

MPI task timing breakdown:
Section |  min time  |  avg time  |  max time  |%varavg| %total
---------------------------------------------------------------
Pair    | 0.15749    | 0.15749    | 0.15749    |   0.0 | 45.03
Bond    | 0.033917   | 0.033917   | 0.033917   |   0.0 |  9.70
Kspace  | 0.15714    | 0.15714    | 0.15714    |   0.0 | 44.93
Neigh   | 0          | 0          | 0          |   0.0 |  0.00
Comm    | 2.5749e-05 | 2.5749e-05 | 2.5749e-05 |   0.0 |  0.01
Output  | 0          | 0          | 0          |   0.0 |  0.00
Modify  | 0          | 0          | 0          |   0.0 |  0.00
Other   |            | 0.001193   |            |       |  0.34

Nlocal:    797 ave 797 max 797 min
Histogram: 1 0 0 0 0 0 0 0 0 0
Nghost:    0 ave 0 max 0 min
Histogram: 1 0 0 0 0 0 0 0 0 0
Neighs:    51337 ave 51337 max 51337 min
Histogram: 1 0 0 0 0 0 0 0 0 0

Total # of neighbors = 51337
Ave neighs/atom = 64.4128
Ave special neighs/atom = 11.0966
Neighbor list builds = 0
Dangerous builds = 0
write_dump all custom pysimm.dump.tmp id q x y z vx vy vz
quit


################################################################################
##################################    Init    ##################################
################################################################################
units           real
atom_style      full
pair_style      lj/cut/coul/long 12.0  12.0
kspace_style    pppm 1e-4
bond_style      harmonic
angle_style     harmonic
dihedral_style  fourier
improper_style  cvff
special_bonds   amber
pair_modify     mix arithmetic
read_data       temp.lmps
  orthogonal box = (-150.24 -150.24 -150.24) to (150.24 150.24 150.24)
  1 by 1 by 1 MPI processor grid
  reading atoms ...
  850 atoms
  reading velocities ...
  850 velocities
  scanning bonds ...
  3 = max bonds/atom
  scanning angles ...
  6 = max angles/atom
  scanning dihedrals ...
  24 = max dihedrals/atom
  scanning impropers ...
  2 = max impropers/atom
  reading bonds ...
  929 bonds
  reading angles ...
  1632 angles
  reading dihedrals ...
  2460 dihedrals
  reading impropers ...
  256 impropers
  4 = max # of 1-2 neighbors
  10 = max # of 1-3 neighbors
  19 = max # of 1-4 neighbors
  22 = max # of special neighbors
  special bonds CPU = 0.000797033 secs
  read_data CPU = 0.010695 secs
################################################################################

min_style cg
minimize 1e-06 1e-06 1000000 10000000
WARNING: Using 'neigh_modify every 1 delay 0 check yes' setting during minimization (../min.cpp:190)
PPPM initialization ...
WARNING: System is not charge neutral, net charge = -1.6e-05 (../kspace.cpp:313)
  using 12-bit tables for long-range coulomb (../kspace.cpp:332)
  G vector (1/distance) = 0.0723597
  grid = 18 18 18
  stencil order = 5
  estimated absolute RMS force accuracy = 0.0368614
  estimated relative force accuracy = 0.000111007
  using double precision KISS FFT
  3d grid and FFT values/proc = 12167 5832
Neighbor list info ...
  update every 1 steps, delay 0 steps, check yes
  max neighbors/atom: 2000, page size: 100000
  master list distance cutoff = 14
  ghost atom cutoff = 14
  binsize = 7, bins = 43 43 43
  1 neighbor lists, perpetual/occasional/extra = 1 0 0
  (1) pair lj/cut/coul/long, perpetual
      attributes: half, newton on
      pair build: half/bin/newton
      stencil: half/bin/3d/newton
      bin: standard
Per MPI rank memory allocation (min/avg/max) = 20.31 | 20.31 | 20.31 Mbytes
Step Temp E_pair E_mol TotEng Press 
       0    1211.4244    576.95841    1425.2368    5067.9563    4.3995609 
      29    1211.4244    570.33961     1182.703    4818.8038     4.961234 
Loop time of 0.467486 on 1 procs for 29 steps with 850 atoms

99.9% CPU use with 1 MPI tasks x no OpenMP threads

Minimization stats:
  Stopping criterion = linesearch alpha is zero
  Energy initial, next-to-last, final = 
         2002.19523228       1753.0426503       1753.0426503
  Force two-norm initial, final = 733.764 73.7599
  Force max component initial, final = 383.049 13.0934
  Final line search alpha, max atom move = 2.09064e-12 2.73737e-11
  Iterations, force evaluations = 29 114

MPI task timing breakdown:
Section |  min time  |  avg time  |  max time  |%varavg| %total
---------------------------------------------------------------
Pair    | 0.21531    | 0.21531    | 0.21531    |   0.0 | 46.06
Bond    | 0.046275   | 0.046275   | 0.046275   |   0.0 |  9.90
Kspace  | 0.20229    | 0.20229    | 0.20229    |   0.0 | 43.27
Neigh   | 0.00177    | 0.00177    | 0.00177    |   0.0 |  0.38
Comm    | 5.7936e-05 | 5.7936e-05 | 5.7936e-05 |   0.0 |  0.01
Output  | 0          | 0          | 0          |   0.0 |  0.00
Modify  | 0          | 0          | 0          |   0.0 |  0.00
Other   |            | 0.001775   |            |       |  0.38

Nlocal:    850 ave 850 max 850 min
Histogram: 1 0 0 0 0 0 0 0 0 0
Nghost:    0 ave 0 max 0 min
Histogram: 1 0 0 0 0 0 0 0 0 0
Neighs:    56294 ave 56294 max 56294 min
Histogram: 1 0 0 0 0 0 0 0 0 0

Total # of neighbors = 56294
Ave neighs/atom = 66.2282
Ave special neighs/atom = 11.0988
Neighbor list builds = 1
Dangerous builds = 0
write_dump all custom pysimm.dump.tmp id q x y z vx vy vz
quit


################################################################################
##################################    Init    ##################################
################################################################################
units           real
atom_style      full
pair_style      lj/cut/coul/long 12.0  12.0
kspace_style    pppm 1e-4
bond_style      harmonic
angle_style     harmonic
dihedral_style  fourier
improper_style  cvff
special_bonds   amber
pair_modify     mix arithmetic
read_data       temp.lmps
  orthogonal box = (-153.507 -153.507 -153.507) to (153.507 153.507 153.507)
  1 by 1 by 1 MPI processor grid
  reading atoms ...
  903 atoms
  reading velocities ...
  903 velocities
  scanning bonds ...
  3 = max bonds/atom
  scanning angles ...
  6 = max angles/atom
  scanning dihedrals ...
  24 = max dihedrals/atom
  scanning impropers ...
  2 = max impropers/atom
  reading bonds ...
  987 bonds
  reading angles ...
  1734 angles
  reading dihedrals ...
  2614 dihedrals
  reading impropers ...
  272 impropers
  4 = max # of 1-2 neighbors
  10 = max # of 1-3 neighbors
  19 = max # of 1-4 neighbors
  22 = max # of special neighbors
  special bonds CPU = 0.000815868 secs
  read_data CPU = 0.011013 secs
################################################################################

min_style cg
minimize 1e-06 1e-06 1000000 10000000
WARNING: Using 'neigh_modify every 1 delay 0 check yes' setting during minimization (../min.cpp:190)
PPPM initialization ...
WARNING: System is not charge neutral, net charge = -1.7e-05 (../kspace.cpp:313)
  using 12-bit tables for long-range coulomb (../kspace.cpp:332)
  G vector (1/distance) = 0.0773943
  grid = 20 20 20
  stencil order = 5
  estimated absolute RMS force accuracy = 0.0330103
  estimated relative force accuracy = 9.94095e-05
  using double precision KISS FFT
  3d grid and FFT values/proc = 15625 8000
Neighbor list info ...
  update every 1 steps, delay 0 steps, check yes
  max neighbors/atom: 2000, page size: 100000
  master list distance cutoff = 14
  ghost atom cutoff = 14
  binsize = 7, bins = 44 44 44
  1 neighbor lists, perpetual/occasional/extra = 1 0 0
  (1) pair lj/cut/coul/long, perpetual
      attributes: half, newton on
      pair build: half/bin/newton
      stencil: half/bin/3d/newton
      bin: standard
Per MPI rank memory allocation (min/avg/max) = 20.66 | 20.66 | 20.66 Mbytes
Step Temp E_pair E_mol TotEng Press 
       0    953.79213    624.28302    1419.0751    4607.8101    3.0890755 
       7    953.79213    621.03931    1237.5224    4423.0137    4.0332015 
Loop time of 0.320009 on 1 procs for 7 steps with 903 atoms

100.0% CPU use with 1 MPI tasks x no OpenMP threads

Minimization stats:
  Stopping criterion = linesearch alpha is zero
  Energy initial, next-to-last, final = 
         2043.35811117      1858.56166059      1858.56166059
  Force two-norm initial, final = 729.096 52.1406
  Force max component initial, final = 281.553 14.3018
  Final line search alpha, max atom move = 3.59909e-12 5.14733e-11
  Iterations, force evaluations = 7 73

MPI task timing breakdown:
Section |  min time  |  avg time  |  max time  |%varavg| %total
---------------------------------------------------------------
Pair    | 0.1343     | 0.1343     | 0.1343     |   0.0 | 41.97
Bond    | 0.031988   | 0.031988   | 0.031988   |   0.0 | 10.00
Kspace  | 0.15272    | 0.15272    | 0.15272    |   0.0 | 47.72
Neigh   | 0          | 0          | 0          |   0.0 |  0.00
Comm    | 3.0279e-05 | 3.0279e-05 | 3.0279e-05 |   0.0 |  0.01
Output  | 0          | 0          | 0          |   0.0 |  0.00
Modify  | 0          | 0          | 0          |   0.0 |  0.00
Other   |            | 0.0009682  |            |       |  0.30

Nlocal:    903 ave 903 max 903 min
Histogram: 1 0 0 0 0 0 0 0 0 0
Nghost:    0 ave 0 max 0 min
Histogram: 1 0 0 0 0 0 0 0 0 0
Neighs:    52249 ave 52249 max 52249 min
Histogram: 1 0 0 0 0 0 0 0 0 0

Total # of neighbors = 52249
Ave neighs/atom = 57.8616
Ave special neighs/atom = 11.1008
Neighbor list builds = 0
Dangerous builds = 0
write_dump all custom pysimm.dump.tmp id q x y z vx vy vz
quit


################################################################################
##################################    Init    ##################################
################################################################################
units           real
atom_style      full
pair_style      lj/cut/coul/long 12.0  12.0
kspace_style    pppm 1e-4
bond_style      harmonic
angle_style     harmonic
dihedral_style  fourier
improper_style  cvff
special_bonds   amber
pair_modify     mix arithmetic
read_data       temp.lmps
  orthogonal box = (-156.64 -156.64 -156.64) to (156.64 156.64 156.64)
  1 by 1 by 1 MPI processor grid
  reading atoms ...
  956 atoms
  reading velocities ...
  956 velocities
  scanning bonds ...
  3 = max bonds/atom
  scanning angles ...
  6 = max angles/atom
  scanning dihedrals ...
  24 = max dihedrals/atom
  scanning impropers ...
  2 = max impropers/atom
  reading bonds ...
  1045 bonds
  reading angles ...
  1836 angles
  reading dihedrals ...
  2768 dihedrals
  reading impropers ...
  288 impropers
  4 = max # of 1-2 neighbors
  10 = max # of 1-3 neighbors
  19 = max # of 1-4 neighbors
  22 = max # of special neighbors
  special bonds CPU = 0.000829935 secs
  read_data CPU = 0.011415 secs
################################################################################

min_style cg
minimize 1e-06 1e-06 1000000 10000000
WARNING: Using 'neigh_modify every 1 delay 0 check yes' setting during minimization (../min.cpp:190)
PPPM initialization ...
WARNING: System is not charge neutral, net charge = -1.8e-05 (../kspace.cpp:313)
  using 12-bit tables for long-range coulomb (../kspace.cpp:332)
  G vector (1/distance) = 0.0761592
  grid = 20 20 20
  stencil order = 5
  estimated absolute RMS force accuracy = 0.0338658
  estimated relative force accuracy = 0.000101986
  using double precision KISS FFT
  3d grid and FFT values/proc = 15625 8000
Neighbor list info ...
  update every 1 steps, delay 0 steps, check yes
  max neighbors/atom: 2000, page size: 100000
  master list distance cutoff = 14
  ghost atom cutoff = 14
  binsize = 7, bins = 45 45 45
  1 neighbor lists, perpetual/occasional/extra = 1 0 0
  (1) pair lj/cut/coul/long, perpetual
      attributes: half, newton on
      pair build: half/bin/newton
      stencil: half/bin/3d/newton
      bin: standard
Per MPI rank memory allocation (min/avg/max) = 20.69 | 20.69 | 20.69 Mbytes
Step Temp E_pair E_mol TotEng Press 
       0    946.36416    670.28867    1422.5149    4786.7935    3.4284932 
      24    946.36416    666.69861    1205.9803    4566.6688    4.1371322 
Loop time of 0.449231 on 1 procs for 24 steps with 956 atoms

99.9% CPU use with 1 MPI tasks x no OpenMP threads

Minimization stats:
  Stopping criterion = linesearch alpha is zero
  Energy initial, next-to-last, final = 
         2092.80357932      1872.67893549      1872.67893549
  Force two-norm initial, final = 730.999 63.1179
  Force max component initial, final = 343.574 13.9052
  Final line search alpha, max atom move = 3.01865e-12 4.1975e-11
  Iterations, force evaluations = 24 105

MPI task timing breakdown:
Section |  min time  |  avg time  |  max time  |%varavg| %total
---------------------------------------------------------------
Pair    | 0.17467    | 0.17467    | 0.17467    |   0.0 | 38.88
Bond    | 0.048515   | 0.048515   | 0.048515   |   0.0 | 10.80
Kspace  | 0.22423    | 0.22423    | 0.22423    |   0.0 | 49.92
Neigh   | 0          | 0          | 0          |   0.0 |  0.00
Comm    | 5.126e-05  | 5.126e-05  | 5.126e-05  |   0.0 |  0.01
Output  | 0          | 0          | 0          |   0.0 |  0.00
Modify  | 0          | 0          | 0          |   0.0 |  0.00
Other   |            | 0.001763   |            |       |  0.39

Nlocal:    956 ave 956 max 956 min
Histogram: 1 0 0 0 0 0 0 0 0 0
Nghost:    0 ave 0 max 0 min
Histogram: 1 0 0 0 0 0 0 0 0 0
Neighs:    46410 ave 46410 max 46410 min
Histogram: 1 0 0 0 0 0 0 0 0 0

Total # of neighbors = 46410
Ave neighs/atom = 48.546
Ave special neighs/atom = 11.1025
Neighbor list builds = 0
Dangerous builds = 0
write_dump all custom pysimm.dump.tmp id q x y z vx vy vz
quit


################################################################################
##################################    Init    ##################################
################################################################################
units           real
atom_style      full
pair_style      lj/cut/coul/long 12.0  12.0
kspace_style    pppm 1e-4
bond_style      harmonic
angle_style     harmonic
dihedral_style  fourier
improper_style  cvff
special_bonds   amber
pair_modify     mix arithmetic
read_data       temp.lmps
  orthogonal box = (-159.654 -159.654 -159.654) to (159.654 159.654 159.654)
  1 by 1 by 1 MPI processor grid
  reading atoms ...
  1009 atoms
  reading velocities ...
  1009 velocities
  scanning bonds ...
  3 = max bonds/atom
  scanning angles ...
  6 = max angles/atom
  scanning dihedrals ...
  24 = max dihedrals/atom
  scanning impropers ...
  2 = max impropers/atom
  reading bonds ...
  1103 bonds
  reading angles ...
  1938 angles
  reading dihedrals ...
  2922 dihedrals
  reading impropers ...
  304 impropers
  4 = max # of 1-2 neighbors
  10 = max # of 1-3 neighbors
  19 = max # of 1-4 neighbors
  22 = max # of special neighbors
  special bonds CPU = 0.000902176 secs
  read_data CPU = 0.012049 secs
################################################################################

min_style cg
minimize 1e-06 1e-06 1000000 10000000
WARNING: Using 'neigh_modify every 1 delay 0 check yes' setting during minimization (../min.cpp:190)
PPPM initialization ...
WARNING: System is not charge neutral, net charge = -1.9e-05 (../kspace.cpp:313)
  using 12-bit tables for long-range coulomb (../kspace.cpp:332)
  G vector (1/distance) = 0.0750073
  grid = 20 20 20
  stencil order = 5
  estimated absolute RMS force accuracy = 0.0346729
  estimated relative force accuracy = 0.000104416
  using double precision KISS FFT
  3d grid and FFT values/proc = 15625 8000
Neighbor list info ...
  update every 1 steps, delay 0 steps, check yes
  max neighbors/atom: 2000, page size: 100000
  master list distance cutoff = 14
  ghost atom cutoff = 14
  binsize = 7, bins = 46 46 46
  1 neighbor lists, perpetual/occasional/extra = 1 0 0
  (1) pair lj/cut/coul/long, perpetual
      attributes: half, newton on
      pair build: half/bin/newton
      stencil: half/bin/3d/newton
      bin: standard
Per MPI rank memory allocation (min/avg/max) = 20.73 | 20.73 | 20.73 Mbytes
Step Temp E_pair E_mol TotEng Press 
       0    1010.3814     730.0027    1540.8956    5306.7474    3.3244868 
      14    1010.3814    727.59423      1333.62    5097.0632    4.3753259 
Loop time of 0.389704 on 1 procs for 14 steps with 1009 atoms

99.8% CPU use with 1 MPI tasks x no OpenMP threads

Minimization stats:
  Stopping criterion = linesearch alpha is zero
  Energy initial, next-to-last, final = 
         2270.89832804      2061.21419869      2061.21419869
  Force two-norm initial, final = 730.545 58.7173
  Force max component initial, final = 365.695 12.0014
  Final line search alpha, max atom move = 2.13158e-12 2.55818e-11
  Iterations, force evaluations = 14 86

MPI task timing breakdown:
Section |  min time  |  avg time  |  max time  |%varavg| %total
---------------------------------------------------------------
Pair    | 0.16266    | 0.16266    | 0.16266    |   0.0 | 41.74
Bond    | 0.041603   | 0.041603   | 0.041603   |   0.0 | 10.68
Kspace  | 0.18402    | 0.18402    | 0.18402    |   0.0 | 47.22
Neigh   | 0          | 0          | 0          |   0.0 |  0.00
Comm    | 2.408e-05  | 2.408e-05  | 2.408e-05  |   0.0 |  0.01
Output  | 0          | 0          | 0          |   0.0 |  0.00
Modify  | 0          | 0          | 0          |   0.0 |  0.00
Other   |            | 0.001397   |            |       |  0.36

Nlocal:    1009 ave 1009 max 1009 min
Histogram: 1 0 0 0 0 0 0 0 0 0
Nghost:    0 ave 0 max 0 min
Histogram: 1 0 0 0 0 0 0 0 0 0
Neighs:    55215 ave 55215 max 55215 min
Histogram: 1 0 0 0 0 0 0 0 0 0

Total # of neighbors = 55215
Ave neighs/atom = 54.7225
Ave special neighs/atom = 11.1041
Neighbor list builds = 0
Dangerous builds = 0
write_dump all custom pysimm.dump.tmp id q x y z vx vy vz
quit


################################################################################
##################################    Init    ##################################
################################################################################
units           real
atom_style      full
pair_style      lj/cut/coul/long 12.0  12.0
kspace_style    pppm 1e-4
bond_style      harmonic
angle_style     harmonic
dihedral_style  fourier
improper_style  cvff
special_bonds   amber
pair_modify     mix arithmetic
read_data       temp.lmps
  orthogonal box = (-162.557 -162.557 -162.557) to (162.557 162.557 162.557)
  1 by 1 by 1 MPI processor grid
  reading atoms ...
  1062 atoms
  reading velocities ...
  1062 velocities
  scanning bonds ...
  3 = max bonds/atom
  scanning angles ...
  6 = max angles/atom
  scanning dihedrals ...
  24 = max dihedrals/atom
  scanning impropers ...
  2 = max impropers/atom
  reading bonds ...
  1161 bonds
  reading angles ...
  2040 angles
  reading dihedrals ...
  3076 dihedrals
  reading impropers ...
  320 impropers
  4 = max # of 1-2 neighbors
  10 = max # of 1-3 neighbors
  19 = max # of 1-4 neighbors
  22 = max # of special neighbors
  special bonds CPU = 0.000931978 secs
  read_data CPU = 0.0125141 secs
################################################################################

min_style cg
minimize 1e-06 1e-06 1000000 10000000
WARNING: Using 'neigh_modify every 1 delay 0 check yes' setting during minimization (../min.cpp:190)
PPPM initialization ...
WARNING: System is not charge neutral, net charge = -2e-05 (../kspace.cpp:313)
  using 12-bit tables for long-range coulomb (../kspace.cpp:332)
  G vector (1/distance) = 0.073929
  grid = 20 20 20
  stencil order = 5
  estimated absolute RMS force accuracy = 0.0354361
  estimated relative force accuracy = 0.000106715
  using double precision KISS FFT
  3d grid and FFT values/proc = 15625 8000
Neighbor list info ...
  update every 1 steps, delay 0 steps, check yes
  max neighbors/atom: 2000, page size: 100000
  master list distance cutoff = 14
  ghost atom cutoff = 14
  binsize = 7, bins = 47 47 47
  1 neighbor lists, perpetual/occasional/extra = 1 0 0
  (1) pair lj/cut/coul/long, perpetual
      attributes: half, newton on
      pair build: half/bin/newton
      stencil: half/bin/3d/newton
      bin: standard
Per MPI rank memory allocation (min/avg/max) = 20.77 | 20.77 | 20.77 Mbytes
Step Temp E_pair E_mol TotEng Press 
       0    887.29261    720.27572    1521.9975    5048.4598    3.1772128 
       8    887.29261    717.99833    1339.4109    4863.5958    3.9015918 
Loop time of 0.358447 on 1 procs for 8 steps with 1062 atoms

100.1% CPU use with 1 MPI tasks x no OpenMP threads

Minimization stats:
  Stopping criterion = linesearch alpha is zero
  Energy initial, next-to-last, final = 
         2242.27322454      2057.40917858      2057.40917858
  Force two-norm initial, final = 731.171 57.0231
  Force max component initial, final = 314.651 17.3164
  Final line search alpha, max atom move = 2.52768e-12 4.37704e-11
  Iterations, force evaluations = 8 75

MPI task timing breakdown:
Section |  min time  |  avg time  |  max time  |%varavg| %total
---------------------------------------------------------------
Pair    | 0.1528     | 0.1528     | 0.1528     |   0.0 | 42.63
Bond    | 0.038732   | 0.038732   | 0.038732   |   0.0 | 10.81
Kspace  | 0.16569    | 0.16569    | 0.16569    |   0.0 | 46.22
Neigh   | 0          | 0          | 0          |   0.0 |  0.00
Comm    | 2.6941e-05 | 2.6941e-05 | 2.6941e-05 |   0.0 |  0.01
Output  | 0          | 0          | 0          |   0.0 |  0.00
Modify  | 0          | 0          | 0          |   0.0 |  0.00
Other   |            | 0.001199   |            |       |  0.33

Nlocal:    1062 ave 1062 max 1062 min
Histogram: 1 0 0 0 0 0 0 0 0 0
Nghost:    0 ave 0 max 0 min
Histogram: 1 0 0 0 0 0 0 0 0 0
Neighs:    58110 ave 58110 max 58110 min
Histogram: 1 0 0 0 0 0 0 0 0 0

Total # of neighbors = 58110
Ave neighs/atom = 54.7175
Ave special neighs/atom = 11.1055
Neighbor list builds = 0
Dangerous builds = 0
write_dump all custom pysimm.dump.tmp id q x y z vx vy vz
quit


################################################################################
##################################    Init    ##################################
################################################################################
units           real
atom_style      full
pair_style      lj/cut/coul/long 12.0  12.0
kspace_style    pppm 1e-4
bond_style      harmonic
angle_style     harmonic
dihedral_style  fourier
improper_style  cvff
special_bonds   amber
pair_modify     mix arithmetic
read_data       temp.lmps
  orthogonal box = (-165.36 -165.36 -165.36) to (165.36 165.36 165.36)
  1 by 1 by 1 MPI processor grid
  reading atoms ...
  1115 atoms
  reading velocities ...
  1115 velocities
  scanning bonds ...
  3 = max bonds/atom
  scanning angles ...
  6 = max angles/atom
  scanning dihedrals ...
  24 = max dihedrals/atom
  scanning impropers ...
  2 = max impropers/atom
  reading bonds ...
  1219 bonds
  reading angles ...
  2142 angles
  reading dihedrals ...
  3230 dihedrals
  reading impropers ...
  336 impropers
  4 = max # of 1-2 neighbors
  10 = max # of 1-3 neighbors
  19 = max # of 1-4 neighbors
  22 = max # of special neighbors
  special bonds CPU = 0.000949144 secs
  read_data CPU = 0.0129991 secs
################################################################################

min_style cg
minimize 1e-06 1e-06 1000000 10000000
WARNING: Using 'neigh_modify every 1 delay 0 check yes' setting during minimization (../min.cpp:190)
PPPM initialization ...
WARNING: System is not charge neutral, net charge = -2.1e-05 (../kspace.cpp:313)
  using 12-bit tables for long-range coulomb (../kspace.cpp:332)
  G vector (1/distance) = 0.0729162
  grid = 20 20 20
  stencil order = 5
  estimated absolute RMS force accuracy = 0.0361593
  estimated relative force accuracy = 0.000108893
  using double precision KISS FFT
  3d grid and FFT values/proc = 15625 8000
Neighbor list info ...
  update every 1 steps, delay 0 steps, check yes
  max neighbors/atom: 2000, page size: 100000
  master list distance cutoff = 14
  ghost atom cutoff = 14
  binsize = 7, bins = 48 48 48
  1 neighbor lists, perpetual/occasional/extra = 1 0 0
  (1) pair lj/cut/coul/long, perpetual
      attributes: half, newton on
      pair build: half/bin/newton
      stencil: half/bin/3d/newton
      bin: standard
Per MPI rank memory allocation (min/avg/max) = 20.8 | 20.8 | 20.8 Mbytes
Step Temp E_pair E_mol TotEng Press 
       0     943.5086    778.34298    1663.1771    5574.5559    3.4170554 
      26     943.5086    758.72495    1442.1742     5333.935    4.0319321 
Loop time of 0.5375 on 1 procs for 26 steps with 1115 atoms

99.9% CPU use with 1 MPI tasks x no OpenMP threads

Minimization stats:
  Stopping criterion = linesearch alpha is zero
  Energy initial, next-to-last, final = 
         2441.52010038       2200.8991938       2200.8991938
  Force two-norm initial, final = 729.896 71.8423
  Force max component initial, final = 268.752 12.9556
  Final line search alpha, max atom move = 1.73117e-12 2.24283e-11
  Iterations, force evaluations = 26 109

MPI task timing breakdown:
Section |  min time  |  avg time  |  max time  |%varavg| %total
---------------------------------------------------------------
Pair    | 0.23637    | 0.23637    | 0.23637    |   0.0 | 43.97
Bond    | 0.058273   | 0.058273   | 0.058273   |   0.0 | 10.84
Kspace  | 0.24073    | 0.24073    | 0.24073    |   0.0 | 44.79
Neigh   | 0          | 0          | 0          |   0.0 |  0.00
Comm    | 4.5061e-05 | 4.5061e-05 | 4.5061e-05 |   0.0 |  0.01
Output  | 0          | 0          | 0          |   0.0 |  0.00
Modify  | 0          | 0          | 0          |   0.0 |  0.00
Other   |            | 0.002088   |            |       |  0.39

Nlocal:    1115 ave 1115 max 1115 min
Histogram: 1 0 0 0 0 0 0 0 0 0
Nghost:    0 ave 0 max 0 min
Histogram: 1 0 0 0 0 0 0 0 0 0
Neighs:    58150 ave 58150 max 58150 min
Histogram: 1 0 0 0 0 0 0 0 0 0

Total # of neighbors = 58150
Ave neighs/atom = 52.1525
Ave special neighs/atom = 11.1067
Neighbor list builds = 0
Dangerous builds = 0
write_dump all custom pysimm.dump.tmp id q x y z vx vy vz
quit


################################################################################
##################################    Init    ##################################
################################################################################
units           real
atom_style      full
pair_style      lj/cut/coul/long 12.0  12.0
kspace_style    pppm 1e-4
bond_style      harmonic
angle_style     harmonic
dihedral_style  fourier
improper_style  cvff
special_bonds   amber
pair_modify     mix arithmetic
read_data       temp.lmps
  orthogonal box = (-168.072 -168.072 -168.072) to (168.072 168.072 168.072)
  1 by 1 by 1 MPI processor grid
  reading atoms ...
  1168 atoms
  reading velocities ...
  1168 velocities
  scanning bonds ...
  3 = max bonds/atom
  scanning angles ...
  6 = max angles/atom
  scanning dihedrals ...
  24 = max dihedrals/atom
  scanning impropers ...
  2 = max impropers/atom
  reading bonds ...
  1277 bonds
  reading angles ...
  2244 angles
  reading dihedrals ...
  3384 dihedrals
  reading impropers ...
  352 impropers
  4 = max # of 1-2 neighbors
  10 = max # of 1-3 neighbors
  19 = max # of 1-4 neighbors
  22 = max # of special neighbors
  special bonds CPU = 0.00099206 secs
  read_data CPU = 0.013413 secs
################################################################################

min_style cg
minimize 1e-06 1e-06 1000000 10000000
WARNING: Using 'neigh_modify every 1 delay 0 check yes' setting during minimization (../min.cpp:190)
PPPM initialization ...
WARNING: System is not charge neutral, net charge = -2.2e-05 (../kspace.cpp:313)
  using 12-bit tables for long-range coulomb (../kspace.cpp:332)
  G vector (1/distance) = 0.071962
  grid = 20 20 20
  stencil order = 5
  estimated absolute RMS force accuracy = 0.0368458
  estimated relative force accuracy = 0.00011096
  using double precision KISS FFT
  3d grid and FFT values/proc = 15625 8000
Neighbor list info ...
  update every 1 steps, delay 0 steps, check yes
  max neighbors/atom: 2000, page size: 100000
  master list distance cutoff = 14
  ghost atom cutoff = 14
  binsize = 7, bins = 49 49 49
  1 neighbor lists, perpetual/occasional/extra = 1 0 0
  (1) pair lj/cut/coul/long, perpetual
      attributes: half, newton on
      pair build: half/bin/newton
      stencil: half/bin/3d/newton
      bin: standard
Per MPI rank memory allocation (min/avg/max) = 20.84 | 20.84 | 20.84 Mbytes
Step Temp E_pair E_mol TotEng Press 
       0    889.63583    816.50132    1734.8968    5646.0901    2.9952993 
      17    889.63583    811.36949    1527.6495    5433.7109    3.8280952 
Loop time of 0.49382 on 1 procs for 17 steps with 1168 atoms

100.0% CPU use with 1 MPI tasks x no OpenMP threads

Minimization stats:
  Stopping criterion = linesearch alpha is zero
  Energy initial, next-to-last, final = 
         2551.39814379      2339.01895453      2339.01895453
  Force two-norm initial, final = 734.032 59.8821
  Force max component initial, final = 412.468 21.0963
  Final line search alpha, max atom move = 3.28074e-12 6.92114e-11
  Iterations, force evaluations = 17 90

MPI task timing breakdown:
Section |  min time  |  avg time  |  max time  |%varavg| %total
---------------------------------------------------------------
Pair    | 0.22477    | 0.22477    | 0.22477    |   0.0 | 45.52
Bond    | 0.053054   | 0.053054   | 0.053054   |   0.0 | 10.74
Kspace  | 0.21412    | 0.21412    | 0.21412    |   0.0 | 43.36
Neigh   | 0          | 0          | 0          |   0.0 |  0.00
Comm    | 6.628e-05  | 6.628e-05  | 6.628e-05  |   0.0 |  0.01
Output  | 0          | 0          | 0          |   0.0 |  0.00
Modify  | 0          | 0          | 0          |   0.0 |  0.00
Other   |            | 0.001803   |            |       |  0.37

Nlocal:    1168 ave 1168 max 1168 min
Histogram: 1 0 0 0 0 0 0 0 0 0
Nghost:    0 ave 0 max 0 min
Histogram: 1 0 0 0 0 0 0 0 0 0
Neighs:    67051 ave 67051 max 67051 min
Histogram: 1 0 0 0 0 0 0 0 0 0

Total # of neighbors = 67051
Ave neighs/atom = 57.4067
Ave special neighs/atom = 11.1079
Neighbor list builds = 0
Dangerous builds = 0
write_dump all custom pysimm.dump.tmp id q x y z vx vy vz
quit


################################################################################
##################################    Init    ##################################
################################################################################
units           real
atom_style      full
pair_style      lj/cut/coul/long 12.0  12.0
kspace_style    pppm 1e-4
bond_style      harmonic
angle_style     harmonic
dihedral_style  fourier
improper_style  cvff
special_bonds   amber
pair_modify     mix arithmetic
read_data       temp.lmps
  orthogonal box = (-170.698 -170.698 -170.698) to (170.698 170.698 170.698)
  1 by 1 by 1 MPI processor grid
  reading atoms ...
  1221 atoms
  reading velocities ...
  1221 velocities
  scanning bonds ...
  3 = max bonds/atom
  scanning angles ...
  6 = max angles/atom
  scanning dihedrals ...
  24 = max dihedrals/atom
  scanning impropers ...
  2 = max impropers/atom
  reading bonds ...
  1335 bonds
  reading angles ...
  2346 angles
  reading dihedrals ...
  3538 dihedrals
  reading impropers ...
  368 impropers
  4 = max # of 1-2 neighbors
  10 = max # of 1-3 neighbors
  19 = max # of 1-4 neighbors
  22 = max # of special neighbors
  special bonds CPU = 0.00101686 secs
  read_data CPU = 0.0158541 secs
################################################################################

min_style cg
minimize 1e-06 1e-06 1000000 10000000
WARNING: Using 'neigh_modify every 1 delay 0 check yes' setting during minimization (../min.cpp:190)
PPPM initialization ...
WARNING: System is not charge neutral, net charge = -2.3e-05 (../kspace.cpp:313)
  using 12-bit tables for long-range coulomb (../kspace.cpp:332)
  G vector (1/distance) = 0.082165
  grid = 24 24 24
  stencil order = 5
  estimated absolute RMS force accuracy = 0.0293501
  estimated relative force accuracy = 8.8387e-05
  using double precision KISS FFT
  3d grid and FFT values/proc = 24389 13824
Neighbor list info ...
  update every 1 steps, delay 0 steps, check yes
  max neighbors/atom: 2000, page size: 100000
  master list distance cutoff = 14
  ghost atom cutoff = 14
  binsize = 7, bins = 49 49 49
  1 neighbor lists, perpetual/occasional/extra = 1 0 0
  (1) pair lj/cut/coul/long, perpetual
      attributes: half, newton on
      pair build: half/bin/newton
      stencil: half/bin/3d/newton
      bin: standard
Per MPI rank memory allocation (min/avg/max) = 21.68 | 21.68 | 21.68 Mbytes
Step Temp E_pair E_mol TotEng Press 
       0    840.45331     843.0466    1741.6613    5641.0905    2.9123169 
      13    840.45331    840.88075    1550.1914    5447.4547    3.4877238 
Loop time of 0.578883 on 1 procs for 13 steps with 1221 atoms

100.0% CPU use with 1 MPI tasks x no OpenMP threads

Minimization stats:
  Stopping criterion = linesearch alpha is zero
  Energy initial, next-to-last, final = 
         2584.70790184      2391.07211096      2391.07211096
  Force two-norm initial, final = 731.205 77.7192
  Force max component initial, final = 299.879 16.7388
  Final line search alpha, max atom move = 1.18868e-12 1.98972e-11
  Iterations, force evaluations = 13 85

MPI task timing breakdown:
Section |  min time  |  avg time  |  max time  |%varavg| %total
---------------------------------------------------------------
Pair    | 0.20433    | 0.20433    | 0.20433    |   0.0 | 35.30
Bond    | 0.05127    | 0.05127    | 0.05127    |   0.0 |  8.86
Kspace  | 0.32165    | 0.32165    | 0.32165    |   0.0 | 55.56
Neigh   | 0          | 0          | 0          |   0.0 |  0.00
Comm    | 4.4823e-05 | 4.4823e-05 | 4.4823e-05 |   0.0 |  0.01
Output  | 0          | 0          | 0          |   0.0 |  0.00
Modify  | 0          | 0          | 0          |   0.0 |  0.00
Other   |            | 0.001592   |            |       |  0.27

Nlocal:    1221 ave 1221 max 1221 min
Histogram: 1 0 0 0 0 0 0 0 0 0
Nghost:    0 ave 0 max 0 min
Histogram: 1 0 0 0 0 0 0 0 0 0
Neighs:    65753 ave 65753 max 65753 min
Histogram: 1 0 0 0 0 0 0 0 0 0

Total # of neighbors = 65753
Ave neighs/atom = 53.8518
Ave special neighs/atom = 11.1089
Neighbor list builds = 0
Dangerous builds = 0
write_dump all custom pysimm.dump.tmp id q x y z vx vy vz
quit


################################################################################
##################################    Init    ##################################
################################################################################
units           real
atom_style      full
pair_style      lj/cut/coul/long 12.0  12.0
kspace_style    pppm 1e-4
bond_style      harmonic
angle_style     harmonic
dihedral_style  fourier
improper_style  cvff
special_bonds   amber
pair_modify     mix arithmetic
read_data       temp.lmps
  orthogonal box = (-173.246 -173.246 -173.246) to (173.246 173.246 173.246)
  1 by 1 by 1 MPI processor grid
  reading atoms ...
  1274 atoms
  reading velocities ...
  1274 velocities
  scanning bonds ...
  3 = max bonds/atom
  scanning angles ...
  6 = max angles/atom
  scanning dihedrals ...
  24 = max dihedrals/atom
  scanning impropers ...
  2 = max impropers/atom
  reading bonds ...
  1393 bonds
  reading angles ...
  2448 angles
  reading dihedrals ...
  3692 dihedrals
  reading impropers ...
  384 impropers
  4 = max # of 1-2 neighbors
  10 = max # of 1-3 neighbors
  19 = max # of 1-4 neighbors
  22 = max # of special neighbors
  special bonds CPU = 0.00103903 secs
  read_data CPU = 0.0141878 secs
################################################################################

min_style cg
minimize 1e-06 1e-06 1000000 10000000
WARNING: Using 'neigh_modify every 1 delay 0 check yes' setting during minimization (../min.cpp:190)
PPPM initialization ...
WARNING: System is not charge neutral, net charge = -2.4e-05 (../kspace.cpp:313)
  using 12-bit tables for long-range coulomb (../kspace.cpp:332)
  G vector (1/distance) = 0.081222
  grid = 24 24 24
  stencil order = 5
  estimated absolute RMS force accuracy = 0.0299812
  estimated relative force accuracy = 9.02875e-05
  using double precision KISS FFT
  3d grid and FFT values/proc = 24389 13824
Neighbor list info ...
  update every 1 steps, delay 0 steps, check yes
  max neighbors/atom: 2000, page size: 100000
  master list distance cutoff = 14
  ghost atom cutoff = 14
  binsize = 7, bins = 50 50 50
  1 neighbor lists, perpetual/occasional/extra = 1 0 0
  (1) pair lj/cut/coul/long, perpetual
      attributes: half, newton on
      pair build: half/bin/newton
      stencil: half/bin/3d/newton
      bin: standard
Per MPI rank memory allocation (min/avg/max) = 21.72 | 21.72 | 21.72 Mbytes
Step Temp E_pair E_mol TotEng Press 
       0    1064.6593    901.02665    1774.8653    6715.8174    4.2059825 
      42    1064.6593    870.58829    1538.7525    6449.2663    4.4448942 
Loop time of 0.939039 on 1 procs for 42 steps with 1274 atoms

100.0% CPU use with 1 MPI tasks x no OpenMP threads

Minimization stats:
  Stopping criterion = linesearch alpha is zero
  Energy initial, next-to-last, final = 
         2675.89192408      2409.34075407      2409.34075407
  Force two-norm initial, final = 732.367 58.1329
  Force max component initial, final = 313.163 11.4944
  Final line search alpha, max atom move = 2.32922e-12 2.6773e-11
  Iterations, force evaluations = 42 141

MPI task timing breakdown:
Section |  min time  |  avg time  |  max time  |%varavg| %total
---------------------------------------------------------------
Pair    | 0.31445    | 0.31445    | 0.31445    |   0.0 | 33.49
Bond    | 0.088008   | 0.088008   | 0.088008   |   0.0 |  9.37
Kspace  | 0.53086    | 0.53086    | 0.53086    |   0.0 | 56.53
Neigh   | 0.0022528  | 0.0022528  | 0.0022528  |   0.0 |  0.24
Comm    | 8.7261e-05 | 8.7261e-05 | 8.7261e-05 |   0.0 |  0.01
Output  | 0          | 0          | 0          |   0.0 |  0.00
Modify  | 0          | 0          | 0          |   0.0 |  0.00
Other   |            | 0.00339    |            |       |  0.36

Nlocal:    1274 ave 1274 max 1274 min
Histogram: 1 0 0 0 0 0 0 0 0 0
Nghost:    0 ave 0 max 0 min
Histogram: 1 0 0 0 0 0 0 0 0 0
Neighs:    61172 ave 61172 max 61172 min
Histogram: 1 0 0 0 0 0 0 0 0 0

Total # of neighbors = 61172
Ave neighs/atom = 48.0157
Ave special neighs/atom = 11.1099
Neighbor list builds = 1
Dangerous builds = 0
write_dump all custom pysimm.dump.tmp id q x y z vx vy vz
quit


################################################################################
##################################    Init    ##################################
################################################################################
units           real
atom_style      full
pair_style      lj/cut/coul/long 12.0  12.0
kspace_style    pppm 1e-4
bond_style      harmonic
angle_style     harmonic
dihedral_style  fourier
improper_style  cvff
special_bonds   amber
pair_modify     mix arithmetic
read_data       temp.lmps
  orthogonal box = (-175.721 -175.721 -175.721) to (175.721 175.721 175.721)
  1 by 1 by 1 MPI processor grid
  reading atoms ...
  1327 atoms
  reading velocities ...
  1327 velocities
  scanning bonds ...
  3 = max bonds/atom
  scanning angles ...
  6 = max angles/atom
  scanning dihedrals ...
  24 = max dihedrals/atom
  scanning impropers ...
  2 = max impropers/atom
  reading bonds ...
  1451 bonds
  reading angles ...
  2550 angles
  reading dihedrals ...
  3846 dihedrals
  reading impropers ...
  400 impropers
  4 = max # of 1-2 neighbors
  10 = max # of 1-3 neighbors
  19 = max # of 1-4 neighbors
  22 = max # of special neighbors
  special bonds CPU = 0.001091 secs
  read_data CPU = 0.117702 secs
################################################################################

min_style cg
minimize 1e-06 1e-06 1000000 10000000
WARNING: Using 'neigh_modify every 1 delay 0 check yes' setting during minimization (../min.cpp:190)
PPPM initialization ...
WARNING: System is not charge neutral, net charge = -2.5e-05 (../kspace.cpp:313)
  using 12-bit tables for long-range coulomb (../kspace.cpp:332)
  G vector (1/distance) = 0.0803258
  grid = 24 24 24
  stencil order = 5
  estimated absolute RMS force accuracy = 0.0305872
  estimated relative force accuracy = 9.21126e-05
  using double precision KISS FFT
  3d grid and FFT values/proc = 24389 13824
Neighbor list info ...
  update every 1 steps, delay 0 steps, check yes
  max neighbors/atom: 2000, page size: 100000
  master list distance cutoff = 14
  ghost atom cutoff = 14
  binsize = 7, bins = 51 51 51
  1 neighbor lists, perpetual/occasional/extra = 1 0 0
  (1) pair lj/cut/coul/long, perpetual
      attributes: half, newton on
      pair build: half/bin/newton
      stencil: half/bin/3d/newton
      bin: standard
Per MPI rank memory allocation (min/avg/max) = 21.76 | 21.76 | 21.76 Mbytes
Step Temp E_pair E_mol TotEng Press 
       0    1077.6495    923.04106    1882.7696    7065.2788     4.292498 
      36    1077.6495    897.85866    1633.2787    6790.6056    4.4277026 
Loop time of 1.10699 on 1 procs for 36 steps with 1327 atoms

100.0% CPU use with 1 MPI tasks x no OpenMP threads

Minimization stats:
  Stopping criterion = linesearch alpha is zero
  Energy initial, next-to-last, final = 
         2805.81068223      2531.13739236      2531.13739236
  Force two-norm initial, final = 733.354 70.8648
  Force max component initial, final = 351.965 13.4427
  Final line search alpha, max atom move = 2.04303e-12 2.74638e-11
  Iterations, force evaluations = 36 151

MPI task timing breakdown:
Section |  min time  |  avg time  |  max time  |%varavg| %total
---------------------------------------------------------------
Pair    | 0.42339    | 0.42339    | 0.42339    |   0.0 | 38.25
Bond    | 0.098064   | 0.098064   | 0.098064   |   0.0 |  8.86
Kspace  | 0.57918    | 0.57918    | 0.57918    |   0.0 | 52.32
Neigh   | 0.002794   | 0.002794   | 0.002794   |   0.0 |  0.25
Comm    | 7.8201e-05 | 7.8201e-05 | 7.8201e-05 |   0.0 |  0.01
Output  | 0          | 0          | 0          |   0.0 |  0.00
Modify  | 0          | 0          | 0          |   0.0 |  0.00
Other   |            | 0.00349    |            |       |  0.32

Nlocal:    1327 ave 1327 max 1327 min
Histogram: 1 0 0 0 0 0 0 0 0 0
Nghost:    0 ave 0 max 0 min
Histogram: 1 0 0 0 0 0 0 0 0 0
Neighs:    80358 ave 80358 max 80358 min
Histogram: 1 0 0 0 0 0 0 0 0 0

Total # of neighbors = 80358
Ave neighs/atom = 60.5561
Ave special neighs/atom = 11.1108
Neighbor list builds = 1
Dangerous builds = 0
write_dump all custom pysimm.dump.tmp id q x y z vx vy vz
quit


################################################################################
##################################    Init    ##################################
################################################################################
units           real
atom_style      full
pair_style      lj/cut/coul/long 12.0  12.0
kspace_style    pppm 1e-4
bond_style      harmonic
angle_style     harmonic
dihedral_style  fourier
improper_style  cvff
special_bonds   amber
pair_modify     mix arithmetic
read_data       temp.lmps
  orthogonal box = (-178.129 -178.129 -178.129) to (178.129 178.129 178.129)
  1 by 1 by 1 MPI processor grid
  reading atoms ...
  1380 atoms
  reading velocities ...
  1380 velocities
  scanning bonds ...
  3 = max bonds/atom
  scanning angles ...
  6 = max angles/atom
  scanning dihedrals ...
  24 = max dihedrals/atom
  scanning impropers ...
  2 = max impropers/atom
  reading bonds ...
  1509 bonds
  reading angles ...
  2652 angles
  reading dihedrals ...
  4000 dihedrals
  reading impropers ...
  416 impropers
  4 = max # of 1-2 neighbors
  10 = max # of 1-3 neighbors
  19 = max # of 1-4 neighbors
  22 = max # of special neighbors
  special bonds CPU = 0.00112009 secs
  read_data CPU = 0.0152981 secs
################################################################################

min_style cg
minimize 1e-06 1e-06 1000000 10000000
WARNING: Using 'neigh_modify every 1 delay 0 check yes' setting during minimization (../min.cpp:190)
PPPM initialization ...
WARNING: System is not charge neutral, net charge = -2.6e-05 (../kspace.cpp:313)
  using 12-bit tables for long-range coulomb (../kspace.cpp:332)
  G vector (1/distance) = 0.0794722
  grid = 24 24 24
  stencil order = 5
  estimated absolute RMS force accuracy = 0.0311699
  estimated relative force accuracy = 9.38672e-05
  using double precision KISS FFT
  3d grid and FFT values/proc = 24389 13824
Neighbor list info ...
  update every 1 steps, delay 0 steps, check yes
  max neighbors/atom: 2000, page size: 100000
  master list distance cutoff = 14
  ghost atom cutoff = 14
  binsize = 7, bins = 51 51 51
  1 neighbor lists, perpetual/occasional/extra = 1 0 0
  (1) pair lj/cut/coul/long, perpetual
      attributes: half, newton on
      pair build: half/bin/newton
      stencil: half/bin/3d/newton
      bin: standard
Per MPI rank memory allocation (min/avg/max) = 21.77 | 21.77 | 21.77 Mbytes
Step Temp E_pair E_mol TotEng Press 
       0    892.45243    950.19686    1974.0832    6592.7388    3.4860339 
      38    892.45243    929.38483    1719.0871    6316.9307    3.6675973 
Loop time of 0.971787 on 1 procs for 38 steps with 1380 atoms

100.1% CPU use with 1 MPI tasks x no OpenMP threads

Minimization stats:
  Stopping criterion = linesearch alpha is zero
  Energy initial, next-to-last, final = 
         2924.28001478      2648.47194218      2648.47194218
  Force two-norm initial, final = 731.099 64.8953
  Force max component initial, final = 384.399 11.2543
  Final line search alpha, max atom move = 2.5519e-12 2.872e-11
  Iterations, force evaluations = 38 132

MPI task timing breakdown:
Section |  min time  |  avg time  |  max time  |%varavg| %total
---------------------------------------------------------------
Pair    | 0.35315    | 0.35315    | 0.35315    |   0.0 | 36.34
Bond    | 0.090192   | 0.090192   | 0.090192   |   0.0 |  9.28
Kspace  | 0.52209    | 0.52209    | 0.52209    |   0.0 | 53.72
Neigh   | 0.0026388  | 0.0026388  | 0.0026388  |   0.0 |  0.27
Comm    | 9.4891e-05 | 9.4891e-05 | 9.4891e-05 |   0.0 |  0.01
Output  | 0          | 0          | 0          |   0.0 |  0.00
Modify  | 0          | 0          | 0          |   0.0 |  0.00
Other   |            | 0.003623   |            |       |  0.37

Nlocal:    1380 ave 1380 max 1380 min
Histogram: 1 0 0 0 0 0 0 0 0 0
Nghost:    0 ave 0 max 0 min
Histogram: 1 0 0 0 0 0 0 0 0 0
Neighs:    72912 ave 72912 max 72912 min
Histogram: 1 0 0 0 0 0 0 0 0 0

Total # of neighbors = 72912
Ave neighs/atom = 52.8348
Ave special neighs/atom = 11.1116
Neighbor list builds = 1
Dangerous builds = 0
write_dump all custom pysimm.dump.tmp id q x y z vx vy vz
quit


################################################################################
##################################    Init    ##################################
################################################################################
units           real
atom_style      full
pair_style      lj/cut/coul/long 12.0  12.0
kspace_style    pppm 1e-4
bond_style      harmonic
angle_style     harmonic
dihedral_style  fourier
improper_style  cvff
special_bonds   amber
pair_modify     mix arithmetic
read_data       temp.lmps
  orthogonal box = (-180.473 -180.473 -180.473) to (180.473 180.473 180.473)
  1 by 1 by 1 MPI processor grid
  reading atoms ...
  1433 atoms
  reading velocities ...
  1433 velocities
  scanning bonds ...
  3 = max bonds/atom
  scanning angles ...
  6 = max angles/atom
  scanning dihedrals ...
  24 = max dihedrals/atom
  scanning impropers ...
  2 = max impropers/atom
  reading bonds ...
  1567 bonds
  reading angles ...
  2754 angles
  reading dihedrals ...
  4154 dihedrals
  reading impropers ...
  432 impropers
  4 = max # of 1-2 neighbors
  10 = max # of 1-3 neighbors
  19 = max # of 1-4 neighbors
  22 = max # of special neighbors
  special bonds CPU = 0.00114393 secs
  read_data CPU = 0.0155811 secs
################################################################################

min_style cg
minimize 1e-06 1e-06 1000000 10000000
WARNING: Using 'neigh_modify every 1 delay 0 check yes' setting during minimization (../min.cpp:190)
PPPM initialization ...
WARNING: System is not charge neutral, net charge = -2.7e-05 (../kspace.cpp:313)
  using 12-bit tables for long-range coulomb (../kspace.cpp:332)
  G vector (1/distance) = 0.0786577
  grid = 24 24 24
  stencil order = 5
  estimated absolute RMS force accuracy = 0.0317307
  estimated relative force accuracy = 9.55561e-05
  using double precision KISS FFT
  3d grid and FFT values/proc = 24389 13824
Neighbor list info ...
  update every 1 steps, delay 0 steps, check yes
  max neighbors/atom: 2000, page size: 100000
  master list distance cutoff = 14
  ghost atom cutoff = 14
  binsize = 7, bins = 52 52 52
  1 neighbor lists, perpetual/occasional/extra = 1 0 0
  (1) pair lj/cut/coul/long, perpetual
      attributes: half, newton on
      pair build: half/bin/newton
      stencil: half/bin/3d/newton
      bin: standard
Per MPI rank memory allocation (min/avg/max) = 21.81 | 21.81 | 21.81 Mbytes
Step Temp E_pair E_mol TotEng Press 
       0    790.01922    1005.1177    2054.3354    6431.6659    2.8810468 
      44    790.01922    977.65983    1755.5939    6105.4666    3.2276346 
Loop time of 1.14519 on 1 procs for 44 steps with 1433 atoms

100.0% CPU use with 1 MPI tasks x no OpenMP threads

Minimization stats:
  Stopping criterion = linesearch alpha is zero
  Energy initial, next-to-last, final = 
         3059.45305272      2733.25377667      2733.25377667
  Force two-norm initial, final = 737.01 56.0678
  Force max component initial, final = 351.051 10.4651
  Final line search alpha, max atom move = 3.33629e-12 3.49145e-11
  Iterations, force evaluations = 44 154

MPI task timing breakdown:
Section |  min time  |  avg time  |  max time  |%varavg| %total
---------------------------------------------------------------
Pair    | 0.422      | 0.422      | 0.422      |   0.0 | 36.85
Bond    | 0.10831    | 0.10831    | 0.10831    |   0.0 |  9.46
Kspace  | 0.60543    | 0.60543    | 0.60543    |   0.0 | 52.87
Neigh   | 0.005245   | 0.005245   | 0.005245   |   0.0 |  0.46
Comm    | 0.000103   | 0.000103   | 0.000103   |   0.0 |  0.01
Output  | 0          | 0          | 0          |   0.0 |  0.00
Modify  | 0          | 0          | 0          |   0.0 |  0.00
Other   |            | 0.004106   |            |       |  0.36

Nlocal:    1433 ave 1433 max 1433 min
Histogram: 1 0 0 0 0 0 0 0 0 0
Nghost:    0 ave 0 max 0 min
Histogram: 1 0 0 0 0 0 0 0 0 0
Neighs:    74729 ave 74729 max 74729 min
Histogram: 1 0 0 0 0 0 0 0 0 0

Total # of neighbors = 74729
Ave neighs/atom = 52.1486
Ave special neighs/atom = 11.1124
Neighbor list builds = 2
Dangerous builds = 0
write_dump all custom pysimm.dump.tmp id q x y z vx vy vz
quit


################################################################################
##################################    Init    ##################################
################################################################################
units           real
atom_style      full
pair_style      lj/cut/coul/long 12.0  12.0
kspace_style    pppm 1e-4
bond_style      harmonic
angle_style     harmonic
dihedral_style  fourier
improper_style  cvff
special_bonds   amber
pair_modify     mix arithmetic
read_data       temp.lmps
  orthogonal box = (-182.758 -182.758 -182.758) to (182.758 182.758 182.758)
  1 by 1 by 1 MPI processor grid
  reading atoms ...
  1486 atoms
  reading velocities ...
  1486 velocities
  scanning bonds ...
  3 = max bonds/atom
  scanning angles ...
  6 = max angles/atom
  scanning dihedrals ...
  24 = max dihedrals/atom
  scanning impropers ...
  2 = max impropers/atom
  reading bonds ...
  1625 bonds
  reading angles ...
  2856 angles
  reading dihedrals ...
  4308 dihedrals
  reading impropers ...
  448 impropers
  4 = max # of 1-2 neighbors
  10 = max # of 1-3 neighbors
  19 = max # of 1-4 neighbors
  22 = max # of special neighbors
  special bonds CPU = 0.00118995 secs
  read_data CPU = 0.0162318 secs
################################################################################

min_style cg
minimize 1e-06 1e-06 1000000 10000000
WARNING: Using 'neigh_modify every 1 delay 0 check yes' setting during minimization (../min.cpp:190)
PPPM initialization ...
WARNING: System is not charge neutral, net charge = -2.8e-05 (../kspace.cpp:313)
  using 12-bit tables for long-range coulomb (../kspace.cpp:332)
  G vector (1/distance) = 0.0778792
  grid = 24 24 24
  stencil order = 5
  estimated absolute RMS force accuracy = 0.0322711
  estimated relative force accuracy = 9.71834e-05
  using double precision KISS FFT
  3d grid and FFT values/proc = 24389 13824
Neighbor list info ...
  update every 1 steps, delay 0 steps, check yes
  max neighbors/atom: 2000, page size: 100000
  master list distance cutoff = 14
  ghost atom cutoff = 14
  binsize = 7, bins = 53 53 53
  1 neighbor lists, perpetual/occasional/extra = 1 0 0
  (1) pair lj/cut/coul/long, perpetual
      attributes: half, newton on
      pair build: half/bin/newton
      stencil: half/bin/3d/newton
      bin: standard
Per MPI rank memory allocation (min/avg/max) = 21.86 | 21.86 | 21.86 Mbytes
Step Temp E_pair E_mol TotEng Press 
       0     1032.254    1049.0463    2089.3159    7707.6377    3.9537938 
      54     1032.254    1012.6742    1797.3721    7379.3218       4.3843 
Loop time of 1.20574 on 1 procs for 54 steps with 1486 atoms

100.0% CPU use with 1 MPI tasks x no OpenMP threads

Minimization stats:
  Stopping criterion = linesearch alpha is zero
  Energy initial, next-to-last, final = 
         3138.36214944      2810.04624221      2810.04624221
  Force two-norm initial, final = 732.334 45.4002
  Force max component initial, final = 337.539 6.1722
  Final line search alpha, max atom move = 3.03587e-12 1.8738e-11
  Iterations, force evaluations = 54 165

MPI task timing breakdown:
Section |  min time  |  avg time  |  max time  |%varavg| %total
---------------------------------------------------------------
Pair    | 0.44919    | 0.44919    | 0.44919    |   0.0 | 37.25
Bond    | 0.11702    | 0.11702    | 0.11702    |   0.0 |  9.71
Kspace  | 0.62972    | 0.62972    | 0.62972    |   0.0 | 52.23
Neigh   | 0.005059   | 0.005059   | 0.005059   |   0.0 |  0.42
Comm    | 0.00012183 | 0.00012183 | 0.00012183 |   0.0 |  0.01
Output  | 0          | 0          | 0          |   0.0 |  0.00
Modify  | 0          | 0          | 0          |   0.0 |  0.00
Other   |            | 0.004625   |            |       |  0.38

Nlocal:    1486 ave 1486 max 1486 min
Histogram: 1 0 0 0 0 0 0 0 0 0
Nghost:    0 ave 0 max 0 min
Histogram: 1 0 0 0 0 0 0 0 0 0
Neighs:    75452 ave 75452 max 75452 min
Histogram: 1 0 0 0 0 0 0 0 0 0

Total # of neighbors = 75452
Ave neighs/atom = 50.7752
Ave special neighs/atom = 11.1131
Neighbor list builds = 2
Dangerous builds = 0
write_dump all custom pysimm.dump.tmp id q x y z vx vy vz
quit


################################################################################
##################################    Init    ##################################
################################################################################
units           real
atom_style      full
pair_style      lj/cut/coul/long 12.0  12.0
kspace_style    pppm 1e-4
bond_style      harmonic
angle_style     harmonic
dihedral_style  fourier
improper_style  cvff
special_bonds   amber
pair_modify     mix arithmetic
read_data       temp.lmps
  orthogonal box = (-184.987 -184.987 -184.987) to (184.987 184.987 184.987)
  1 by 1 by 1 MPI processor grid
  reading atoms ...
  1539 atoms
  reading velocities ...
  1539 velocities
  scanning bonds ...
  3 = max bonds/atom
  scanning angles ...
  6 = max angles/atom
  scanning dihedrals ...
  24 = max dihedrals/atom
  scanning impropers ...
  2 = max impropers/atom
  reading bonds ...
  1683 bonds
  reading angles ...
  2958 angles
  reading dihedrals ...
  4462 dihedrals
  reading impropers ...
  464 impropers
  4 = max # of 1-2 neighbors
  10 = max # of 1-3 neighbors
  19 = max # of 1-4 neighbors
  22 = max # of special neighbors
  special bonds CPU = 0.00136304 secs
  read_data CPU = 0.018389 secs
[...]
angle_style     harmonic
dihedral_style  fourier
improper_style  cvff
special_bonds   amber
pair_modify     mix arithmetic
read_data       temp.lmps
  orthogonal box = (-214.806 -214.806 -214.806) to (214.806 214.806 214.806)
  1 by 1 by 1 MPI processor grid
  reading atoms ...
  2302 atoms
  reading velocities ...
  2302 velocities
  scanning bonds ...
  3 = max bonds/atom
  scanning angles ...
  6 = max angles/atom
  scanning dihedrals ...
  24 = max dihedrals/atom
  scanning impropers ...
  2 = max impropers/atom
  reading bonds ...
  2531 bonds
  reading angles ...
  4416 angles
  reading dihedrals ...
  6804 dihedrals
  reading impropers ...
  736 impropers
  4 = max # of 1-2 neighbors
  10 = max # of 1-3 neighbors
  19 = max # of 1-4 neighbors
  22 = max # of special neighbors
  special bonds CPU = 0.00178194 secs
  read_data CPU = 0.0237279 secs
################################################################################

min_style cg
minimize 1e-06 1e-06 1000000 10000000
WARNING: Using 'neigh_modify every 1 delay 0 check yes' setting during minimization (../min.cpp:190)
PPPM initialization ...
  using 12-bit tables for long-range coulomb (../kspace.cpp:332)
  G vector (1/distance) = 0.0752109
  grid = 27 27 27
  stencil order = 5
  estimated absolute RMS force accuracy = 0.034207
  estimated relative force accuracy = 0.000103014
  using double precision KISS FFT
  3d grid and FFT values/proc = 32768 19683
Neighbor list info ...
  update every 1 steps, delay 0 steps, check yes
  max neighbors/atom: 2000, page size: 100000
  master list distance cutoff = 14
  ghost atom cutoff = 14
  binsize = 7, bins = 62 62 62
  1 neighbor lists, perpetual/occasional/extra = 1 0 0
  (1) pair lj/cut/coul/long, perpetual
      attributes: half, newton on
      pair build: half/bin/newton
      stencil: half/bin/3d/newton
      bin: standard
Per MPI rank memory allocation (min/avg/max) = 23.56 | 23.56 | 23.56 Mbytes
Step Temp E_pair E_mol TotEng Press 
       0    554.96505    1104.9944    3240.1542    8151.5672    1.6410017 
      44    554.96505    1071.0396     2916.043    7793.5012     2.011961 
Loop time of 1.81284 on 1 procs for 44 steps with 2302 atoms

100.0% CPU use with 1 MPI tasks x no OpenMP threads

Minimization stats:
  Stopping criterion = linesearch alpha is zero
  Energy initial, next-to-last, final = 
         4345.14857286      3987.08255872      3987.08255872
  Force two-norm initial, final = 737.399 70.0067
  Force max component initial, final = 272.51 19.3448
  Final line search alpha, max atom move = 1.66192e-12 3.21495e-11
  Iterations, force evaluations = 44 148

MPI task timing breakdown:
Section |  min time  |  avg time  |  max time  |%varavg| %total
---------------------------------------------------------------
Pair    | 0.74464    | 0.74464    | 0.74464    |   0.0 | 41.08
Bond    | 0.16782    | 0.16782    | 0.16782    |   0.0 |  9.26
Kspace  | 0.88416    | 0.88416    | 0.88416    |   0.0 | 48.77
Neigh   | 0.0097902  | 0.0097902  | 0.0097902  |   0.0 |  0.54
Comm    | 0.00014663 | 0.00014663 | 0.00014663 |   0.0 |  0.01
Output  | 0          | 0          | 0          |   0.0 |  0.00
Modify  | 0          | 0          | 0          |   0.0 |  0.00
Other   |            | 0.006285   |            |       |  0.35

Nlocal:    2302 ave 2302 max 2302 min
Histogram: 1 0 0 0 0 0 0 0 0 0
Nghost:    0 ave 0 max 0 min
Histogram: 1 0 0 0 0 0 0 0 0 0
Neighs:    146591 ave 146591 max 146591 min
Histogram: 1 0 0 0 0 0 0 0 0 0

Total # of neighbors = 146591
Ave neighs/atom = 63.6798
Ave special neighs/atom = 11.1877
Neighbor list builds = 2
Dangerous builds = 0
write_dump all custom pysimm.dump.tmp id q x y z vx vy vz
quit


################################################################################
##################################    Init    ##################################
################################################################################
units           real
atom_style      full
pair_style      lj/cut/coul/long 12.0  12.0
kspace_style    pppm 1e-4
bond_style      harmonic
angle_style     harmonic
dihedral_style  fourier
improper_style  cvff
special_bonds   amber
pair_modify     mix arithmetic
read_data       temp.lmps
  orthogonal box = (-216.386 -216.386 -216.386) to (216.386 216.386 216.386)
  1 by 1 by 1 MPI processor grid
  reading atoms ...
  2352 atoms
  reading velocities ...
  2352 velocities
  scanning bonds ...
  3 = max bonds/atom
  scanning angles ...
  6 = max angles/atom
  scanning dihedrals ...
  24 = max dihedrals/atom
  scanning impropers ...
  2 = max impropers/atom
  reading bonds ...
  2586 bonds
  reading angles ...
  4512 angles
  reading dihedrals ...
  6952 dihedrals
  reading impropers ...
  752 impropers
  4 = max # of 1-2 neighbors
  10 = max # of 1-3 neighbors
  19 = max # of 1-4 neighbors
  22 = max # of special neighbors
  special bonds CPU = 0.00188303 secs
  read_data CPU = 0.161101 secs
################################################################################

min_style cg
minimize 1e-06 1e-06 1000000 10000000
WARNING: Using 'neigh_modify every 1 delay 0 check yes' setting during minimization (../min.cpp:190)
PPPM initialization ...
  using 12-bit tables for long-range coulomb (../kspace.cpp:332)
  G vector (1/distance) = 0.0747703
  grid = 27 27 27
  stencil order = 5
  estimated absolute RMS force accuracy = 0.0345257
  estimated relative force accuracy = 0.000103973
  using double precision KISS FFT
  3d grid and FFT values/proc = 32768 19683
Neighbor list info ...
  update every 1 steps, delay 0 steps, check yes
  max neighbors/atom: 2000, page size: 100000
  master list distance cutoff = 14
  ghost atom cutoff = 14
  binsize = 7, bins = 62 62 62
  1 neighbor lists, perpetual/occasional/extra = 1 0 0
  (1) pair lj/cut/coul/long, perpetual
      attributes: half, newton on
      pair build: half/bin/newton
      stencil: half/bin/3d/newton
      bin: standard
Per MPI rank memory allocation (min/avg/max) = 23.56 | 23.56 | 23.56 Mbytes
Step Temp E_pair E_mol TotEng Press 
       0    540.18915    1161.2224    3205.8003    8152.6059    1.8564253 
      14    540.18915    1149.8078     2991.297     7926.688    2.1734378 
Loop time of 1.09245 on 1 procs for 14 steps with 2352 atoms

99.8% CPU use with 1 MPI tasks x no OpenMP threads

Minimization stats:
  Stopping criterion = linesearch alpha is zero
  Energy initial, next-to-last, final = 
         4367.02273239      4141.10478536      4141.10478536
  Force two-norm initial, final = 737.989 82.9118
  Force max component initial, final = 294.121 19.122
  Final line search alpha, max atom move = 1.11305e-12 2.12837e-11
  Iterations, force evaluations = 14 87

MPI task timing breakdown:
Section |  min time  |  avg time  |  max time  |%varavg| %total
---------------------------------------------------------------
Pair    | 0.44252    | 0.44252    | 0.44252    |   0.0 | 40.51
Bond    | 0.10033    | 0.10033    | 0.10033    |   0.0 |  9.18
Kspace  | 0.54639    | 0.54639    | 0.54639    |   0.0 | 50.02
Neigh   | 0          | 0          | 0          |   0.0 |  0.00
Comm    | 5.126e-05  | 5.126e-05  | 5.126e-05  |   0.0 |  0.00
Output  | 0          | 0          | 0          |   0.0 |  0.00
Modify  | 0          | 0          | 0          |   0.0 |  0.00
Other   |            | 0.00315    |            |       |  0.29

Nlocal:    2352 ave 2352 max 2352 min
Histogram: 1 0 0 0 0 0 0 0 0 0
Nghost:    0 ave 0 max 0 min
Histogram: 1 0 0 0 0 0 0 0 0 0
Neighs:    150841 ave 150841 max 150841 min
Histogram: 1 0 0 0 0 0 0 0 0 0

Total # of neighbors = 150841
Ave neighs/atom = 64.1331
Ave special neighs/atom = 11.1879
Neighbor list builds = 0
Dangerous builds = 0
write_dump all custom pysimm.dump.tmp id q x y z vx vy vz
quit


################################################################################
##################################    Init    ##################################
################################################################################
units           real
atom_style      full
pair_style      lj/cut/coul/long 12.0  12.0
kspace_style    pppm 1e-4
bond_style      harmonic
angle_style     harmonic
dihedral_style  fourier
improper_style  cvff
special_bonds   amber
pair_modify     mix arithmetic
read_data       temp.lmps
  orthogonal box = (-217.942 -217.942 -217.942) to (217.942 217.942 217.942)
  1 by 1 by 1 MPI processor grid
  reading atoms ...
  2402 atoms
  reading velocities ...
  2402 velocities
  scanning bonds ...
  3 = max bonds/atom
  scanning angles ...
  6 = max angles/atom
  scanning dihedrals ...
  24 = max dihedrals/atom
  scanning impropers ...
  2 = max impropers/atom
  reading bonds ...
  2641 bonds
  reading angles ...
  4608 angles
  reading dihedrals ...
  7100 dihedrals
  reading impropers ...
  768 impropers
  4 = max # of 1-2 neighbors
  10 = max # of 1-3 neighbors
  19 = max # of 1-4 neighbors
  22 = max # of special neighbors
  special bonds CPU = 0.00196695 secs
  read_data CPU = 0.130005 secs
################################################################################

min_style cg
minimize 1e-06 1e-06 1000000 10000000
WARNING: Using 'neigh_modify every 1 delay 0 check yes' setting during minimization (../min.cpp:190)
PPPM initialization ...
  using 12-bit tables for long-range coulomb (../kspace.cpp:332)
  G vector (1/distance) = 0.0743409
  grid = 27 27 27
  stencil order = 5
  estimated absolute RMS force accuracy = 0.0348374
  estimated relative force accuracy = 0.000104912
  using double precision KISS FFT
  3d grid and FFT values/proc = 32768 19683
Neighbor list info ...
  update every 1 steps, delay 0 steps, check yes
  max neighbors/atom: 2000, page size: 100000
  master list distance cutoff = 14
  ghost atom cutoff = 14
  binsize = 7, bins = 63 63 63
  1 neighbor lists, perpetual/occasional/extra = 1 0 0
  (1) pair lj/cut/coul/long, perpetual
      attributes: half, newton on
      pair build: half/bin/newton
      stencil: half/bin/3d/newton
      bin: standard
Per MPI rank memory allocation (min/avg/max) = 23.62 | 23.62 | 23.62 Mbytes
Step Temp E_pair E_mol TotEng Press 
       0    486.25428    1190.8319    3180.7473    7851.6645    1.5244653 
      27    486.25428    1153.2043    2947.7026    7580.9923    1.6790292 
Loop time of 1.96371 on 1 procs for 27 steps with 2402 atoms

100.1% CPU use with 1 MPI tasks x no OpenMP threads

Minimization stats:
  Stopping criterion = linesearch alpha is zero
  Energy initial, next-to-last, final = 
         4371.57913471      4100.90691327      4100.90691327
  Force two-norm initial, final = 732.905 75.0054
  Force max component initial, final = 346.475 17.8748
  Final line search alpha, max atom move = 1.84672e-12 3.30098e-11
  Iterations, force evaluations = 27 163

MPI task timing breakdown:
Section |  min time  |  avg time  |  max time  |%varavg| %total
---------------------------------------------------------------
Pair    | 0.78455    | 0.78455    | 0.78455    |   0.0 | 39.95
Bond    | 0.19096    | 0.19096    | 0.19096    |   0.0 |  9.72
Kspace  | 0.98212    | 0.98212    | 0.98212    |   0.0 | 50.01
Neigh   | 0          | 0          | 0          |   0.0 |  0.00
Comm    | 8.5115e-05 | 8.5115e-05 | 8.5115e-05 |   0.0 |  0.00
Output  | 0          | 0          | 0          |   0.0 |  0.00
Modify  | 0          | 0          | 0          |   0.0 |  0.00
Other   |            | 0.005998   |            |       |  0.31

Nlocal:    2402 ave 2402 max 2402 min
Histogram: 1 0 0 0 0 0 0 0 0 0
Nghost:    0 ave 0 max 0 min
Histogram: 1 0 0 0 0 0 0 0 0 0
Neighs:    142704 ave 142704 max 142704 min
Histogram: 1 0 0 0 0 0 0 0 0 0

Total # of neighbors = 142704
Ave neighs/atom = 59.4105
Ave special neighs/atom = 11.1882
Neighbor list builds = 0
Dangerous builds = 0
write_dump all custom pysimm.dump.tmp id q x y z vx vy vz
quit


################################################################################
##################################    Init    ##################################
################################################################################
units           real
atom_style      full
pair_style      lj/cut/coul/long 12.0  12.0
kspace_style    pppm 1e-4
bond_style      harmonic
angle_style     harmonic
dihedral_style  fourier
improper_style  cvff
special_bonds   amber
pair_modify     mix arithmetic
read_data       temp.lmps
  orthogonal box = (-219.477 -219.477 -219.477) to (219.477 219.477 219.477)
  1 by 1 by 1 MPI processor grid
  reading atoms ...
  2452 atoms
  reading velocities ...
  2452 velocities
  scanning bonds ...
  3 = max bonds/atom
  scanning angles ...
  6 = max angles/atom
  scanning dihedrals ...
  24 = max dihedrals/atom
  scanning impropers ...
  2 = max impropers/atom
  reading bonds ...
  2696 bonds
  reading angles ...
  4704 angles
  reading dihedrals ...
  7248 dihedrals
  reading impropers ...
  784 impropers
  4 = max # of 1-2 neighbors
  10 = max # of 1-3 neighbors
  19 = max # of 1-4 neighbors
  22 = max # of special neighbors
  special bonds CPU = 0.00197816 secs
  read_data CPU = 0.0249081 secs
################################################################################

min_style cg
minimize 1e-06 1e-06 1000000 10000000
WARNING: Using 'neigh_modify every 1 delay 0 check yes' setting during minimization (../min.cpp:190)
PPPM initialization ...
  using 12-bit tables for long-range coulomb (../kspace.cpp:332)
  G vector (1/distance) = 0.0739223
  grid = 27 27 27
  stencil order = 5
  estimated absolute RMS force accuracy = 0.0351424
  estimated relative force accuracy = 0.00010583
  using double precision KISS FFT
  3d grid and FFT values/proc = 32768 19683
Neighbor list info ...
  update every 1 steps, delay 0 steps, check yes
  max neighbors/atom: 2000, page size: 100000
  master list distance cutoff = 14
  ghost atom cutoff = 14
  binsize = 7, bins = 63 63 63
  1 neighbor lists, perpetual/occasional/extra = 1 0 0
  (1) pair lj/cut/coul/long, perpetual
      attributes: half, newton on
      pair build: half/bin/newton
      stencil: half/bin/3d/newton
      bin: standard
Per MPI rank memory allocation (min/avg/max) = 23.63 | 23.63 | 23.63 Mbytes
Step Temp E_pair E_mol TotEng Press 
       0    481.71036    1208.3595    3258.4037    7986.1224    1.5298605 
      24    481.71036    1192.2179    3030.0701    7741.6473    1.8446096 
Loop time of 1.33157 on 1 procs for 24 steps with 2452 atoms

100.0% CPU use with 1 MPI tasks x no OpenMP threads

Minimization stats:
  Stopping criterion = linesearch alpha is zero
  Energy initial, next-to-last, final = 
         4466.76317942      4222.28800529      4222.28800529
  Force two-norm initial, final = 732.891 75.527
  Force max component initial, final = 384.918 13.4298
  Final line search alpha, max atom move = 1.97692e-12 2.65497e-11
  Iterations, force evaluations = 24 106

MPI task timing breakdown:
Section |  min time  |  avg time  |  max time  |%varavg| %total
---------------------------------------------------------------
Pair    | 0.55152    | 0.55152    | 0.55152    |   0.0 | 41.42
Bond    | 0.12717    | 0.12717    | 0.12717    |   0.0 |  9.55
Kspace  | 0.64847    | 0.64847    | 0.64847    |   0.0 | 48.70
Neigh   | 0          | 0          | 0          |   0.0 |  0.00
Comm    | 4.6968e-05 | 4.6968e-05 | 4.6968e-05 |   0.0 |  0.00
Output  | 0          | 0          | 0          |   0.0 |  0.00
Modify  | 0          | 0          | 0          |   0.0 |  0.00
Other   |            | 0.004365   |            |       |  0.33

Nlocal:    2452 ave 2452 max 2452 min
Histogram: 1 0 0 0 0 0 0 0 0 0
Nghost:    0 ave 0 max 0 min
Histogram: 1 0 0 0 0 0 0 0 0 0
Neighs:    152828 ave 152828 max 152828 min
Histogram: 1 0 0 0 0 0 0 0 0 0

Total # of neighbors = 152828
Ave neighs/atom = 62.3279
Ave special neighs/atom = 11.1884
Neighbor list builds = 0
Dangerous builds = 0
write_dump all custom pysimm.dump.tmp id q x y z vx vy vz
quit


################################################################################
##################################    Init    ##################################
################################################################################
units           real
atom_style      full
pair_style      lj/cut/coul/long 12.0  12.0
kspace_style    pppm 1e-4
bond_style      harmonic
angle_style     harmonic
dihedral_style  fourier
improper_style  cvff
special_bonds   amber
pair_modify     mix arithmetic
read_data       temp.lmps
  orthogonal box = (-220.991 -220.991 -220.991) to (220.991 220.991 220.991)
  1 by 1 by 1 MPI processor grid
  reading atoms ...
  2502 atoms
  reading velocities ...
  2502 velocities
  scanning bonds ...
  3 = max bonds/atom
  scanning angles ...
  6 = max angles/atom
  scanning dihedrals ...
  24 = max dihedrals/atom
  scanning impropers ...
  2 = max impropers/atom
  reading bonds ...
  2751 bonds
  reading angles ...
  4800 angles
  reading dihedrals ...
  7396 dihedrals
  reading impropers ...
  800 impropers
  4 = max # of 1-2 neighbors
  10 = max # of 1-3 neighbors
  19 = max # of 1-4 neighbors
  22 = max # of special neighbors
  special bonds CPU = 0.00192285 secs
  read_data CPU = 0.0253761 secs
################################################################################

min_style cg
minimize 1e-06 1e-06 1000000 10000000
WARNING: Using 'neigh_modify every 1 delay 0 check yes' setting during minimization (../min.cpp:190)
PPPM initialization ...
  using 12-bit tables for long-range coulomb (../kspace.cpp:332)
  G vector (1/distance) = 0.073514
  grid = 27 27 27
  stencil order = 5
  estimated absolute RMS force accuracy = 0.035441
  estimated relative force accuracy = 0.00010673
  using double precision KISS FFT
  3d grid and FFT values/proc = 32768 19683
Neighbor list info ...
  update every 1 steps, delay 0 steps, check yes
  max neighbors/atom: 2000, page size: 100000
  master list distance cutoff = 14
  ghost atom cutoff = 14
  binsize = 7, bins = 64 64 64
  1 neighbor lists, perpetual/occasional/extra = 1 0 0
  (1) pair lj/cut/coul/long, perpetual
      attributes: half, newton on
      pair build: half/bin/newton
      stencil: half/bin/3d/newton
      bin: standard
Per MPI rank memory allocation (min/avg/max) = 23.69 | 23.69 | 23.69 Mbytes
Step Temp E_pair E_mol TotEng Press 
       0    506.19495    1213.9328    3429.1318    8416.7509    1.5472103 
      12    506.19495    1216.1599    3221.1827     8211.029    1.9617298 
Loop time of 1.03908 on 1 procs for 12 steps with 2502 atoms

100.0% CPU use with 1 MPI tasks x no OpenMP threads

Minimization stats:
  Stopping criterion = linesearch alpha is zero
  Energy initial, next-to-last, final = 
          4643.0645203      4437.34263519      4437.34263519
  Force two-norm initial, final = 730.042 75.8796
  Force max component initial, final = 360.119 24.4785
  Final line search alpha, max atom move = 1.39166e-12 3.40658e-11
  Iterations, force evaluations = 12 82

MPI task timing breakdown:
Section |  min time  |  avg time  |  max time  |%varavg| %total
---------------------------------------------------------------
Pair    | 0.42512    | 0.42512    | 0.42512    |   0.0 | 40.91
Bond    | 0.10198    | 0.10198    | 0.10198    |   0.0 |  9.81
Kspace  | 0.5088     | 0.5088     | 0.5088     |   0.0 | 48.97
Neigh   | 0          | 0          | 0          |   0.0 |  0.00
Comm    | 5.1975e-05 | 5.1975e-05 | 5.1975e-05 |   0.0 |  0.01
Output  | 0          | 0          | 0          |   0.0 |  0.00
Modify  | 0          | 0          | 0          |   0.0 |  0.00
Other   |            | 0.003116   |            |       |  0.30

Nlocal:    2502 ave 2502 max 2502 min
Histogram: 1 0 0 0 0 0 0 0 0 0
Nghost:    0 ave 0 max 0 min
Histogram: 1 0 0 0 0 0 0 0 0 0
Neighs:    152396 ave 152396 max 152396 min
Histogram: 1 0 0 0 0 0 0 0 0 0

Total # of neighbors = 152396
Ave neighs/atom = 60.9097
Ave special neighs/atom = 11.1886
Neighbor list builds = 0
Dangerous builds = 0
write_dump all custom pysimm.dump.tmp id q x y z vx vy vz
quit
