pySIMM System Object

502 atoms
551 bonds
960 angles
1476 dihedrals
160 impropers

9 atom types
11 bond types
18 angle types
7 dihedral types
4 improper types

-103.268007 103.268007 xlo xhi
-103.268007 103.268007 ylo yhi
-103.268007 103.268007 zlo zhi

Masses

   1	14.01	# n
   2	12.01	# c
   3	12.01	# ca
   4	1.008	# hn
   5	16.0	# o
   6	1.008	# ha
   7	12.01	# c3
   8	19.0	# f
   9	1.008	# hc

Pair Coeffs

   1	0.17	3.249998523775958	# n
   2	0.086	3.3996695084235347	# c
   3	0.086	3.3996695084235347	# ca
   4	0.0157	1.069078461768407	# hn
   5	0.21	2.959921901149463	# o
   6	0.015	2.59964245953351	# ha
   7	0.1094	3.3996695084235347	# c3
   8	0.061	3.1181455134911875	# f
   9	0.0157	2.649532787749369	# hc

Bond Coeffs

   1	427.6	1.3789	# c,n
   2	461.1	1.3984	# ca,ca
   3	345.9	1.4906	# c,ca
   4	345.8	1.086	# ca,ha
   5	637.7	1.2183	# c,o
   6	321.0	1.5156	# c3,ca
   7	300.9	1.5375	# c3,c3
   8	356.9	1.3497	# c3,f
   9	384.2	1.4121	# ca,n
  10	330.6	1.0969	# c3,hc
  11	403.2	1.0129	# hn,n

Angle Coeffs

   1	48.18	119.88	# ca,ca,ha
   2	63.15	112.07	# c3,c3,ca
   3	70.89	107.36	# f,c3,f
   4	67.87	120.19	# ca,ca,n
   5	68.72	122.6	# ca,c,o
   6	63.56	112.24	# ca,c3,ca
   7	63.82	123.71	# c,n,ca
   8	74.22	123.05	# n,c,o
   9	48.33	117.55	# c,n,hn
  10	67.68	115.25	# ca,c,n
  11	64.28	120.33	# c,ca,ca
  12	66.11	109.24	# c3,c3,f
  13	46.8	110.47	# ca,c3,hc
  14	39.4	107.58	# hc,c3,hc
  15	66.62	120.02	# ca,ca,ca
  16	63.53	120.77	# c3,ca,ca
  17	62.86	111.51	# c3,c3,c3
  18	63.74	127.08	# c,n,c

Dihedral Coeffs

   1	1	2.5	2	180	# X,c,n,X
   2	1	0.45	2	180	# X,ca,n,X
   3	2	2.5	2	180	2.0	1	0	# hn,n,c,o
   4	1	3.625	2	180	# X,ca,ca,X
   5	1	1.0	2	180	# X,c,ca,X
   6	1	0.15555555555555556	3	0	# X,c3,c3,X
   7	1	0.0	2	0	# X,c3,ca,X

Improper Coeffs

   1	1.1	-1	2	# ca,ca,ca,c3
   2	10.5	-1	2	# c,X,X,o
   3	1.1	-1	2	# ca,X,X,ha
   4	1.1	-1	2	# n,X,X,hn

Atoms

   1	1	1	0.486064	-17.8351	1.68648	-50.4333
   2	1	2	0.047133	-17.0206	1.28896	-51.4918
   3	1	3	0.001076	-17.2855	2.26917	-52.5742
   4	1	2	0.034038	-18.5694	2.83743	-50.7208
   5	1	3	0.050122	-18.2003	3.1925	-52.115
   6	1	5	-0.383076	-16.2949	0.311533	-51.5654
   7	1	5	-0.380811	-19.3897	3.40685	-50.0202
   8	1	3	-0.001248	-16.8101	2.29061	-53.8884
   9	1	3	-0.036565	-18.6795	4.20788	-52.9454
  10	1	3	-0.208842	-18.2095	4.25082	-54.2754
  11	1	3	-0.065319	-17.2757	3.29866	-54.7775
  12	1	6	0.153391	-16.1187	1.50909	-54.182
  13	1	6	0.155343	-19.4127	4.92154	-52.5754
  14	1	6	0.174191	-18.5925	5.0311	-54.9299
  15	1	7	-0.106637	-16.8689	3.35548	-56.2857
  16	1	7	0.445763	-15.6674	2.39718	-56.6402
  17	1	8	-0.144255	-14.6017	2.64237	-55.844
  18	1	8	-0.136881	-15.2224	2.55807	-57.907
  19	1	8	-0.144092	-15.9833	1.08824	-56.5184
  20	1	7	0.367264	-18.1455	2.90893	-57.0988
  21	1	8	-0.12104	-18.7229	1.81558	-56.5498
  22	1	8	-0.122614	-17.8978	2.59138	-58.3882
  23	1	8	-0.112321	-19.0882	3.8778	-57.1162
  24	1	3	-0.021957	-16.3952	4.79151	-56.6594
  25	1	3	-0.054241	-16.3685	5.22376	-58.0123
  26	1	3	-0.111709	-15.7857	6.45694	-58.3228
  27	1	3	-0.087244	-15.8303	5.6494	-55.6713
  28	1	3	-0.118951	-15.2772	6.90287	-56.0019
  29	1	3	-0.044875	-15.2593	7.27721	-57.3477
  30	1	2	0.461883	-14.5945	8.42807	-58.0134
  31	1	1	-0.007433	-14.7292	8.19167	-59.3744
  32	1	2	0.491356	-15.4641	7.04748	-59.6485
  33	1	3	-0.019445	-14.0454	8.94126	-60.367
  34	1	3	-0.186861	-14.7251	9.95791	-61.0625
  35	1	3	-0.068374	-14.0602	10.722	-62.0341
  36	1	3	-0.009193	-12.6881	8.67302	-60.6539
  37	1	3	0.220761	-12.027	9.45036	-61.6253
  38	1	3	-0.402098	-12.7075	10.4697	-62.3099
  39	1	6	0.148422	-15.7718	10.1571	-60.8487
  40	1	6	0.146291	-14.5927	11.5075	-62.5672
  41	1	6	0.158981	-14.8169	7.53549	-55.2454
  42	1	6	0.141813	-15.7716	5.33307	-54.6339
  43	1	6	0.143633	-16.708	4.5958	-58.8296
  44	1	5	-0.474465	-15.6936	6.54343	-60.734
  45	1	5	-0.469737	-13.9571	9.30872	-57.4618
  46	1	7	-0.37887	-11.9364	7.5547	-59.9311
  47	1	9	0.115886	-10.9229	7.42351	-60.3304
  48	1	9	0.123845	-12.4535	6.5928	-60.042
  49	1	9	0.138418	-11.8386	7.77279	-58.8597
  50	1	6	0.21348	-12.1798	11.057	-63.0555
  51	1	1	0.486064	-14.1224	5.35444	-35.2431
  52	1	2	0.047133	-13.9114	5.89653	-36.5083
  53	1	3	0.001076	-14.2209	4.7997	-37.4564
  54	1	2	0.034038	-14.5895	4.04025	-35.2893
  55	1	3	0.050122	-14.6272	3.69584	-36.738
  56	1	5	-0.383076	-13.4827	7.0009	-36.7976
  57	1	5	-0.380811	-14.833	3.29227	-34.3571
  58	1	3	-0.001248	-14.0449	4.75896	-38.8411
  59	1	3	-0.036565	-14.9063	2.48604	-37.3822
  60	1	3	-0.208842	-14.7383	2.42351	-38.7853
  61	1	3	-0.065319	-14.2935	3.54597	-39.5411
  62	1	6	0.153391	-13.6703	5.65673	-39.3183
  63	1	6	0.155343	-15.2	1.61207	-36.8043
  64	1	6	0.174191	-14.9121	1.47217	-39.2842
  65	1	7	-0.106637	-13.9459	3.36851	-41.0556
  66	1	7	0.445763	-13.7305	4.74138	-41.8025
  67	1	8	-0.144255	-13.6262	4.59498	-43.1431
  68	1	8	-0.136881	-12.6106	5.3897	-41.4106
  69	1	8	-0.144092	-14.7798	5.57152	-41.6031
  70	1	7	0.367264	-12.6021	2.54259	-41.0912
  71	1	8	-0.12104	-11.7192	2.99054	-40.169
  72	1	8	-0.122614	-11.9552	2.59324	-42.2765
  73	1	8	-0.112321	-12.8179	1.23635	-40.8164
  74	1	3	-0.021957	-15.1043	2.66284	-41.8226
  75	1	3	-0.054241	-14.8593	1.95952	-43.0336
  76	1	3	-0.111709	-15.9424	1.54346	-43.815
  77	1	3	-0.087244	-16.4577	2.8781	-41.4364
  78	1	3	-0.118951	-17.5368	2.4254	-42.2264
  79	1	3	-0.044875	-17.2453	1.77231	-43.429
  80	1	2	0.461883	-18.1402	1.34227	-44.5389
  81	1	1	-0.007433	-17.2948	0.916714	-45.5556
  82	1	2	0.491356	-15.9571	0.967134	-45.1859
  83	1	3	-0.019445	-17.7503	0.535292	-46.8499
  84	1	3	-0.186861	-18.4549	-0.675298	-46.973
  85	1	3	-0.068374	-18.9276	-1.10495	-48.2179
  86	1	3	-0.009193	-17.5268	1.35186	-47.9889
  87	1	3	0.220761	-18.0113	0.913525	-49.2502
  88	1	3	-0.402098	-18.7021	-0.314676	-49.3511
  89	1	6	0.148422	-18.6394	-1.28893	-46.0947
  90	1	6	0.146291	-19.4674	-2.04699	-48.3009
  91	1	6	0.158981	-18.568	2.63629	-41.9494
  92	1	6	0.141813	-16.6847	3.45637	-40.5448
  93	1	6	0.143633	-13.8604	1.81207	-43.4296
  94	1	5	-0.474465	-14.9792	0.686759	-45.8571
  95	1	5	-0.469737	-19.3562	1.42308	-44.558
  96	1	7	-0.37887	-16.7534	2.67224	-47.8423
  97	1	9	0.115886	-15.67	2.49009	-47.8544
  98	1	9	0.123845	-16.9948	3.18136	-46.9014
  99	1	9	0.138418	-16.9736	3.4022	-48.6283
 100	1	6	0.21348	-19.0633	-0.657253	-50.3188
 101	1	1	0.486064	-0.768856	10.2324	-27.5744
 102	1	2	0.047133	-0.811417	9.11468	-28.4074
 103	1	3	0.001076	-2.25567	8.87747	-28.6613
 104	1	2	0.034038	-2.02648	10.7877	-27.3483
 105	1	3	0.050122	-2.97573	9.87367	-28.0342
 106	1	5	-0.383076	0.107956	8.38339	-28.7347
 107	1	5	-0.380811	-2.31795	11.7363	-26.6392
 108	1	3	-0.001248	-2.88459	7.79052	-29.2802
 109	1	3	-0.036565	-4.37133	9.84273	-27.9991
 110	1	3	-0.208842	-5.02573	8.75857	-28.6209
 111	1	3	-0.065319	-4.30504	7.71836	-29.2729
 112	1	6	0.153391	-2.25788	7.01239	-29.7024
 113	1	6	0.155343	-4.92438	10.6112	-27.4633
 114	1	6	0.174191	-6.11082	8.70923	-28.557
 115	1	7	-0.106637	-5.0892	6.49328	-29.8354
 116	1	7	0.445763	-4.27798	5.66709	-30.9038
 117	1	8	-0.144255	-3.73713	6.4743	-31.8441
 118	1	8	-0.136881	-5.06733	4.78964	-31.5644
 119	1	8	-0.144092	-3.26764	4.94504	-30.3693
 120	1	7	0.367264	-5.39771	5.56858	-28.5956
 121	1	8	-0.12104	-4.29937	5.37324	-27.8306
 122	1	8	-0.122614	-5.84468	4.33967	-28.9401
 123	1	8	-0.112321	-6.32712	6.12006	-27.7822
 124	1	3	-0.021957	-6.37401	6.99756	-30.5602
 125	1	3	-0.054241	-7.62641	6.33684	-30.4429
 126	1	3	-0.111709	-8.72873	6.83816	-31.1444
 127	1	3	-0.087244	-6.29152	8.12749	-31.423
 128	1	3	-0.118951	-7.41407	8.611	-32.1289
 129	1	3	-0.044875	-8.63153	7.94169	-31.9652
 130	1	2	0.461883	-9.96421	8.17604	-32.5895
 131	1	1	-0.007433	-10.7868	7.17259	-32.0937
 132	1	2	0.491356	-10.1245	6.33291	-31.2104
 133	1	3	-0.019445	-12.134	6.96886	-32.5029
 134	1	3	-0.186861	-13.1696	7.52267	-31.7298
 135	1	3	-0.068374	-14.5095	7.34043	-32.0967
 136	1	3	-0.009193	-12.4355	6.21176	-33.6599
 137	1	3	0.220761	-13.7926	6.04767	-34.0434
 138	1	3	-0.402098	-14.8198	6.60922	-33.2525
 139	1	6	0.148422	-12.9347	8.09587	-30.8362
 140	1	6	0.146291	-15.3028	7.77247	-31.4883
 141	1	6	0.158981	-7.33933	9.47024	-32.7928
 142	1	6	0.141813	-5.33994	8.63662	-31.556
 143	1	6	0.143633	-7.76783	5.44692	-29.8388
 144	1	5	-0.474465	-10.5617	5.35085	-30.6374
 145	1	5	-0.469737	-10.2418	9.0451	-33.3975
 146	1	7	-0.37887	-11.29	5.60385	-34.4838
 147	1	9	0.115886	-11.6036	4.75763	-35.1054
 148	1	9	0.123845	-10.4897	5.21213	-33.8443
 149	1	9	0.138418	-10.8511	6.36084	-35.149
 150	1	6	0.21348	-15.8611	6.47912	-33.5388
 151	1	1	0.486064	5.72694	6.70689	-13.1964
 152	1	2	0.047133	4.6912	5.96561	-13.768
 153	1	3	0.001076	4.49362	6.54693	-15.1215
 154	1	2	0.034038	6.26032	7.64814	-14.0778
 155	1	3	0.050122	5.42645	7.54573	-15.3039
 156	1	5	-0.383076	3.9808	5.12821	-13.2372
 157	1	5	-0.380811	7.10873	8.4958	-13.855
 158	1	3	-0.001248	3.46624	6.32183	-16.0462
 159	1	3	-0.036565	5.38319	8.37624	-16.4262
 160	1	3	-0.208842	4.34696	8.17627	-17.3634
 161	1	3	-0.065319	3.37534	7.14752	-17.2012
 162	1	6	0.153391	2.72182	5.56881	-15.8099
 163	1	6	0.155343	6.09474	9.19246	-16.531
 164	1	6	0.174191	4.27915	8.87059	-18.1976
 165	1	7	-0.106637	2.1647	7.04601	-18.181
 166	1	7	0.445763	1.6963	5.55503	-18.4047
 167	1	8	-0.144255	2.74928	4.73016	-18.6014
 168	1	8	-0.136881	0.904386	5.44015	-19.4953
 169	1	8	-0.144092	0.992544	5.03812	-17.3731
 170	1	7	0.367264	0.989794	7.8597	-17.5155
 171	1	8	-0.12104	0.760661	7.48729	-16.2357
 172	1	8	-0.122614	-0.186143	7.71365	-18.1675
 173	1	8	-0.112321	1.27496	9.18081	-17.4643
 174	1	3	-0.021957	2.56276	7.59476	-19.5912
 175	1	3	-0.054241	1.77797	8.54112	-20.3083
 176	1	3	-0.111709	2.1813	8.93442	-21.5905
 177	1	3	-0.087244	3.7309	7.08524	-20.2272
 178	1	3	-0.118951	4.11393	7.48762	-21.5248
 179	1	3	-0.044875	3.31017	8.41942	-22.1896
 180	1	2	0.461883	3.40081	8.97456	-23.5697
 181	1	1	-0.007433	2.28215	9.78501	-23.7205
 182	1	2	0.491356	1.51816	9.84545	-22.5606
 183	1	3	-0.019445	1.90474	10.3993	-24.9513
 184	1	3	-0.186861	2.69586	11.445	-25.4615
 185	1	3	-0.068374	2.34811	12.0904	-26.6563
 186	1	3	-0.009193	0.75435	9.9721	-25.6612
 187	1	3	0.220761	0.400279	10.6326	-26.8672
 188	1	3	-0.402098	1.19948	11.6903	-27.3545
 189	1	6	0.148422	3.58798	11.7618	-24.9266
 190	1	6	0.146291	2.96785	12.9023	-27.0346
 191	1	6	0.158981	4.99487	7.07151	-22.0098
 192	1	6	0.141813	4.34875	6.35425	-19.7118
 193	1	6	0.143633	0.858019	8.964	-19.9194
 194	1	5	-0.474465	0.481534	10.458	-22.372
 195	1	5	-0.469737	4.25684	8.71394	-24.3973
 196	1	7	-0.37887	-0.108943	8.82483	-25.1082
 197	1	9	0.115886	0.484529	8.09096	-24.5511
 198	1	9	0.123845	-0.614364	8.243	-25.8862
 199	1	9	0.138418	-0.879146	9.21617	-24.4284
 200	1	6	0.21348	0.927514	12.2019	-28.2752
 201	1	1	0.486064	8.9662	0.249174	-1.72901
 202	1	2	0.047133	9.88369	-0.139958	-2.70573
 203	1	3	0.001076	10.5033	1.12683	-3.18135
 204	1	2	0.034038	8.97783	1.62216	-1.49344
 205	1	3	0.050122	9.95354	2.1703	-2.46484
 206	1	5	-0.383076	10.0685	-1.25341	-3.16781
 207	1	5	-0.380811	8.27403	2.26722	-0.733716
 208	1	3	-0.001248	11.4203	1.34917	-4.21756
 209	1	3	-0.036565	10.267	3.49777	-2.75634
 210	1	3	-0.208842	11.1699	3.74451	-3.80886
 211	1	3	-0.065319	11.768	2.68793	-4.55187
 212	1	6	0.153391	11.818	0.487404	-4.74309
 213	1	6	0.155343	9.80391	4.30868	-2.19799
 214	1	6	0.174191	11.4012	4.77963	-4.05039
 215	1	7	-0.106637	12.775	3.06044	-5.68091
 216	1	7	0.445763	14.0804	3.58019	-4.95914
 217	1	8	-0.144255	15.1251	3.7575	-5.79857
 218	1	8	-0.136881	14.4934	2.71687	-4.0029
 219	1	8	-0.144092	13.8877	4.76249	-4.3318
 220	1	7	0.367264	13.1717	1.8524	-6.61491
 221	1	8	-0.12104	13.9158	0.916608	-5.98392
 222	1	8	-0.122614	13.8864	2.2649	-7.68647
 223	1	8	-0.112321	12.0896	1.21794	-7.11904
 224	1	3	-0.021957	12.0821	4.11415	-6.5962
 225	1	3	-0.054241	10.764	3.84985	-7.05206
 226	1	3	-0.111709	10.1348	4.76486	-7.90406
 227	1	3	-0.087244	12.7122	5.31746	-7.02842
 228	1	3	-0.118951	12.049	6.23966	-7.86798
 229	1	3	-0.044875	10.7527	5.93255	-8.29676
 230	1	2	0.461883	9.80563	6.69192	-9.16191
 231	1	1	-0.007433	8.66018	5.90855	-9.237
 232	1	2	0.491356	8.77921	4.72958	-8.51336
 233	1	3	-0.019445	7.45104	6.32466	-9.86295
 234	1	3	-0.186861	6.44156	6.82657	-9.02205
 235	1	3	-0.068374	5.21927	7.25825	-9.54521
 236	1	3	-0.009193	7.23801	6.24625	-11.2652
 237	1	3	0.220761	6.00184	6.70414	-11.7956
 238	1	3	-0.402098	5.00508	7.20154	-10.9263
 239	1	6	0.148422	6.60312	6.87591	-7.948
 240	1	6	0.146291	4.44398	7.63705	-8.881
 241	1	6	0.158981	12.53	7.16398	-8.18289
 242	1	6	0.141813	13.7244	5.56063	-6.72368
 243	1	6	0.143633	10.2331	2.9473	-6.75818
 244	1	5	-0.474465	7.94195	3.85976	-8.34949
 245	1	5	-0.469737	9.99397	7.7953	-9.6437
 246	1	7	-0.37887	8.30156	5.65328	-12.1984
 247	1	9	0.115886	8.59739	6.37347	-12.9726
 248	1	9	0.123845	7.92685	4.75008	-12.6977
 249	1	9	0.138418	9.22346	5.36694	-11.6813
 250	1	6	0.21348	4.05181	7.53794	-11.3291
 251	1	1	0.486064	2.73072	-8.73612	10.1232
 252	1	2	0.047133	4.08867	-8.91651	9.85399
 253	1	3	0.001076	4.29746	-8.38196	8.48657
 254	1	2	0.034038	2.05423	-8.13021	9.06104
 255	1	3	0.050122	3.0927	-7.9023	8.01873
 256	1	5	-0.383076	4.93765	-9.44443	10.5528
 257	1	5	-0.380811	0.860551	-7.90345	8.95022
 258	1	3	-0.001248	5.45333	-8.38448	7.69759
 259	1	3	-0.036565	2.98715	-7.36009	6.7348
 260	1	3	-0.208842	4.14733	-7.3291	5.9293
 261	1	3	-0.065319	5.3921	-7.85303	6.38066
 262	1	6	0.153391	6.35226	-8.82306	8.11685
 263	1	6	0.155343	2.02945	-6.99638	6.36833
 264	1	6	0.174191	4.06363	-6.92548	4.9223
 265	1	7	-0.106637	6.59319	-7.91236	5.3867
 266	1	7	0.445763	7.97835	-8.22356	6.07786
 267	1	8	-0.144255	8.21869	-7.39923	7.12276
 268	1	8	-0.136881	9.01326	-8.05251	5.22419
 269	1	8	-0.144092	8.0708	-9.48705	6.54937
 270	1	7	0.367264	6.26823	-9.07773	4.37346
 271	1	8	-0.12104	5.92523	-10.2159	5.0192
 272	1	8	-0.122614	7.30591	-9.38946	3.56507
 273	1	8	-0.112321	5.22169	-8.77801	3.57129
 274	1	3	-0.021957	6.75537	-6.51754	4.71252
 275	1	3	-0.054241	6.93171	-6.34132	3.31179
 276	1	3	-0.111709	7.13131	-5.04652	2.81023
 277	1	3	-0.087244	6.78528	-5.36261	5.54327
 278	1	3	-0.118951	7.00906	-4.07332	5.02119
 279	1	3	-0.044875	7.18798	-3.94729	3.64156
 280	1	2	0.461883	7.36117	-2.73081	2.80465
 281	1	1	-0.007433	7.33889	-3.17906	1.49213
 282	1	2	0.491356	7.23912	-4.56277	1.40534
 283	1	3	-0.019445	7.18177	-2.29691	0.387726
 284	1	3	-0.186861	5.87056	-2.11412	-0.0879114
 285	1	3	-0.068374	5.59459	-1.19591	-1.10454
 286	1	3	-0.009193	8.25202	-1.54723	-0.164752
 287	1	3	0.220761	7.96387	-0.603212	-1.1848
 288	1	3	-0.402098	6.63885	-0.440735	-1.64656
 289	1	6	0.148422	5.05014	-2.6768	0.350106
 290	1	6	0.146291	4.57195	-1.05406	-1.45042
 291	1	6	0.158981	7.02828	-3.19598	5.6647
 292	1	6	0.141813	6.64317	-5.46388	6.61609
 293	1	6	0.143633	6.91343	-7.16829	2.60887
 294	1	5	-0.474465	7.11236	-5.24292	0.402486
 295	1	5	-0.469737	7.40294	-1.57993	3.2041
 296	1	7	-0.37887	9.69083	-1.72453	0.336161
 297	1	9	0.115886	9.78974	-2.50204	1.10124
 298	1	9	0.123845	10.0753	-0.795189	0.776352
 299	1	9	0.138418	10.3598	-2.01675	-0.485289
 300	1	6	0.21348	6.4164	0.298539	-2.41309
 301	1	1	0.486064	2.95351	-7.44566	24.1342
 302	1	2	0.047133	2.17245	-6.34917	23.7721
 303	1	3	0.001076	1.33001	-6.81729	22.6418
 304	1	2	0.034038	2.67546	-8.5765	23.3642
 305	1	3	0.050122	1.62043	-8.14377	22.403
 306	1	5	-0.383076	2.20051	-5.21914	24.2293
 307	1	5	-0.380811	3.21085	-9.6714	23.4115
 308	1	3	-0.001248	0.395202	-6.11307	21.8733
 309	1	3	-0.036565	0.964902	-8.84727	21.3867
 310	1	3	-0.208842	-0.000173738	-8.16119	20.6133
 311	1	3	-0.065319	-0.286314	-6.78063	20.8181
 312	1	6	0.153391	0.210286	-5.07521	22.126
 313	1	6	0.155343	1.19184	-9.89678	21.2114
 314	1	6	0.174191	-0.534843	-8.72003	19.8481
 315	1	7	-0.106637	-1.39463	-6.07254	19.9731
 316	1	7	0.445763	-2.74311	-6.29485	20.7588
 317	1	8	-0.144255	-3.12485	-7.5918	20.7207
 318	1	8	-0.136881	-3.76981	-5.55221	20.2852
 319	1	8	-0.144092	-2.62585	-5.97931	22.0688
 320	1	7	0.367264	-1.14632	-4.52408	19.8081
 321	1	8	-0.12104	-1.3929	-3.80792	20.9275
 322	1	8	-0.122614	-1.93211	-3.99245	18.8435
 323	1	8	-0.112321	0.130874	-4.26731	19.447
 324	1	3	-0.021957	-1.42119	-6.64724	18.5183
 325	1	3	-0.054241	-0.199981	-6.81586	17.8096
 326	1	3	-0.111709	-0.230889	-7.29775	16.4905
 327	1	3	-0.087244	-2.63526	-6.95535	17.8347
 328	1	3	-0.118951	-2.64443	-7.43079	16.5087
 329	1	3	-0.044875	-1.42043	-7.59102	15.8575
 330	1	2	0.461883	-1.12104	-8.15167	14.5137
 331	1	1	-0.007433	0.262383	-8.20592	14.4369
 332	1	2	0.491356	0.876673	-7.6745	15.5666
 333	1	3	-0.019445	0.942922	-8.95954	13.4394
 334	1	3	-0.186861	1.03849	-10.3444	13.6622
 335	1	3	-0.068374	1.65801	-11.1811	12.7307
 336	1	3	-0.009193	1.47914	-8.38736	12.2566
 337	1	3	0.220761	2.11435	-9.24023	11.3103
 338	1	3	-0.402098	2.19258	-10.6294	11.5618
 339	1	6	0.148422	0.621854	-10.7791	14.5675
 340	1	6	0.146291	1.72849	-12.2509	12.9208
 341	1	6	0.158981	-3.57538	-7.68431	16.0044
 342	1	6	0.141813	-3.6005	-6.83755	18.3118
 343	1	6	0.143633	0.757079	-6.59652	18.2782
 344	1	5	-0.474465	2.06704	-7.63765	15.823
 345	1	5	-0.469737	-1.93454	-8.59405	13.7213
 346	1	7	-0.37887	1.36523	-6.8788	12.0026
 347	1	9	0.115886	0.568194	-6.66904	11.2758
 348	1	9	0.123845	2.29846	-6.45742	11.6096
 349	1	9	0.138418	1.13069	-6.30723	12.9071
 350	1	6	0.21348	2.69739	-11.2829	10.853
 351	1	1	0.486064	1.69054	-6.99967	39.8343
 352	1	2	0.047133	2.93232	-6.44614	39.5166
 353	1	3	0.001076	3.03721	-6.54826	38.0373
 354	1	2	0.034038	0.978269	-7.39993	38.7015
 355	1	3	0.050122	1.87738	-7.1151	37.5557
 356	1	5	-0.383076	3.807	-6.06008	40.2742
 357	1	5	-0.380811	-0.104118	-7.9606	38.644
 358	1	3	-0.001248	4.09397	-6.20733	37.1861
 359	1	3	-0.036565	1.70876	-7.37268	36.1933
 360	1	3	-0.208842	2.75227	-7.01273	35.3133
 361	1	3	-0.065319	3.96508	-6.43534	35.7871
 362	1	6	0.153391	4.97659	-5.75167	37.623
 363	1	6	0.155343	0.78983	-7.82924	35.8319
 364	1	6	0.174191	2.59467	-7.17726	34.2507
 365	1	7	-0.106637	5.07622	-5.97401	34.7945
 366	1	7	0.445763	4.93921	-4.40716	34.6705
 367	1	8	-0.144255	3.74898	-4.06086	34.1296
 368	1	8	-0.136881	5.91986	-3.86079	33.9165
 369	1	8	-0.144092	4.9802	-3.77327	35.8644
 370	1	7	0.367264	6.52159	-6.31868	35.3379
 371	1	8	-0.12104	6.96955	-5.48479	36.302
 372	1	8	-0.122614	7.44585	-6.27772	34.3514
 373	1	8	-0.112321	6.57369	-7.56037	35.8706
 374	1	3	-0.021957	4.93474	-6.70421	33.4108
 375	1	3	-0.054241	4.78406	-6.01354	32.1737
 376	1	3	-0.111709	4.76153	-6.73908	30.9747
 377	1	3	-0.087244	5.02667	-8.12596	33.3581
 378	1	3	-0.118951	5.03199	-8.83571	32.136
 379	1	3	-0.044875	4.90919	-8.10809	30.9468
 380	1	2	0.461883	4.95219	-8.54415	29.5185
 381	1	1	-0.007433	4.80703	-7.38327	28.767
 382	1	2	0.491356	4.67079	-6.25769	29.5698
 383	1	3	-0.019445	4.93297	-7.3083	27.3465
 384	1	3	-0.186861	6.16999	-6.87863	26.8336
 385	1	3	-0.068374	6.35318	-6.69358	25.4592
 386	1	3	-0.009193	3.84967	-7.56301	26.4648
 387	1	3	0.220761	4.0284	-7.34509	25.0692
 388	1	3	-0.402098	5.28486	-6.91984	24.5834
 389	1	6	0.148422	6.99393	-6.66429	27.5101
 390	1	6	0.146291	7.31291	-6.34572	25.0803
 391	1	6	0.158981	5.14774	-9.91761	32.1121
 392	1	6	0.141813	5.11963	-8.69546	34.2785
 393	1	6	0.143633	4.71417	-4.93385	32.1013
 394	1	5	-0.474465	4.54506	-5.09811	29.2181
 395	1	5	-0.469737	5.15057	-9.67722	29.1159
 396	1	7	-0.37887	2.50832	-8.02943	27.0405
 397	1	9	0.115886	2.65495	-8.84215	27.7641
 398	1	9	0.123845	1.82408	-8.42543	26.2811
 399	1	9	0.138418	1.99566	-7.20624	27.5552
 400	1	6	0.21348	5.42382	-6.73718	23.5201
 401	1	1	0.486064	7.31625	-5.66192	51.2052
 402	1	2	0.047133	6.48648	-4.54229	51.2955
 403	1	3	0.001076	5.10872	-5.05335	51.0721
 404	1	2	0.034038	6.59986	-6.83844	50.9788
 405	1	3	0.050122	5.17788	-6.41635	50.8836
 406	1	5	-0.383076	6.80233	-3.37472	51.4512
 407	1	5	-0.380811	7.02985	-7.96929	50.8201
 408	1	3	-0.001248	3.89945	-4.3537	50.977
 409	1	3	-0.036565	4.03405	-7.15893	50.5855
 410	1	3	-0.208842	2.80536	-6.47222	50.4776
 411	1	3	-0.065319	2.70207	-5.06174	50.6667
 412	1	6	0.153391	3.93594	-3.2807	51.1247
 413	1	6	0.155343	4.10455	-8.23154	50.417
 414	1	6	0.174191	1.92816	-7.05368	50.2072
 415	1	7	-0.106637	1.30361	-4.36476	50.5001
 416	1	7	0.445763	0.336816	-5.00554	51.5766
 417	1	8	-0.144255	-0.0928003	-6.23166	51.2013
 418	1	8	-0.136881	-0.782681	-4.29062	51.8235
 419	1	8	-0.144092	0.955252	-5.15468	52.7696
 420	1	7	0.367264	1.36838	-2.80603	50.7256
 421	1	8	-0.12104	1.78389	-2.48645	51.9717
 422	1	8	-0.122614	0.179257	-2.1869	50.5498
 423	1	8	-0.112321	2.20286	-2.21848	49.8382
 424	1	3	-0.021957	0.766721	-4.58254	49.0533
 425	1	3	-0.054241	1.63474	-4.99341	48.0074
 426	1	3	-0.111709	1.10372	-5.22611	46.7348
 427	1	3	-0.087244	-0.603549	-4.35305	48.732
 428	1	3	-0.118951	-1.11263	-4.56799	47.4347
 429	1	3	-0.044875	-0.230152	-5.02293	46.4522
 430	1	2	0.461883	-0.490729	-5.48854	45.0641
 431	1	1	-0.007433	0.717886	-6.00828	44.6234
 432	1	2	0.491356	1.7427	-5.83791	45.543
 433	1	3	-0.019445	0.830191	-6.87106	43.5029
 434	1	3	-0.186861	0.635906	-8.24171	43.745
 435	1	3	-0.068374	0.758177	-9.17308	42.7127
 436	1	3	-0.009193	1.15038	-6.4042	42.2053
 437	1	3	0.220761	1.29778	-7.35694	41.159
 438	1	3	-0.402098	1.09407	-8.72988	41.4305
 439	1	6	0.148422	0.391981	-8.5893	44.746
 440	1	6	0.146291	0.603046	-10.2326	42.9099
 441	1	6	0.158981	-2.16779	-4.42431	47.2086
 442	1	6	0.141813	-1.3005	-4.01083	49.4896
 443	1	6	0.143633	2.69412	-5.17418	48.1652
 444	1	5	-0.474465	2.88212	-6.26631	45.4852
 445	1	5	-0.469737	-1.5753	-5.53782	44.5102
 446	1	7	-0.37887	1.34793	-4.90022	41.9769
 447	1	9	0.115886	0.642981	-4.3014	42.5674
 448	1	9	0.123845	1.19612	-4.60209	40.9333
 449	1	9	0.138418	2.36521	-4.59754	42.2626
 450	1	6	0.21348	1.19074	-9.46128	40.6309
 451	1	1	0.486064	19.3464	1.03955	59.4438
 452	1	2	0.047133	18.0288	1.43911	59.6036
 453	1	3	0.001076	17.2472	0.357613	58.9511
 454	1	2	0.034038	19.5128	-0.166885	58.7792
 455	1	3	0.050122	18.1226	-0.593666	58.4632
 456	1	5	-0.383076	17.5981	2.44701	60.1375
 457	1	5	-0.380811	20.5514	-0.742083	58.5007
 458	1	3	-0.001248	15.8652	0.228731	58.8043
 459	1	3	-0.036565	17.6511	-1.72521	57.7948
 460	1	3	-0.208842	16.2566	-1.8585	57.6098
 461	1	3	-0.065319	15.3337	-0.889385	58.1056
 462	1	6	0.153391	15.2418	0.997228	59.2456
 463	1	6	0.155343	18.3494	-2.47319	57.4255
 464	1	6	0.174191	15.9167	-2.73703	57.0732
 465	1	7	-0.106637	13.788	-1.05551	57.956
 466	1	7	0.445763	13.1876	-1.31501	59.3982
 467	1	8	-0.144255	13.895	-2.23848	60.0866
 468	1	8	-0.136881	11.9089	-1.747	59.3371
 469	1	8	-0.144092	13.1966	-0.23501	60.2095
 470	1	7	0.367264	13.1532	0.284816	57.3835
 471	1	8	-0.12104	13.201	1.35776	58.2009
 472	1	8	-0.122614	11.8409	0.13546	57.0915
 473	1	8	-0.112321	13.7977	0.69104	56.2659
 474	1	3	-0.021957	13.4322	-2.26895	57.0059
 475	1	3	-0.054241	12.9538	-2.08936	55.6723
 476	1	3	-0.111709	12.584	-3.19892	54.9038
 477	1	3	-0.087244	13.5581	-3.61925	57.4588
 478	1	3	-0.118951	13.1973	-4.72679	56.6614
 479	1	3	-0.044875	12.6963	-4.48395	55.381
 480	1	2	0.461883	12.1371	-5.41318	54.3603
 481	1	1	-0.007433	11.6753	-4.59993	53.3335
 482	1	2	0.491356	11.9417	-3.25741	53.5629
 483	1	3	-0.019445	10.8976	-5.07041	52.2379
 484	1	3	-0.186861	11.5545	-5.43242	51.0489
 485	1	3	-0.068374	10.8259	-5.88716	49.9435
 486	1	3	-0.009193	9.48486	-5.15427	52.3299
 487	1	3	0.220761	8.74397	-5.59775	51.2005
 488	1	3	-0.402098	9.42964	-5.96885	50.0216
 489	1	6	0.148422	12.6368	-5.36019	50.9797
 490	1	6	0.146291	11.3427	-6.17016	49.0276
 491	1	6	0.158981	13.2781	-5.74481	57.0379
 492	1	6	0.141813	13.9487	-3.84069	58.4436
 493	1	6	0.143633	12.8111	-1.11965	55.2119
 494	1	5	-0.474465	11.6446	-2.30373	52.8655
 495	1	5	-0.469737	12.0258	-6.62188	54.4686
 496	1	7	-0.37887	8.79065	-4.73974	53.6355
 497	1	9	0.115886	8.68046	-3.64707	53.6783
 498	1	9	0.123845	9.35414	-5.05503	54.5217
 499	1	9	0.138418	7.79208	-5.17505	53.7521
 500	1	6	0.21348	8.87023	-6.32699	49.1594
 501	1	6	0	-10.9812	9.26278	-61.852
 502	1	4	0	20.1266	1.58979	59.7818

Velocities

   1	-0.000415287	-7.95713e-05	0.000295026
   2	-0.000510074	-0.000343367	0.000269409
   3	-0.000265722	-0.000308927	0.000131781
   4	-0.000174542	3.54232e-05	0.000120263
   5	-0.000160769	-0.000182846	2.47675e-05
   6	-0.00086514	-0.000623328	0.000277654
   7	-1.76318e-05	0.000319991	3.34199e-05
   8	-0.000178215	-0.00033867	0.000125938
   9	-0.00018431	-0.000283503	-9.71704e-05
  10	-0.000150756	-0.00037477	-9.63546e-05
  11	-9.47854e-05	-0.000343101	1.92529e-05
  12	-0.000188629	-0.000403391	0.000249842
  13	-0.000245219	-0.000311361	-0.000160426
  14	-0.000269698	-0.00055096	-0.000195767
  15	8.10365e-05	-0.000198073	5.66259e-05
  16	-3.28283e-06	-0.000341063	0.000306569
  17	-0.000200678	-0.000498888	0.000607991
  18	0.000313806	-0.000347845	0.00043447
  19	-0.000262738	-0.00033118	0.000232115
  20	0.000163221	-0.000141718	-0.000151894
  21	-0.000466615	0.000315362	0.000193212
  22	0.00046591	-0.00091624	8.21701e-05
  23	0.000489173	0.000172886	-0.000970569
  24	0.000306718	-0.000199964	-4.95932e-06
  25	0.000131176	7.91619e-05	4.89891e-05
  26	0.000225289	0.000100404	0.000170213
  27	0.000663849	-0.000374489	-2.0941e-05
  28	0.000730218	-0.00039404	-1.72742e-05
  29	0.000521424	-0.000142863	9.8049e-05
  30	0.000330342	4.14886e-05	0.00016957
  31	0.000122209	0.0002523	0.000154412
  32	-0.000135359	0.000445949	0.000184258
  33	7.33935e-05	0.000295528	6.36192e-05
  34	-6.54269e-05	0.000318707	0.000192948
  35	-0.000198153	0.000303832	5.92837e-05
  36	-6.13822e-05	0.000160016	-0.000146975
  37	-0.000339628	-7.99471e-06	-0.000469485
  38	-0.000393831	2.03903e-05	-0.000244107
  39	4.21336e-05	0.000493556	0.00028295
  40	-0.00013678	0.000383859	0.000295134
  41	0.000824662	-0.000539469	0.000124413
  42	0.00078688	-0.000604736	-0.000134284
  43	-0.000333963	0.000198408	0.000139006
  44	-0.000617815	0.000764988	9.44115e-05
  45	0.000155899	6.88601e-05	0.000109142
  46	0.00041383	0.000456804	-0.000156604
  47	0.000367459	0.000821178	-0.000404775
  48	0.000693287	0.000314474	3.12346e-05
  49	0.000622209	0.00080664	-0.000256955
  50	-0.000423864	-8.56975e-05	-0.000292613
  51	0.000118346	-7.09765e-05	-0.000278199
  52	0.000287208	3.00732e-05	-0.000195357
  53	0.00020752	0.000135427	-0.000259841
  54	-7.48011e-05	6.22504e-06	-0.000403411
  55	-4.84379e-05	0.000142869	-0.000404654
  56	0.000416671	8.81367e-06	-9.11644e-05
  57	-0.000165585	-8.25683e-05	-0.000505614
  58	0.00035223	0.00022195	-0.000223166
  59	-0.000231137	0.000245755	-0.000482755
  60	-4.63293e-05	0.000295623	-0.000433528
  61	0.00027391	0.000271516	-0.000265044
  62	0.000496024	0.000200723	-0.000124355
  63	-0.000488769	0.000277326	-0.000562041
  64	-0.000179207	0.000369576	-0.00053172
  65	0.000327745	0.000287054	-0.000200377
  66	0.000526798	0.000308184	-6.42137e-05
  67	0.000634088	0.000407061	-6.24912e-05
  68	0.000550034	0.000180336	9.92974e-05
  69	0.000553904	0.000350404	-7.24425e-05
  70	0.000221698	6.60074e-05	-0.000180476
  71	0.000273809	-0.00017278	-4.96629e-05
  72	0.000314436	6.3882e-05	-0.000134768
  73	1.21378e-05	6.86618e-05	-0.000318047
  74	0.000169186	0.000502937	-0.000159078
  75	6.43616e-05	0.000525819	-0.00015093
  76	-2.45198e-06	0.000401164	5.47691e-05
  77	0.000190699	0.000476058	1.84519e-05
  78	0.000110576	0.000439728	0.000146709
  79	2.82738e-05	0.000433342	0.000138175
  80	-6.20371e-05	0.000321227	0.000247597
  81	-0.00012907	5.78967e-05	0.000294529
  82	-0.000108658	5.67199e-05	0.000228487
  83	-0.00017203	-8.89171e-06	0.000320024
  84	0.000104517	-0.000171847	0.000378677
  85	6.77715e-05	-0.000195423	0.000398509
  86	-0.000413806	6.47639e-05	0.000318465
  87	-0.000439566	3.47244e-05	0.000360895
  88	-0.000284102	-6.86108e-05	0.000375827
  89	0.000411866	-0.000328603	0.000347556
  90	0.000306004	-0.000384924	0.000393517
  91	0.000137947	0.000328363	0.000294005
  92	0.00024492	0.000404877	9.6342e-05
  93	4.62319e-05	0.000561361	-0.000225913
  94	-0.000160759	-0.000324064	0.000322031
  95	-4.82621e-05	0.000600971	0.000206557
  96	-0.000392011	3.13561e-06	0.000294626
  97	-0.000407304	-3.63988e-05	0.000163635
  98	-0.000214664	1.19564e-05	0.000340508
  99	-0.000454252	3.71739e-05	0.000355526
 100	-0.000230397	-0.000173431	0.000450478
 101	-0.00022522	-0.000484084	0.000421659
 102	-0.000305108	-0.000318086	0.000272861
 103	-0.000258295	1.67366e-05	9.7828e-05
 104	-0.000140297	-0.000307185	0.000478326
 105	-0.000213535	3.9914e-05	0.000120861
 106	-0.000403246	-0.000391583	0.000132454
 107	-2.66494e-05	-0.000497675	0.000784989
 108	-0.000223221	0.000124624	-2.29611e-05
 109	-0.000227212	0.000253606	-0.000147921
 110	-0.000215463	0.000329615	-0.000283403
 111	-0.000176138	0.000251819	-0.000163472
 112	-0.000239676	3.02653e-05	0.000136808
 113	-0.000246183	0.000273344	-0.000183592
 114	-0.00023619	0.00038452	-0.000397724
 115	1.9619e-06	0.000154948	-5.20788e-05
 116	-0.000175787	0.000268261	-0.000306234
 117	-0.000370773	0.000345114	-0.000358852
 118	-0.000319735	0.000320548	-0.000203788
 119	-4.52373e-05	0.000209001	-0.000647495
 120	0.000408152	0.000204787	4.91404e-05
 121	0.000744017	-6.66991e-05	-0.00049201
 122	-4.38905e-05	0.000330271	0.000223909
 123	0.000945269	0.000460087	0.000493185
 124	-0.000106018	6.83949e-05	0.000217353
 125	-0.000108584	0.000139983	0.000545696
 126	-7.74682e-05	-6.94483e-05	0.000354485
 127	-9.24632e-05	-0.000101376	1.53126e-05
 128	-0.000112897	-0.000149268	9.07977e-05
 129	-7.01879e-05	-0.000167978	0.000217264
 130	1.1879e-05	-0.000300704	9.06387e-05
 131	8.13565e-05	-0.000401877	-6.03781e-05
 132	3.94122e-06	-0.000281471	0.000126234
 133	0.000116293	-0.000364218	-0.000163241
 134	0.000126042	-0.000295645	-0.000212875
 135	0.000125062	-0.000283839	-0.000197847
 136	0.000129412	-0.000227875	-0.000250444
 137	0.000123365	-0.00021371	-0.000221604
 138	0.000111265	-0.000321273	-0.000163598
 139	0.000146296	-0.000215329	-0.000270505
 140	0.000137955	-0.000233163	-0.00022427
 141	-0.000137722	-0.000254388	-4.74778e-05
 142	-5.75957e-05	-0.000218007	-0.000213732
 143	-9.05761e-05	0.000319277	0.000801998
 144	5.622e-05	-0.000361007	2.24333e-05
 145	-2.67301e-05	-0.000137101	0.000277467
 146	0.000110459	-8.73264e-05	-0.00039132