pySIMM System Object

1452 atoms
1596 bonds
2784 angles
4288 dihedrals
464 impropers

9 atom types
11 bond types
18 angle types
7 dihedral types
4 improper types

-183.384153 183.384153 xlo xhi
-183.384153 183.384153 ylo yhi
-183.384153 183.384153 zlo zhi

Masses

   1	14.01	# n
   2	12.01	# c
   3	12.01	# ca
   4	1.008	# hn
   5	16.0	# o
   6	1.008	# ha
   7	12.01	# c3
   8	19.0	# f
   9	1.008	# hc

Pair Coeffs

   1	0.17	3.249998523775958	# n
   2	0.086	3.3996695084235347	# c
   3	0.086	3.3996695084235347	# ca
   4	0.0157	1.069078461768407	# hn
   5	0.21	2.959921901149463	# o
   6	0.015	2.59964245953351	# ha
   7	0.1094	3.3996695084235347	# c3
   8	0.061	3.1181455134911875	# f
   9	0.0157	2.649532787749369	# hc

Bond Coeffs

   1	427.6	1.3789	# c,n
   2	461.1	1.3984	# ca,ca
   3	345.9	1.4906	# c,ca
   4	345.8	1.086	# ca,ha
   5	637.7	1.2183	# c,o
   6	321.0	1.5156	# c3,ca
   7	300.9	1.5375	# c3,c3
   8	356.9	1.3497	# c3,f
   9	384.2	1.4121	# ca,n
  10	330.6	1.0969	# c3,hc
  11	403.2	1.0129	# hn,n

Angle Coeffs

   1	48.18	119.88	# ca,ca,ha
   2	63.15	112.07	# c3,c3,ca
   3	70.89	107.36	# f,c3,f
   4	67.87	120.19	# ca,ca,n
   5	68.72	122.6	# ca,c,o
   6	63.56	112.24	# ca,c3,ca
   7	63.82	123.71	# c,n,ca
   8	74.22	123.05	# n,c,o
   9	48.33	117.55	# c,n,hn
  10	67.68	115.25	# ca,c,n
  11	64.28	120.33	# c,ca,ca
  12	66.11	109.24	# c3,c3,f
  13	46.8	110.47	# ca,c3,hc
  14	39.4	107.58	# hc,c3,hc
  15	66.62	120.02	# ca,ca,ca
  16	63.53	120.77	# c3,ca,ca
  17	62.86	111.51	# c3,c3,c3
  18	63.74	127.08	# c,n,c

Dihedral Coeffs

   1	1	2.5	2	180	# X,c,n,X
   2	1	0.45	2	180	# X,ca,n,X
   3	2	2.5	2	180	2.0	1	0	# hn,n,c,o
   4	1	3.625	2	180	# X,ca,ca,X
   5	1	1.0	2	180	# X,c,ca,X
   6	1	0.15555555555555556	3	0	# X,c3,c3,X
   7	1	0.0	2	0	# X,c3,ca,X

Improper Coeffs

   1	1.1	-1	2	# ca,ca,ca,c3
   2	10.5	-1	2	# c,X,X,o
   3	1.1	-1	2	# ca,X,X,ha
   4	1.1	-1	2	# n,X,X,hn

Atoms

   1	1	1	0.486064	-2.52142	-51.4458	-54.9992
   2	1	2	0.047133	-3.49061	-52.3179	-54.5056
   3	1	3	0.001076	-3.14141	-53.6485	-55.0659
   4	1	2	0.034038	-1.54557	-52.0975	-55.7532
   5	1	3	0.050122	-1.98331	-53.5189	-55.8042
   6	1	5	-0.383076	-4.49233	-52.0471	-53.8652
   7	1	5	-0.380811	-0.615684	-51.6048	-56.37
   8	1	3	-0.001248	-3.87385	-54.8414	-55.043
   9	1	3	-0.036565	-1.48424	-54.5885	-56.553
  10	1	3	-0.208842	-2.20657	-55.8018	-56.5421
  11	1	3	-0.065319	-3.40892	-55.9553	-55.7948
  12	1	6	0.153391	-4.80812	-54.8524	-54.4928
  13	1	6	0.155343	-0.593373	-54.4623	-57.1648
  14	1	6	0.174191	-1.8464	-56.6198	-57.1631
  15	1	7	-0.106637	-4.2332	-57.2733	-55.9373
  16	1	7	0.445763	-5.24172	-57.5125	-54.7501
  17	1	8	-0.144255	-4.63777	-57.3491	-53.5514
  18	1	8	-0.136881	-5.73702	-58.7711	-54.7583
  19	1	8	-0.144092	-6.30925	-56.6833	-54.7744
  20	1	7	0.367264	-5.04559	-57.1305	-57.2809
  21	1	8	-0.12104	-5.67681	-55.9365	-57.3599
  22	1	8	-0.122614	-6.00062	-58.0749	-57.4358
  23	1	8	-0.112321	-4.23422	-57.198	-58.3608
  24	1	3	-0.021957	-3.26395	-58.4947	-55.9293
  25	1	3	-0.054241	-3.43629	-59.6192	-56.7822
  26	1	3	-0.111709	-2.54434	-60.6945	-56.68
  27	1	3	-0.087244	-2.19892	-58.5279	-54.9855
  28	1	3	-0.118951	-1.30701	-59.6178	-54.9044
  29	1	3	-0.044875	-1.50531	-60.6952	-55.7733
  30	1	2	0.461883	-0.751366	-61.9706	-55.9264
  31	1	1	-0.007433	-1.40296	-62.6667	-56.9357
  32	1	2	0.491356	-2.49493	-61.9731	-57.4385
  33	1	3	-0.019445	-0.97527	-63.927	-57.4368
  34	1	3	-0.186861	-0.174536	-63.9584	-58.5942
  35	1	3	-0.068374	0.259036	-65.179	-59.1333
  36	1	3	-0.009193	-1.35117	-65.1364	-56.8095
  37	1	3	0.220761	-0.909771	-66.3585	-57.3573
  38	1	3	-0.402098	-0.110135	-66.3808	-58.511
  39	1	6	0.148422	0.109673	-63.0305	-59.0826
  40	1	6	0.146291	0.875331	-65.19	-60.0307
  41	1	6	0.158981	-0.49257	-59.6308	-54.1828
  42	1	6	0.141813	-2.06037	-57.6964	-54.2989
  43	1	6	0.143633	-4.23917	-59.688	-57.5085
  44	1	5	-0.474465	-3.25318	-62.31	-58.3309
  45	1	5	-0.469737	0.24273	-62.3022	-55.3035
  46	1	7	-0.37887	-2.23238	-65.1375	-55.5616
  47	1	9	0.115886	-3.2103	-64.685	-55.769
  48	1	9	0.123845	-1.7592	-64.5812	-54.7425
  49	1	9	0.138418	-2.41554	-66.1568	-55.1977
  50	1	6	0.21348	0.216952	-67.3331	-58.9193
  51	1	1	0.486064	1.68624	-36.8784	-48.2661
  52	1	2	0.047133	1.64083	-38.0377	-47.4921
  53	1	3	0.001076	1.11647	-39.0951	-48.3968
  54	1	2	0.034038	1.27214	-37.0981	-49.5808
  55	1	3	0.050122	0.895733	-38.537	-49.6378
  56	1	5	-0.383076	1.95602	-38.1773	-46.3222
  57	1	5	-0.380811	1.22925	-36.3009	-50.5031
  58	1	3	-0.001248	0.793752	-40.4289	-48.1221
  59	1	3	-0.036565	0.348155	-39.2922	-50.68
  60	1	3	-0.208842	-0.00554207	-40.6355	-50.4173
  61	1	3	-0.065319	0.203824	-41.2299	-49.1408
  62	1	6	0.153391	0.945786	-40.786	-47.11
  63	1	6	0.155343	0.15939	-38.8333	-51.6482
  64	1	6	0.174191	-0.495742	-41.201	-51.2069
  65	1	7	-0.106637	-0.385356	-42.6429	-48.8311
  66	1	7	0.445763	0.413906	-43.4047	-47.7048
  67	1	8	-0.144255	0.0955787	-44.7189	-47.6655
  68	1	8	-0.136881	0.191493	-42.9295	-46.4592
  69	1	8	-0.144092	1.74719	-43.338	-47.9203
  70	1	7	0.367264	-1.8565	-42.3749	-48.3315
  71	1	8	-0.12104	-1.90837	-41.4088	-47.3859
  72	1	8	-0.122614	-2.44247	-43.464	-47.7855
  73	1	8	-0.112321	-2.64519	-41.9447	-49.3429
  74	1	3	-0.021957	-0.329157	-43.5741	-50.0874
  75	1	3	-0.054241	-1.41232	-44.4165	-50.4654
  76	1	3	-0.111709	-1.24956	-45.3124	-51.5295
  77	1	3	-0.087244	0.883003	-43.6848	-50.8263
  78	1	3	-0.118951	1.02487	-44.5934	-51.9005
  79	1	3	-0.044875	-0.0663623	-45.4079	-52.2286
  80	1	2	0.461883	-0.234624	-46.4493	-53.286
  81	1	1	-0.007433	-1.53984	-46.9103	-53.1538
  82	1	2	0.491356	-2.21282	-46.2836	-52.1133
  83	1	3	-0.019445	-2.17552	-47.8086	-54.061
  84	1	3	-0.186861	-3.04703	-47.2449	-55.0109
  85	1	3	-0.068374	-3.73368	-48.0496	-55.9256
  86	1	3	-0.009193	-1.9859	-49.2155	-54.0188
  87	1	3	0.220761	-2.67013	-50.0282	-54.9624
  88	1	3	-0.402098	-3.54195	-49.435	-55.902
  89	1	6	0.148422	-3.20414	-46.1693	-55.0332
  90	1	6	0.146291	-4.41319	-47.5988	-56.6472
  91	1	6	0.158981	1.9589	-44.6736	-52.4533
  92	1	6	0.141813	1.73671	-43.0701	-50.5511
  93	1	6	0.143633	-2.36716	-44.4168	-49.9518
  94	1	5	-0.474465	-3.37236	-46.4344	-51.7713
  95	1	5	-0.469737	0.594818	-46.7744	-54.1177
  96	1	7	-0.37887	-1.06107	-49.8492	-52.9737
  97	1	9	0.115886	-1.45062	-50.8067	-52.6053
  98	1	9	0.123845	-0.936203	-49.2172	-52.0868
  99	1	9	0.138418	-0.0624693	-50.0268	-53.3965
 100	1	6	0.21348	-4.08077	-50.058	-56.613
 101	1	1	0.486064	-1.19153	-21.817	-44.1138
 102	1	2	0.047133	-2.13542	-22.6863	-43.561
 103	1	3	0.001076	-1.59086	-24.0517	-43.7806
 104	1	2	0.034038	-0.11965	-22.4959	-44.6948
 105	1	3	0.050122	-0.400793	-23.9373	-44.4662
 106	1	5	-0.383076	-3.19774	-22.4142	-43.0276
 107	1	5	-0.380811	0.852227	-22.0306	-45.2673
 108	1	3	-0.001248	-2.10614	-25.2984	-43.4041
 109	1	3	-0.036565	0.327465	-25.0691	-44.8395
 110	1	3	-0.208842	-0.181844	-26.3376	-44.4857
 111	1	3	-0.065319	-1.39318	-26.4807	-43.748
 112	1	6	0.153391	-3.04766	-25.3258	-42.864
 113	1	6	0.155343	1.25664	-24.9636	-45.3953
 114	1	6	0.174191	0.385004	-27.2075	-44.8046
 115	1	7	-0.106637	-1.95291	-27.8861	-43.3653
 116	1	7	0.445763	-2.31867	-27.9336	-41.8207
 117	1	8	-0.144255	-1.38705	-27.315	-41.0604
 118	1	8	-0.136881	-2.42264	-29.2052	-41.3727
 119	1	8	-0.144092	-3.47749	-27.3263	-41.487
 120	1	7	0.367264	-3.27124	-28.1232	-44.2047
 121	1	8	-0.12104	-4.27045	-27.2557	-43.9298
 122	1	8	-0.122614	-3.77485	-29.3629	-44.0078
 123	1	8	-0.112321	-3.05137	-27.9592	-45.5284
 124	1	3	-0.021957	-0.879437	-29.007	-43.6475
 125	1	3	-0.054241	-0.956843	-29.9106	-44.7513
 126	1	3	-0.111709	0.0296669	-30.8957	-44.9176
 127	1	3	-0.087244	0.255449	-29.134	-42.7907
 128	1	3	-0.118951	1.22142	-30.1465	-42.9589
 129	1	3	-0.044875	1.07304	-31.0281	-44.0307
 130	1	2	0.461883	1.94502	-32.1418	-44.4886
 131	1	1	-0.007433	1.38696	-32.5986	-45.6782
 132	1	2	0.491356	0.22029	-31.907	-45.9992
 133	1	3	-0.019445	2.04709	-33.5391	-46.5328
 134	1	3	-0.186861	3.34835	-33.2085	-46.9579
 135	1	3	-0.068374	4.08176	-34.0658	-47.783
 136	1	3	-0.009193	1.46496	-34.7701	-46.9433
 137	1	3	0.220761	2.20812	-35.6342	-47.7986
 138	1	3	-0.402098	3.51043	-35.2704	-48.2053
 139	1	6	0.148422	3.80658	-32.2771	-46.6334
 140	1	6	0.146291	5.08948	-33.7929	-48.0926
 141	1	6	0.158981	2.07215	-30.2339	-42.2856
 142	1	6	0.141813	0.414394	-28.4409	-41.9739
 143	1	6	0.143633	-1.75065	-29.8803	-45.4879
 144	1	5	-0.474465	-0.46174	-32.0091	-47.0039
 145	1	5	-0.469737	2.98084	-32.5011	-43.9554
 146	1	7	-0.37887	0.0526015	-35.1445	-46.4741
 147	1	9	0.115886	-0.15731	-34.7613	-45.4685
 148	1	9	0.123845	-0.110165	-36.2265	-46.4136
 149	1	9	0.138418	-0.70562	-34.728	-47.1518
 150	1	6	0.21348	4.08104	-35.9286	-48.8566
 151	1	1	0.486064	-2.07394	-11.7009	-31.8188
 152	1	2	0.047133	-2.99044	-11.4451	-32.8377
 153	1	3	0.001076	-2.81653	-12.5544	-33.8074
 154	1	2	0.034038	-1.32592	-12.8567	-32.0466
 155	1	3	0.050122	-1.8299	-13.3954	-33.3381
 156	1	5	-0.383076	-3.81014	-10.5448	-32.9107
 157	1	5	-0.380811	-0.49193	-13.3743	-31.3222
 158	1	3	-0.001248	-3.53435	-12.8345	-34.9739
 159	1	3	-0.036565	-1.50466	-14.5726	-34.0177
 160	1	3	-0.208842	-2.21721	-14.8752	-35.199
 161	1	3	-0.065319	-3.2357	-14.0175	-35.7037
 162	1	6	0.153391	-4.32379	-12.1478	-35.2574
 163	1	6	0.155343	-0.746022	-15.2444	-33.6215
 164	1	6	0.174191	-1.99277	-15.8086	-35.7119
 165	1	7	-0.106637	-4.06309	-14.4639	-36.9489
 166	1	7	0.445763	-5.09584	-15.5294	-36.4149
 167	1	8	-0.144255	-4.48673	-16.7001	-36.1186
 168	1	8	-0.136881	-6.09069	-15.8077	-37.2868
 169	1	8	-0.144092	-5.69886	-15.1149	-35.277
 170	1	7	0.367264	-4.84674	-13.2807	-37.6329
 171	1	8	-0.12104	-5.89366	-12.8371	-36.901
 172	1	8	-0.122614	-5.35045	-13.6362	-38.8367
 173	1	8	-0.112321	-4.0346	-12.2239	-37.8625
 174	1	3	-0.021957	-3.11186	-15.0319	-38.046
 175	1	3	-0.054241	-3.51003	-16.0842	-38.9134
 176	1	3	-0.111709	-2.64681	-16.4883	-39.9376
 177	1	3	-0.087244	-1.84677	-14.4194	-38.2763
 178	1	3	-0.118951	-0.98669	-14.8492	-39.3107
 179	1	3	-0.044875	-1.41865	-15.8947	-40.1346
 180	1	2	0.461883	-0.788115	-16.5198	-41.3325
 181	1	1	-0.007433	-1.70514	-17.4591	-41.789
 182	1	2	0.491356	-2.84772	-17.505	-41.0016
 183	1	3	-0.019445	-1.53773	-18.2444	-42.966
 184	1	3	-0.186861	-1.60644	-17.5934	-44.2103
 185	1	3	-0.068374	-1.51759	-18.3197	-45.4033
 186	1	3	-0.009193	-1.36287	-19.6499	-42.9067
 187	1	3	0.220761	-1.31497	-20.3932	-44.118
 188	1	3	-0.402098	-1.3828	-19.7136	-45.3561
 189	1	6	0.148422	-1.73208	-16.5141	-44.2535
 190	1	6	0.146291	-1.56482	-17.8013	-46.36
 191	1	6	0.158981	-0.0271897	-14.3663	-39.486
 192	1	6	0.141813	-1.53059	-13.5822	-37.6591
 193	1	6	0.143633	-4.47662	-16.5708	-38.8405
 194	1	5	-0.474465	-3.83845	-18.198	-41.1519
 195	1	5	-0.469737	0.292501	-16.228	-41.8151
 196	1	7	-0.37887	-1.23177	-20.3399	-41.5417
 197	1	9	0.115886	-0.747054	-19.6969	-40.7977
 198	1	9	0.123845	-0.626542	-21.2527	-41.5837
 199	1	9	0.138418	-2.22357	-20.6134	-41.153
 200	1	6	0.21348	-1.31586	-20.2725	-46.2876
 201	1	1	0.486064	1.87489	3.46607	-28.7038
 202	1	2	0.047133	2.46712	2.55298	-27.8292
 203	1	3	0.001076	2.26472	1.22019	-28.4543
 204	1	2	0.034038	1.35778	2.84896	-29.846
 205	1	3	0.050122	1.60762	1.3957	-29.6529
 206	1	5	-0.383076	2.94127	2.75991	-26.725
 207	1	5	-0.380811	0.729535	3.35495	-30.7615
 208	1	3	-0.001248	2.57943	-0.0528534	-27.965
 209	1	3	-0.036565	1.23138	0.300001	-30.4356
 210	1	3	-0.208842	1.54427	-0.994006	-29.9633
 211	1	3	-0.065319	2.20827	-1.19996	-28.7212
 212	1	6	0.153391	3.09662	-0.113973	-27.014
 213	1	6	0.155343	0.706919	0.451274	-31.3768
 214	1	6	0.174191	1.26652	-1.84915	-30.5766
 215	1	7	-0.106637	2.57324	-2.65354	-28.2823
 216	1	7	0.445763	3.85878	-3.04263	-29.1063
 217	1	8	-0.144255	4.47642	-4.15627	-28.6525
 218	1	8	-0.136881	4.78593	-2.05784	-29.078
 219	1	8	-0.144092	3.56487	-3.25104	-30.41
 220	1	7	0.367264	2.88888	-2.77626	-26.7429
 221	1	8	-0.12104	2.95596	-4.06686	-26.3429
 222	1	8	-0.122614	1.92	-2.20184	-25.9939
 223	1	8	-0.112321	4.06276	-2.2067	-26.3888
 224	1	3	-0.021957	1.36711	-3.61078	-28.5356
 225	1	3	-0.054241	1.53768	-4.95699	-28.9632
 226	1	3	-0.111709	0.418787	-5.79704	-29.0415
 227	1	3	-0.087244	0.0526365	-3.17769	-28.2023
 228	1	3	-0.118951	-1.06172	-4.0386	-28.2922
 229	1	3	-0.044875	-0.844749	-5.35421	-28.7147
 230	1	2	0.461883	-1.78571	-6.50243	-28.8273
 231	1	1	-0.007433	-1.0093	-7.58955	-29.2132
 232	1	2	0.491356	0.329254	-7.2466	-29.3695
 233	1	3	-0.019445	-1.5184	-8.91712	-29.3404
 234	1	3	-0.186861	-2.05204	-9.52353	-28.1877
 235	1	3	-0.068374	-2.55951	-10.8264	-28.2283
 236	1	3	-0.009193	-1.50372	-9.62406	-30.5715
 237	1	3	0.220761	-2.02361	-10.9472	-30.61
 238	1	3	-0.402098	-2.54177	-11.5352	-29.4347
 239	1	6	0.148422	-2.07684	-8.97739	-27.2475
 240	1	6	0.146291	-2.96724	-11.281	-27.3266
 241	1	6	0.158981	-2.0583	-3.70633	-28.0076
 242	1	6	0.141813	-0.105948	-2.16776	-27.8328
 243	1	6	0.143633	2.5097	-5.38046	-29.1921
 244	1	5	-0.474465	1.26205	-7.97145	-29.67
 245	1	5	-0.469737	-2.9767	-6.48196	-28.568
 246	1	7	-0.37887	-0.910263	-8.96559	-31.8262
 247	1	9	0.115886	-1.06104	-7.87979	-31.8294
 248	1	9	0.123845	-1.35904	-9.32085	-32.7597
 249	1	9	0.138418	0.171589	-9.14984	-31.8838
 250	1	6	0.21348	-2.93449	-12.5498	-29.4612
 251	1	1	0.486064	5.0387	16.6836	-22.1811
 252	1	2	0.047133	4.58578	15.41	-22.5342
 253	1	3	0.001076	5.77542	14.7137	-23.1051
 254	1	2	0.034038	6.38528	16.875	-22.4844
 255	1	3	0.050122	6.83743	15.5938	-23.0732
 256	1	5	-0.383076	3.4767	14.9311	-22.3681
 257	1	5	-0.380811	7.08698	17.8442	-22.2471
 258	1	3	-0.001248	5.94095	13.3886	-23.5395
 259	1	3	-0.036565	8.11525	15.2115	-23.4784
 260	1	3	-0.208842	8.3036	13.8854	-23.9129
 261	1	3	-0.065319	7.23059	12.948	-23.9498
 262	1	6	0.153391	5.09316	12.7084	-23.5095
 263	1	6	0.155343	8.94346	15.9149	-23.418
 264	1	6	0.174191	9.31551	13.6008	-24.1799
 265	1	7	-0.106637	7.461	11.4417	-24.2865
 266	1	7	0.445763	8.80576	11.1597	-25.0646
 267	1	8	-0.144255	8.8412	9.9031	-25.5644
 268	1	8	-0.136881	9.91296	11.2936	-24.2995
 269	1	8	-0.144092	8.95311	11.9855	-26.126
 270	1	7	0.367264	7.51466	10.6942	-22.899
 271	1	8	-0.12104	8.34133	11.3168	-22.0277
 272	1	8	-0.122614	7.95065	9.4177	-22.9916
 273	1	8	-0.112321	6.30067	10.6611	-22.3042
 274	1	3	-0.021957	6.32499	10.9345	-25.2233
 275	1	3	-0.054241	5.71349	9.66116	-25.0639
 276	1	3	-0.111709	4.79035	9.22441	-26.0216
 277	1	3	-0.087244	5.96097	11.7158	-26.3559
 278	1	3	-0.118951	5.02906	11.2548	-27.3107
 279	1	3	-0.044875	4.4611	9.99053	-27.1188
 280	1	2	0.461883	3.4757	9.23009	-27.9381
 281	1	1	-0.007433	3.26611	8.03549	-27.2596
 282	1	2	0.491356	4.02276	7.95311	-26.0974
 283	1	3	-0.019445	2.29233	7.06513	-27.6372
 284	1	3	-0.186861	0.939822	7.42029	-27.4905
 285	1	3	-0.068374	-0.0775223	6.50832	-27.7864
 286	1	3	-0.009193	2.64229	5.76861	-28.0979
 287	1	3	0.220761	1.60738	4.82651	-28.355
 288	1	3	-0.402098	0.256967	5.21613	-28.206
 289	1	6	0.148422	0.673215	8.41486	-27.1412
 290	1	6	0.146291	-1.12049	6.79942	-27.6721
 291	1	6	0.158981	4.76851	11.852	-28.1823
 292	1	6	0.141813	6.43028	12.6833	-26.5175
 293	1	6	0.143633	5.94887	8.99331	-24.2419
 294	1	5	-0.474465	4.03433	7.06037	-25.2687
 295	1	5	-0.469737	2.94694	9.61224	-28.9677
 296	1	7	-0.37887	4.11727	5.40344	-28.3052
 297	1	9	0.115886	4.25789	4.65546	-29.0947
 298	1	9	0.123845	4.55044	5.00095	-27.3786
 299	1	9	0.138418	4.71824	6.27144	-28.6029
 300	1	6	0.21348	-0.54007	4.50688	-28.4204
 301	1	1	0.486064	-3.4087	29.1939	-24.2463
 302	1	2	0.047133	-2.35166	29.6431	-23.4466
 303	1	3	0.001076	-1.37759	28.5245	-23.4115
 304	1	2	0.034038	-3.19132	27.8889	-24.7109
 305	1	3	0.050122	-1.85346	27.4998	-24.1952
 306	1	5	-0.383076	-2.15234	30.7606	-22.9997
 307	1	5	-0.380811	-3.88381	27.2211	-25.4621
 308	1	3	-0.001248	-0.113931	28.4715	-22.8197
 309	1	3	-0.036565	-1.05484	26.39	-24.4886
 310	1	3	-0.208842	0.249366	26.3424	-23.9452
 311	1	3	-0.065319	0.736021	27.36	-23.0741
 312	1	6	0.153391	0.202885	29.3243	-22.2291
 313	1	6	0.155343	-1.41935	25.6155	-25.1603
 314	1	6	0.174191	0.884854	25.5103	-24.2355
 315	1	7	-0.106637	2.1913	27.3367	-22.5056
 316	1	7	0.445763	3.01258	28.4258	-23.3063
 317	1	8	-0.144255	3.17359	28.058	-24.5979
 318	1	8	-0.136881	4.23623	28.6589	-22.7789
 319	1	8	-0.144092	2.41051	29.6347	-23.3509
 320	1	7	0.367264	2.20372	27.7073	-20.9716
 321	1	8	-0.12104	2.02462	29.0225	-20.72
 322	1	8	-0.122614	3.37545	27.3708	-20.3854
 323	1	8	-0.112321	1.23029	27.0522	-20.2999
 324	1	3	-0.021957	2.83471	25.9079	-22.5991
 325	1	3	-0.054241	2.14843	24.7784	-22.0649
 326	1	3	-0.111709	2.78646	23.5245	-22.0517
 327	1	3	-0.087244	4.1562	25.6996	-23.0994
 328	1	3	-0.118951	4.78768	24.4455	-23.0464
 329	1	3	-0.044875	4.0781	23.377	-22.5047
 330	1	2	0.461883	4.51963	21.985	-22.2607
 331	1	1	-0.007433	3.42379	21.3283	-21.7115
 332	1	2	0.491356	2.34043	22.1929	-21.5418
 333	1	3	-0.019445	3.48305	19.9718	-21.2543
 334	1	3	-0.186861	3.15642	19.7097	-19.9096
 335	1	3	-0.068374	3.34636	18.4381	-19.3544
 336	1	3	-0.009193	3.98261	18.9179	-22.0685
 337	1	3	0.220761	4.27504	17.662	-21.475
 338	1	3	-0.402098	3.93279	17.4267	-20.1259
 339	1	6	0.148422	2.76529	20.5047	-19.2785
 340	1	6	0.146291	3.09018	18.2573	-18.3115
 341	1	6	0.158981	5.81021	24.3098	-23.3946
 342	1	6	0.141813	4.7503	26.5043	-23.5117
 343	1	6	0.143633	1.1465	24.8732	-21.6515
 344	1	5	-0.474465	1.25265	21.9475	-21.0501
 345	1	5	-0.469737	5.65159	21.5674	-22.4329
 346	1	7	-0.37887	4.22021	19.1193	-23.5719
 347	1	9	0.115886	5.27554	19.3463	-23.7782
 348	1	9	0.123845	3.61851	19.9391	-23.9805
 349	1	9	0.138418	3.94609	18.2298	-24.1527
 350	1	6	0.21348	4.14297	16.4611	-19.6706
 351	1	1	0.486064	-15.4674	31.9789	-19.2262
 352	1	2	0.047133	-15.2608	33.3617	-19.192
 353	1	3	0.001076	-14.3141	33.6419	-20.2973
 354	1	2	0.034038	-14.8677	31.3869	-20.3426
 355	1	3	0.050122	-14.1311	32.4848	-21.0196
 356	1	5	-0.383076	-15.7302	34.1896	-18.4282
 357	1	5	-0.380811	-14.8685	30.2127	-20.6748
 358	1	3	-0.001248	-13.5961	34.8071	-20.5786
 359	1	3	-0.036565	-13.332	32.4728	-22.1646
 360	1	3	-0.208842	-12.658	33.6636	-22.5113
 361	1	3	-0.065319	-12.6831	34.8141	-21.6697
 362	1	6	0.153391	-13.7493	35.658	-19.9258
 363	1	6	0.155343	-13.226	31.5643	-22.7539
 364	1	6	0.174191	-12.0482	33.662	-23.4125
 365	1	7	-0.106637	-11.7884	36.0561	-22.0011
 366	1	7	0.445763	-11.5358	36.9745	-20.7442
 367	1	8	-0.144255	-10.5846	37.9102	-20.9639
 368	1	8	-0.136881	-11.1059	36.241	-19.693
 369	1	8	-0.144092	-12.6323	37.6595	-20.3492
 370	1	7	0.367264	-12.5894	36.8621	-23.0935
 371	1	8	-0.12104	-12.5103	36.254	-24.2986
 372	1	8	-0.122614	-12.1671	38.1352	-23.259
 373	1	8	-0.112321	-13.9054	36.9487	-22.791
 374	1	3	-0.021957	-10.369	35.6243	-22.5119
 375	1	3	-0.054241	-9.81168	34.3477	-22.21
 376	1	3	-0.111709	-8.59695	33.9699	-22.8037
 377	1	3	-0.087244	-9.57766	36.5176	-23.2925
 378	1	3	-0.118951	-8.32023	36.151	-23.8069
 379	1	3	-0.044875	-7.86345	34.8563	-23.5598
 380	1	2	0.461883	-6.70043	34.1408	-24.1359
 381	1	1	-0.007433	-6.86909	32.8064	-23.7827
 382	1	2	0.491356	-7.9573	32.6262	-22.9297
 383	1	3	-0.019445	-6.18295	31.7709	-24.4905
 384	1	3	-0.186861	-6.3897	31.7407	-25.8823
 385	1	3	-0.068374	-5.65555	30.8855	-26.7028
 386	1	3	-0.009193	-5.25069	30.882	-23.8907
 387	1	3	0.220761	-4.46559	30.0352	-24.7337
 388	1	3	-0.402098	-4.68454	30.0601	-26.1325
 389	1	6	0.148422	-7.10047	32.4225	-26.3435
 390	1	6	0.146291	-5.81446	30.8925	-27.7802
 391	1	6	0.158981	-7.74616	36.8307	-24.4341
 392	1	6	0.141813	-9.92561	37.5182	-23.5198
 393	1	6	0.143633	-10.333	33.6236	-21.5903
 394	1	5	-0.474465	-8.43589	31.5762	-22.538
 395	1	5	-0.469737	-5.88992	34.6179	-24.912
 396	1	7	-0.37887	-5.10798	30.8778	-22.3629
 397	1	9	0.115886	-4.5752	31.7732	-22.0163
 398	1	9	0.123845	-4.56701	30.006	-21.9798
 399	1	9	0.138418	-6.08418	30.8503	-21.8656
 400	1	6	0.21348	-4.09613	29.4232	-26.7905
 401	1	1	0.486064	-17.6192	37.5137	-7.7771
 402	1	2	0.047133	-17.0567	36.847	-8.86608
 403	1	3	0.001076	-16.3423	35.6828	-8.28264
 404	1	2	0.034038	-17.307	36.9137	-6.55785
 405	1	3	0.050122	-16.4984	35.7208	-6.91336
 406	1	5	-0.383076	-17.2088	37.0775	-10.0538
 407	1	5	-0.380811	-17.7056	37.2098	-5.44346
 408	1	3	-0.001248	-15.7007	34.6141	-8.91858
 409	1	3	-0.036565	-16.0128	34.6944	-6.10215
 410	1	3	-0.208842	-15.3883	33.5933	-6.72478
 411	1	3	-0.065319	-15.2501	33.5115	-8.14167
 412	1	6	0.153391	-15.6211	34.6157	-10.0033
 413	1	6	0.155343	-16.151	34.7351	-5.02378
 414	1	6	0.174191	-15.0368	32.7994	-6.07505
 415	1	7	-0.106637	-14.631	32.2703	-8.86494
 416	1	7	0.445763	-14.5708	30.9801	-7.96637
 417	1	8	-0.144255	-15.7754	30.7144	-7.41161
 418	1	8	-0.136881	-13.6672	31.071	-6.96415
 419	1	8	-0.144092	-14.2376	29.8798	-8.67878
 420	1	7	0.367264	-13.1691	32.698	-9.27103
 421	1	8	-0.12104	-12.5306	33.315	-8.25047
 422	1	8	-0.122614	-13.1823	33.5744	-10.3007
 423	1	8	-0.112321	-12.3787	31.6656	-9.63976
 424	1	3	-0.021957	-15.5137	31.8996	-10.0981
 425	1	3	-0.054241	-14.9667	31.294	-11.2622
 426	1	3	-0.111709	-15.7955	31.0843	-12.3723
 427	1	3	-0.087244	-16.9171	32.1472	-10.0729
 428	1	3	-0.118951	-17.721	31.9783	-11.2177
 429	1	3	-0.044875	-17.1156	31.4768	-12.3723
 430	1	2	0.461883	-17.6556	31.2986	-13.7451
 431	1	1	-0.007433	-16.6027	30.7978	-14.5038
 432	1	2	0.491356	-15.4766	30.5496	-13.7231
 433	1	3	-0.019445	-16.6992	30.6067	-15.9178
 434	1	3	-0.186861	-17.7053	29.7426	-16.388
 435	1	3	-0.068374	-17.955	29.6052	-17.7564
 436	1	3	-0.009193	-15.9094	31.3472	-16.8421
 437	1	3	0.220761	-16.1939	31.2378	-18.2373
 438	1	3	-0.402098	-17.2113	30.3575	-18.6717
 439	1	6	0.148422	-18.3221	29.1906	-15.6826
 440	1	6	0.146291	-18.7389	28.9333	-18.1026
 441	1	6	0.158981	-18.7751	32.2496	-11.2169
 442	1	6	0.141813	-17.3899	32.5307	-9.17243
 443	1	6	0.143633	-13.9207	31.0151	-11.3374
 444	1	5	-0.474465	-14.4457	29.9792	-14.0369
 445	1	5	-0.469737	-18.7814	31.5863	-14.1142
 446	1	7	-0.37887	-14.796	32.2745	-16.3176
 447	1	9	0.115886	-14.0835	32.5913	-17.0837
 448	1	9	0.123845	-14.1573	31.7951	-15.575
 449	1	9	0.138418	-15.2214	33.1821	-15.8678
 450	1	6	0.21348	-17.4165	30.2462	-19.735
 451	1	1	0.486064	-19.5655	49.4138	-16.548
 452	1	2	0.047133	-20.3471	49.6457	-15.419
 453	1	3	0.001076	-19.7954	48.7455	-14.3774
 454	1	2	0.034038	-18.6248	48.4013	-16.3582
 455	1	3	0.050122	-18.7722	48.0055	-14.9312
 456	1	5	-0.383076	-21.1978	50.5032	-15.2523
 457	1	5	-0.380811	-17.7555	48.027	-17.1277
 458	1	3	-0.001248	-20.0656	48.7209	-13.007
 459	1	3	-0.036565	-17.9699	47.1818	-14.1356
 460	1	3	-0.208842	-18.2136	47.1568	-12.7437
 461	1	3	-0.065319	-19.255	47.9268	-12.1512
 462	1	6	0.153391	-20.8298	49.3921	-12.6316
 463	1	6	0.155343	-17.1381	46.6361	-14.5764
 464	1	6	0.174191	-17.5377	46.5776	-12.1191
 465	1	7	-0.106637	-19.3629	48.0553	-10.6007
 466	1	7	0.445763	-18.5192	49.3326	-10.2191
 467	1	8	-0.144255	-17.198	49.1195	-10.4179
 468	1	8	-0.136881	-18.6878	49.7198	-8.93431
 469	1	8	-0.144092	-18.836	50.4086	-10.9748
 470	1	7	0.367264	-20.851	48.2524	-10.1139
 471	1	8	-0.12104	-21.6895	47.39	-10.7315
 472	1	8	-0.122614	-21.3401	49.4938	-10.3278
 473	1	8	-0.112321	-20.9757	48.029	-8.78538
 474	1	3	-0.021957	-18.8588	46.7561	-9.89352
 475	1	3	-0.054241	-19.3652	45.4961	-10.3125
 476	1	3	-0.111709	-19.0231	44.3449	-9.58592
 477	1	3	-0.087244	-18.0066	46.7857	-8.74858
 478	1	3	-0.118951	-17.6888	45.62	-8.02695
 479	1	3	-0.044875	-18.2201	44.4092	-8.46761
 480	1	2	0.461883	-18.1398	43.0585	-7.85659
 481	1	1	-0.007433	-18.9144	42.2387	-8.66743
 482	1	2	0.491356	-19.472	42.9338	-9.73738
 483	1	3	-0.019445	-19.209	40.8771	-8.36263
 484	1	3	-0.186861	-20.5532	40.5454	-8.10977
 485	1	3	-0.068374	-20.9187	39.244	-7.75277
 486	1	3	-0.009193	-18.2014	39.8808	-8.27207
 487	1	3	0.220761	-18.5762	38.5612	-7.90373
 488	1	3	-0.402098	-19.9317	38.2586	-7.64497
 489	1	6	0.148422	-21.3258	41.307	-8.18488
 490	1	6	0.146291	-21.9624	39.0059	-7.55221
 491	1	6	0.158981	-17.0801	45.6588	-7.12632
 492	1	6	0.141813	-17.6018	47.7125	-8.36162
 493	1	6	0.143633	-20.044	45.4147	-11.159
 494	1	5	-0.474465	-20.2325	42.5148	-10.5923
 495	1	5	-0.469737	-17.5726	42.778	-6.81405
 496	1	7	-0.37887	-16.7322	40.2405	-8.53862
 497	1	9	0.115886	-16.6355	41.0329	-9.29013
 498	1	9	0.123845	-16.1431	39.4019	-8.92633
 499	1	9	0.138418	-16.2446	40.5952	-7.61973
 500	1	6	0.21348	-20.2181	37.2521	-7.34792
 501	1	1	0.486064	-10.6183	60.5712	-14.6198
 502	1	2	0.047133	-11.0712	60.9051	-15.8961
 503	1	3	0.001076	-11.9532	59.7822	-16.3032
 504	1	2	0.034038	-11.1278	59.3511	-14.1718
 505	1	3	0.050122	-11.9892	58.8626	-15.2762
 506	1	5	-0.383076	-10.7856	61.8789	-16.5728
 507	1	5	-0.380811	-10.8887	58.762	-13.1307
 508	1	3	-0.001248	-12.6111	59.5575	-17.5169
 509	1	3	-0.036565	-12.6969	57.6657	-15.3992
 510	1	3	-0.208842	-13.3635	57.416	-16.6164
 511	1	3	-0.065319	-13.338	58.349	-17.6923
 512	1	6	0.153391	-12.5029	60.2973	-18.3024
 513	1	6	0.155343	-12.695	56.9388	-14.5896
 514	1	6	0.174191	-13.8715	56.461	-16.7322
 515	1	7	-0.106637	-13.9743	57.9567	-19.0578
 516	1	7	0.445763	-12.8609	57.1484	-19.8263
 517	1	8	-0.144255	-13.1967	56.8732	-21.1067
 518	1	8	-0.136881	-12.5874	55.9734	-19.2142
 519	1	8	-0.144092	-11.6867	57.8188	-19.8706
 520	1	7	0.367264	-14.4041	59.1983	-19.9296
 521	1	8	-0.12104	-13.3662	59.8598	-20.4879
 522	1	8	-0.122614	-15.0956	60.1038	-19.2019
 523	1	8	-0.112321	-15.2105	58.8295	-20.951
 524	1	3	-0.021957	-15.2737	57.134	-18.7956
 525	1	3	-0.054241	-15.5377	55.883	-19.4168
 526	1	3	-0.111709	-16.7174	55.2008	-19.097
 527	1	3	-0.087244	-16.2467	57.6515	-17.8937
 528	1	3	-0.118951	-17.4345	56.9521	-17.594
 529	1	3	-0.044875	-17.6415	55.7155	-18.2129
 530	1	2	0.461883	-18.7287	54.7135	-18.0375
 531	1	1	-0.007433	-18.3554	53.6234	-18.8153
 532	1	2	0.491356	-17.1778	53.8505	-19.5135
 533	1	3	-0.019445	-19.0155	52.3621	-18.7952
 534	1	3	-0.186861	-19.7377	51.9553	-19.9313
 535	1	3	-0.068374	-20.3845	50.7124	-19.9607
 536	1	3	-0.009193	-18.9225	51.507	-17.6698
 537	1	3	0.220761	-19.5984	50.2592	-17.6931
 538	1	3	-0.402098	-20.3198	49.8687	-18.8424
 539	1	6	0.148422	-19.7915	52.6039	-20.8024
 540	1	6	0.146291	-20.9365	50.4089	-20.849
 541	1	6	0.158981	-18.161	57.346	-16.8857
 542	1	6	0.141813	-16.0711	58.6033	-17.3988
 543	1	6	0.143633	-14.8525	55.4131	-20.1146
 544	1	5	-0.474465	-16.571	53.0769	-20.2328
 545	1	5	-0.469737	-19.6781	54.8079	-17.2791
 546	1	7	-0.37887	-18.1104	51.9391	-16.4376
 547	1	9	0.115886	-17.675	51.0923	-15.8947
 548	1	9	0.123845	-18.7465	52.4976	-15.7363
 549	1	9	0.138418	-17.2604	52.5793	-16.6996
 550	1	6	0.21348	-20.83	48.9086	-18.8661
 551	1	1	0.486064	-12.0309	57.5945	-2.81912
 552	1	2	0.047133	-11.0237	58.5055	-2.50478
 553	1	3	0.001076	-11.2629	59.6716	-3.38757
 554	1	2	0.034038	-12.8966	58.0695	-3.80759
 555	1	3	0.050122	-12.3713	59.4137	-4.16564
 556	1	5	-0.383076	-10.1417	58.4058	-1.66777
 557	1	5	-0.380811	-13.8938	57.5365	-4.26635
 558	1	3	-0.001248	-10.5641	60.8786	-3.46909
 559	1	3	-0.036565	-12.8415	60.3577	-5.08218
 560	1	3	-0.208842	-12.1481	61.5839	-5.18472
 561	1	3	-0.065319	-10.9979	61.8668	-4.39334
 562	1	6	0.153391	-9.71746	61.0168	-2.80623
 563	1	6	0.155343	-13.7231	60.1477	-5.68427
 564	1	6	0.174191	-12.52	62.3288	-5.8853
 565	1	7	-0.106637	-10.3111	63.2627	-4.51185
 566	1	7	0.445763	-8.85806	63.2984	-3.90438
 567	1	8	-0.144255	-8.1042	62.2794	-4.37623
 568	1	8	-0.136881	-8.84211	63.2246	-2.55435
 569	1	8	-0.144092	-8.20077	64.4341	-4.23228
 570	1	7	0.367264	-11.2317	64.2657	-3.71779
 571	1	8	-0.12104	-10.6471	65.4587	-3.46733
 572	1	8	-0.122614	-12.3805	64.5184	-4.38525
 573	1	8	-0.112321	-11.5925	63.7641	-2.51425
 574	1	3	-0.021957	-10.1468	63.6334	-6.0155
 575	1	3	-0.054241	-9.80055	62.6204	-6.94718
 576	1	3	-0.111709	-9.60432	62.9676	-8.2891
 577	1	3	-0.087244	-10.2417	64.9757	-6.48692
 578	1	3	-0.118951	-10.0277	65.3046	-7.8412
 579	1	3	-0.044875	-9.71178	64.2711	-8.72636
 580	1	2	0.461883	-9.44495	64.2998	-10.1898
 581	1	1	-0.007433	-9.2062	62.9804	-10.544
 582	1	2	0.491356	-9.27073	62.1158	-9.45919
 583	1	3	-0.019445	-8.97796	62.5464	-11.8768
 584	1	3	-0.186861	-7.71879	62.7819	-12.4554
 585	1	3	-0.068374	-7.43326	62.3249	-13.747
 586	1	3	-0.009193	-9.9836	61.8626	-12.6006
 587	1	3	0.220761	-9.67533	61.3526	-13.8889
 588	1	3	-0.402098	-8.40298	61.6005	-14.4526
 589	1	6	0.148422	-6.95651	63.3239	-11.9007
 590	1	6	0.146291	-6.45796	62.5192	-14.1909
 591	1	6	0.158981	-10.0981	66.3324	-8.19258
 592	1	6	0.141813	-10.4653	65.7923	-5.81055
 593	1	6	0.143633	-9.67989	61.583	-6.64258
 594	1	5	-0.474465	-9.13861	60.9044	-9.4509
 595	1	5	-0.469737	-9.47601	65.2799	-10.9135
 596	1	7	-0.37887	-11.3771	61.6872	-11.9781
 597	1	9	0.115886	-12.1675	61.5667	-12.7277
 598	1	9	0.123845	-11.6707	62.5573	-11.3785
 599	1	9	0.138418	-11.3985	60.8037	-11.324
 600	1	6	0.21348	-8.17188	61.2374	-15.4523
 601	1	1	0.486064	-10.0638	42.0387	-6.02812
 602	1	2	0.047133	-11.1128	42.702	-6.66296
 603	1	3	0.001076	-11.45	43.8325	-5.76639
 604	1	2	0.034038	-9.74774	42.5865	-4.78629
 605	1	3	0.050122	-10.6563	43.7527	-4.64137
 606	1	5	-0.383076	-11.6233	42.46	-7.74448
 607	1	5	-0.380811	-8.88357	42.2347	-4.00045
 608	1	3	-0.001248	-12.3554	44.8781	-5.96117
 609	1	3	-0.036565	-10.7671	44.6911	-3.61327
 610	1	3	-0.208842	-11.6928	45.7434	-3.77813
 611	1	3	-0.065319	-12.4665	45.8857	-4.96623
 612	1	6	0.153391	-12.9311	44.8849	-6.87957
 613	1	6	0.155343	-10.1484	44.6081	-2.72201
 614	1	6	0.174191	-11.789	46.4731	-2.97619
 615	1	7	-0.106637	-13.428	47.1039	-5.11498
 616	1	7	0.445763	-13.8017	47.4276	-6.61065
 617	1	8	-0.144255	-12.6971	47.5006	-7.38728
 618	1	8	-0.136881	-14.4276	48.6208	-6.73013
 619	1	8	-0.144092	-14.6255	46.5135	-7.16813
 620	1	7	0.367264	-14.7323	46.7268	-4.31713
 621	1	8	-0.12104	-15.7794	47.542	-4.5755
 622	1	8	-0.122614	-14.5183	46.7556	-2.98233
 623	1	8	-0.112321	-15.1508	45.4749	-4.61257
 624	1	3	-0.021957	-12.7207	48.3838	-4.57731
 625	1	3	-0.054241	-13.4348	49.4215	-3.9222
 626	1	3	-0.111709	-12.7432	50.5681	-3.51618
 627	1	3	-0.087244	-11.3296	48.5769	-4.82062
 628	1	3	-0.118951	-10.6468	49.7276	-4.37637
 629	1	3	-0.044875	-11.3872	50.7132	-3.71844
 630	1	2	0.461883	-10.9733	52.0353	-3.17642
 631	1	1	-0.007433	-12.1408	52.6258	-2.70966
 632	1	2	0.491356	-13.2472	51.8028	-2.86254
 633	1	3	-0.019445	-12.2024	53.9057	-2.09267