pySIMM System Object

2502 atoms
2751 bonds
4800 angles
7396 dihedrals
800 impropers

9 atom types
11 bond types
18 angle types
7 dihedral types
4 improper types

-220.990949 220.990949 xlo xhi
-220.990949 220.990949 ylo yhi
-220.990949 220.990949 zlo zhi

Masses

   1	14.01	# n
   2	12.01	# c
   3	12.01	# ca
   4	1.008	# hn
   5	16.0	# o
   6	1.008	# ha
   7	12.01	# c3
   8	19.0	# f
   9	1.008	# hc

Pair Coeffs

   1	0.17	3.249998523775958	# n
   2	0.086	3.3996695084235347	# c
   3	0.086	3.3996695084235347	# ca
   4	0.0157	1.069078461768407	# hn
   5	0.21	2.959921901149463	# o
   6	0.015	2.59964245953351	# ha
   7	0.1094	3.3996695084235347	# c3
   8	0.061	3.1181455134911875	# f
   9	0.0157	2.649532787749369	# hc

Bond Coeffs

   1	427.6	1.3789	# c,n
   2	461.1	1.3984	# ca,ca
   3	345.9	1.4906	# c,ca
   4	345.8	1.086	# ca,ha
   5	637.7	1.2183	# c,o
   6	321.0	1.5156	# c3,ca
   7	300.9	1.5375	# c3,c3
   8	356.9	1.3497	# c3,f
   9	384.2	1.4121	# ca,n
  10	330.6	1.0969	# c3,hc
  11	403.2	1.0129	# hn,n

Angle Coeffs

   1	48.18	119.88	# ca,ca,ha
   2	63.15	112.07	# c3,c3,ca
   3	70.89	107.36	# f,c3,f
   4	67.87	120.19	# ca,ca,n
   5	68.72	122.6	# ca,c,o
   6	63.56	112.24	# ca,c3,ca
   7	63.82	123.71	# c,n,ca
   8	74.22	123.05	# n,c,o
   9	48.33	117.55	# c,n,hn
  10	67.68	115.25	# ca,c,n
  11	64.28	120.33	# c,ca,ca
  12	66.11	109.24	# c3,c3,f
  13	46.8	110.47	# ca,c3,hc
  14	39.4	107.58	# hc,c3,hc
  15	66.62	120.02	# ca,ca,ca
  16	63.53	120.77	# c3,ca,ca
  17	62.86	111.51	# c3,c3,c3
  18	63.74	127.08	# c,n,c

Dihedral Coeffs

   1	1	2.5	2	180	# X,c,n,X
   2	1	0.45	2	180	# X,ca,n,X
   3	2	2.5	2	180	2.0	1	0	# hn,n,c,o
   4	1	3.625	2	180	# X,ca,ca,X
   5	1	1.0	2	180	# X,c,ca,X
   6	1	0.15555555555555556	3	0	# X,c3,c3,X
   7	1	0.0	2	0	# X,c3,ca,X

Improper Coeffs

   1	1.1	-1	2	# ca,ca,ca,c3
   2	10.5	-1	2	# c,X,X,o
   3	1.1	-1	2	# ca,X,X,ha
   4	1.1	-1	2	# n,X,X,hn

Atoms

   1	1	1	0.486064	62.9985	65.0415	-23.7304
   2	1	2	0.047133	62.6998	63.6806	-23.764
   3	1	3	0.001076	63.8132	63.0594	-24.5233
   4	1	2	0.034038	64.1613	65.3601	-24.4281
   5	1	3	0.050122	64.6787	64.058	-24.9207
   6	1	5	-0.383076	61.783	63.0936	-23.2147
   7	1	5	-0.380811	64.697	66.4491	-24.5509
   8	1	3	-0.001248	64.0724	61.709	-24.7817
   9	1	3	-0.036565	65.8507	63.7622	-25.6188
  10	1	3	-0.208842	66.1346	62.4068	-25.8864
  11	1	3	-0.065319	65.2716	61.3576	-25.4591
  12	1	6	0.153391	63.3547	60.9753	-24.4305
  13	1	6	0.155343	66.5265	64.5586	-25.9231
  14	1	6	0.174191	67.0539	62.17	-26.4183
  15	1	7	-0.106637	65.6812	59.8824	-25.7536
  16	1	7	0.445763	64.8744	58.8191	-24.915
  17	1	8	-0.144255	64.888	59.1119	-23.5945
  18	1	8	-0.136881	65.4078	57.5811	-25.0267
  19	1	8	-0.144092	63.5789	58.719	-25.2883
  20	1	7	0.367264	65.4054	59.6421	-27.2865
  21	1	8	-0.12104	64.1701	60.0659	-27.6392
  22	1	8	-0.122614	65.4828	58.3428	-27.6512
  23	1	8	-0.112321	66.2757	60.3228	-28.0658
  24	1	3	-0.021957	67.1743	59.7025	-25.3481
  25	1	3	-0.054241	68.093	58.9322	-26.1111
  26	1	3	-0.111709	69.4083	58.7931	-25.6469
  27	1	3	-0.087244	67.6309	60.2804	-24.1286
  28	1	3	-0.118951	68.959	60.1299	-23.6819
  29	1	3	-0.044875	69.8316	59.3753	-24.4702
  30	1	2	0.461883	71.259	59.0164	-24.2545
  31	1	1	-0.007433	71.606	58.2158	-25.3331
  32	1	2	0.491356	70.554	58.0387	-26.2225
  33	1	3	-0.019445	72.891	57.6304	-25.4955
  34	1	3	-0.186861	73.9658	58.4414	-25.9044
  35	1	3	-0.068374	75.2488	57.8986	-26.0708
  36	1	3	-0.009193	73.1045	56.2571	-25.2385
  37	1	3	0.220761	74.3957	55.7198	-25.4122
  38	1	3	-0.402098	75.4613	56.5336	-25.8264
  39	1	6	0.148422	73.8059	59.5006	-26.0899
  40	1	6	0.146291	76.073	58.5356	-26.3861
  41	1	6	0.158981	69.2969	60.573	-22.7467
  42	1	6	0.141813	66.9445	60.8514	-23.5085
  43	1	6	0.143633	67.8147	58.4336	-27.0345
  44	1	5	-0.474465	70.5422	57.3971	-27.2584
  45	1	5	-0.469737	71.9545	59.3576	-23.3132
  46	1	7	-0.37887	71.9649	55.3551	-24.7683
  47	1	9	0.115886	71.2095	55.2332	-25.5556
  48	1	9	0.123845	71.473	55.7664	-23.8777
  49	1	9	0.138418	72.3245	54.3523	-24.5054
  50	1	6	0.21348	76.4492	56.0998	-25.951
  51	1	1	0.486064	64.2815	69.6858	-8.61347
  52	1	2	0.047133	64.2927	68.3661	-9.05784
  53	1	3	0.001076	63.537	68.381	-10.3345
  54	1	2	0.034038	63.6037	70.544	-9.47728
  55	1	3	0.050122	63.1289	69.6747	-10.5857
  56	1	5	-0.383076	64.8022	67.3926	-8.52928
  57	1	5	-0.380811	63.4064	71.7413	-9.35337
  58	1	3	-0.001248	63.2217	67.3249	-11.1951
  59	1	3	-0.036565	62.3786	69.986	-11.722
  60	1	3	-0.208842	62.0545	68.9364	-12.6083
  61	1	3	-0.065319	62.4715	67.5956	-12.3718
  62	1	6	0.153391	63.5584	66.3308	-10.9222
  63	1	6	0.155343	62.0521	71.0078	-11.9037
  64	1	6	0.174191	61.4602	69.171	-13.4892
  65	1	7	-0.106637	62.0373	66.481	-13.3719
  66	1	7	0.445763	62.8634	65.1471	-13.2249
  67	1	8	-0.144255	62.629	64.2926	-14.2472
  68	1	8	-0.136881	62.5868	64.4711	-12.0871
  69	1	8	-0.144092	64.1945	65.3874	-13.2373
  70	1	7	0.367264	60.5196	66.1836	-13.0653
  71	1	8	-0.12104	60.3014	66.0393	-11.738
  72	1	8	-0.122614	60.0588	65.0551	-13.6497
  73	1	8	-0.112321	59.7218	67.196	-13.4739
  74	1	3	-0.021957	62.2903	66.9777	-14.8262
  75	1	3	-0.054241	61.4258	66.6472	-15.9039
  76	1	3	-0.111709	61.7717	67.0502	-17.1997
  77	1	3	-0.087244	63.4829	67.699	-15.1191
  78	1	3	-0.118951	63.8105	68.0977	-16.4312
  79	1	3	-0.044875	62.9297	67.7525	-17.4601
  80	1	2	0.461883	63.0459	67.9349	-18.9328
  81	1	1	-0.007433	61.9379	67.2945	-19.4719
  82	1	2	0.491356	61.1059	66.762	-18.497
  83	1	3	-0.019445	61.7328	67.0997	-20.8657
  84	1	3	-0.186861	60.733	67.8461	-21.5139
  85	1	3	-0.068374	60.4895	67.6768	-22.8828
  86	1	3	-0.009193	62.4988	66.1537	-21.5889
  87	1	3	0.220761	62.2494	65.9851	-22.9754
  88	1	3	-0.402098	61.2473	66.7501	-23.6121
  89	1	6	0.148422	60.137	68.5605	-20.9514
  90	1	6	0.146291	59.7126	68.2618	-23.373
  91	1	6	0.158981	64.7367	68.6263	-16.6485
  92	1	6	0.141813	64.1852	67.9316	-14.3227
  93	1	6	0.143633	60.5246	66.0575	-15.772
  94	1	5	-0.474465	60.0776	66.1273	-18.651
  95	1	5	-0.469737	63.9755	68.4569	-19.524
  96	1	7	-0.37887	63.5914	65.3479	-20.8664
  97	1	9	0.115886	63.8569	64.4129	-21.3711
  98	1	9	0.123845	63.2783	65.0528	-19.8573
  99	1	9	0.138418	64.5088	65.9456	-20.7706
 100	1	6	0.21348	61.0558	66.6215	-24.6751
 101	1	1	0.486064	59.5104	67.5733	5.82527
 102	1	2	0.047133	58.8516	68.5296	5.05629
 103	1	3	0.001076	59.9261	69.2375	4.31875
 104	1	2	0.034038	60.8973	67.6375	5.70371
 105	1	3	0.050122	61.1408	68.7076	4.70225
 106	1	5	-0.383076	57.6514	68.6831	4.9056
 107	1	5	-0.380811	61.7336	66.8945	6.18988
 108	1	3	-0.001248	59.8219	70.1946	3.30463
 109	1	3	-0.036565	62.3293	69.1169	4.09489
 110	1	3	-0.208842	62.2467	70.0716	3.05951
 111	1	3	-0.065319	61.0013	70.6144	2.63101
 112	1	6	0.153391	58.8299	70.5446	3.04048
 113	1	6	0.155343	63.2791	68.676	4.3904
 114	1	6	0.174191	63.1667	70.3619	2.55673
 115	1	7	-0.106637	60.987	71.5905	1.41298
 116	1	7	0.445763	59.5423	71.899	0.864774
 117	1	8	-0.144255	58.8687	70.7628	0.572233
 118	1	8	-0.136881	59.5737	72.6082	-0.286341
 119	1	8	-0.144092	58.7899	72.6043	1.73921
 120	1	7	0.367264	61.6506	72.9361	1.90115
 121	1	8	-0.12104	61.154	73.3219	3.09847
 122	1	8	-0.122614	61.4624	73.9767	1.05948
 123	1	8	-0.112321	62.9869	72.8095	2.0623
 124	1	3	-0.021957	61.7496	70.9096	0.239403
 125	1	3	-0.054241	62.5003	71.6504	-0.71247
 126	1	3	-0.111709	63.102	70.9682	-1.7789
 127	1	3	-0.087244	61.62	69.5034	0.0482347
 128	1	3	-0.118951	62.2444	68.8359	-1.02276
 129	1	3	-0.044875	62.986	69.6014	-1.92458
 130	1	2	0.461883	63.6879	69.1988	-3.17013
 131	1	1	-0.007433	64.1596	70.3798	-3.72714
 132	1	2	0.491356	63.8741	71.4881	-2.93999
 133	1	3	-0.019445	64.8247	70.4421	-4.98323
 134	1	3	-0.186861	66.184	70.8024	-5.00455
 135	1	3	-0.068374	66.9008	70.8209	-6.20731
 136	1	3	-0.009193	64.1558	70.115	-6.18914
 137	1	3	0.220761	64.894	70.1013	-7.39917
 138	1	3	-0.402098	66.2602	70.4589	-7.39973
 139	1	6	0.148422	66.6915	71.065	-4.07938
 140	1	6	0.146291	67.9542	71.0968	-6.20833
 141	1	6	0.158981	62.132	67.7629	-1.16693
 142	1	6	0.141813	61.0108	68.9127	0.727183
 143	1	6	0.143633	62.5998	72.7302	-0.663402
 144	1	5	-0.474465	64.158	72.6541	-3.15111
 145	1	5	-0.469737	63.7814	68.0655	-3.60983
 146	1	7	-0.37887	62.6609	69.7583	-6.18046
 147	1	9	0.115886	62.123	70.2396	-5.35526
 148	1	9	0.123845	62.5204	68.6729	-6.08112
 149	1	9	0.138418	62.1424	70.0865	-7.08953
 150	1	6	0.21348	66.8268	70.4467	-8.32806
 151	1	1	0.486064	58.635	54.8889	-1.23769
 152	1	2	0.047133	57.316	55.0453	-0.808158
 153	1	3	0.001076	57.2561	56.4052	-0.217005
 154	1	2	0.034038	59.4166	56.0175	-0.995962
 155	1	3	0.050122	58.5037	56.9825	-0.333346
 156	1	5	-0.383076	56.3889	54.2582	-0.89593
 157	1	5	-0.380811	60.5935	56.198	-1.26178
 158	1	3	-0.001248	56.181	57.0776	0.376065
 159	1	3	-0.036565	58.7464	58.2777	0.125681
 160	1	3	-0.208842	57.6787	58.9732	0.728603
 161	1	3	-0.065319	56.3893	58.3882	0.884274
 162	1	6	0.153391	55.2235	56.5702	0.428898
 163	1	6	0.155343	59.7313	58.7264	0.0157124
 164	1	6	0.174191	57.8627	59.9856	1.08269
 165	1	7	-0.106637	55.2663	59.2212	1.5722
 166	1	7	0.445763	54.7465	60.2421	0.48887
 167	1	8	-0.144255	55.6809	61.1721	0.186002
 168	1	8	-0.136881	53.6331	60.9076	0.870265
 169	1	8	-0.144092	54.4469	59.6221	-0.67525
 170	1	7	0.367264	54.053	58.3577	2.08656
 171	1	8	-0.12104	53.2846	57.8661	1.08908
 172	1	8	-0.122614	53.2346	59.077	2.88774
 173	1	8	-0.112321	54.4674	57.3022	2.82322
 174	1	3	-0.021957	55.8837	59.8984	2.83146
 175	1	3	-0.054241	55.6656	61.2623	3.16179
 176	1	3	-0.111709	56.3146	61.7976	4.28145
 177	1	3	-0.087244	56.712	59.1218	3.69162
 178	1	3	-0.118951	57.3572	59.6819	4.81213
 179	1	3	-0.044875	57.1483	61.038	5.07507
 180	1	2	0.461883	57.7521	61.9249	6.10556
 181	1	1	-0.007433	57.2512	63.192	5.84112
 182	1	2	0.491356	56.3413	63.193	4.79007
 183	1	3	-0.019445	57.6983	64.3695	6.50441
 184	1	3	-0.186861	57.3821	64.54	7.86422
 185	1	3	-0.068374	57.7841	65.6909	8.55469
 186	1	3	-0.009193	58.4524	65.3562	5.82227
 187	1	3	0.220761	58.8271	66.5351	6.51571
 188	1	3	-0.402098	58.4954	66.692	7.87884
 189	1	6	0.148422	56.8217	63.7721	8.39202
 190	1	6	0.146291	57.5322	65.8082	9.60769
 191	1	6	0.158981	58.0171	59.0885	5.44221
 192	1	6	0.141813	56.8845	58.0709	3.47315
 193	1	6	0.143633	55.039	61.9188	2.56629
 194	1	5	-0.474465	55.747	64.1406	4.30723
 195	1	5	-0.469737	58.5821	61.6024	6.93756
 196	1	7	-0.37887	58.8447	65.1579	4.34814
 197	1	9	0.115886	59.8134	65.6082	4.10174
 198	1	9	0.123845	58.0872	65.5978	3.68411
 199	1	9	0.138418	58.9465	64.0996	4.08221
 200	1	6	0.21348	58.7884	67.5934	8.41189
 201	1	1	0.486064	57.3117	41.6378	5.1622
 202	1	2	0.047133	57.7539	41.3444	3.8694
 203	1	3	0.001076	58.6485	42.4651	3.49682
 204	1	2	0.034038	57.8404	42.8351	5.64784
 205	1	3	0.050122	58.6842	43.3599	4.54453
 206	1	5	-0.383076	57.4098	40.435	3.13296
 207	1	5	-0.380811	57.614	43.3921	6.70974
 208	1	3	-0.001248	59.3122	42.7063	2.28982
 209	1	3	-0.036565	59.3689	44.5706	4.43374
 210	1	3	-0.208842	60.0137	44.8531	3.21164
 211	1	3	-0.065319	60.0059	43.9349	2.12232
 212	1	6	0.153391	59.2369	41.955	1.51101
 213	1	6	0.155343	59.3668	45.2821	5.25677
 214	1	6	0.174191	60.5058	45.8173	3.1079
 215	1	7	-0.106637	60.6924	44.3527	0.785838
 216	1	7	0.445763	62.2465	44.4212	1.06117
 217	1	8	-0.144255	62.9907	44.5586	-0.0586206
 218	1	8	-0.136881	62.6845	43.3016	1.68039
 219	1	8	-0.144092	62.5818	45.4535	1.86673
 220	1	7	0.367264	60.4408	43.3517	-0.408048
 221	1	8	-0.12104	60.9141	43.8341	-1.57934
 222	1	8	-0.122614	59.124	43.1283	-0.621258
 223	1	8	-0.112321	61.022	42.1467	-0.212589
 224	1	3	-0.021957	60.0595	45.706	0.35702
 225	1	3	-0.054241	60.8162	46.7889	-0.166044
 226	1	3	-0.111709	60.1418	47.9547	-0.557318
 227	1	3	-0.087244	58.6451	45.8491	0.444723
 228	1	3	-0.118951	57.9876	47.0232	0.0349495
 229	1	3	-0.044875	58.7696	48.0652	-0.465149
 230	1	2	0.461883	58.3651	49.3936	-0.989059
 231	1	1	-0.007433	59.547	50.0231	-1.35521
 232	1	2	0.491356	60.6625	49.2237	-1.13582
 233	1	3	-0.019445	59.5915	51.3224	-1.9343
 234	1	3	-0.186861	60.0063	51.437	-3.27309
 235	1	3	-0.068374	60.0014	52.6778	-3.9201
 236	1	3	-0.009193	59.1804	52.4721	-1.21488
 237	1	3	0.220761	59.1244	53.7199	-1.88973
 238	1	3	-0.402098	59.5486	53.8118	-3.23421
 239	1	6	0.148422	60.3345	50.5553	-3.81868
 240	1	6	0.146291	60.3317	52.7531	-4.95498
 241	1	6	0.158981	56.9048	47.1177	0.0927151
 242	1	6	0.141813	58.0365	45.0311	0.821327
 243	1	6	0.143633	61.8946	46.7453	-0.285335
 244	1	5	-0.474465	61.8309	49.4847	-1.36231
 245	1	5	-0.469737	57.224	49.8114	-1.08272
 246	1	7	-0.37887	58.8024	52.3567	0.269731
 247	1	9	0.115886	57.7328	52.1277	0.378986
 248	1	9	0.123845	59.006	53.2753	0.832198
 249	1	9	0.138418	59.3663	51.5666	0.77945
 250	1	6	0.21348	59.5343	54.773	-3.74435
 251	1	1	0.486064	51.7608	29.6154	10.3965
 252	1	2	0.047133	51.8842	30.6944	9.52288
 253	1	3	0.001076	52.936	30.2917	8.56158
 254	1	2	0.034038	52.5714	28.5361	10.0386
 255	1	3	0.050122	53.3429	29.0096	8.86176
 256	1	5	-0.383076	51.2725	31.7499	9.52193
 257	1	5	-0.380811	52.636	27.4285	10.5476
 258	1	3	-0.001248	53.5093	31.0193	7.51879
 259	1	3	-0.036565	54.3368	28.3733	8.11368
 260	1	3	-0.208842	54.9384	29.0937	7.05867
 261	1	3	-0.065319	54.5548	30.4328	6.75992
 262	1	6	0.153391	53.1585	32.0308	7.32624
 263	1	6	0.155343	54.6364	27.3551	8.35105
 264	1	6	0.174191	55.709	28.5888	6.48409
 265	1	7	-0.106637	55.215	31.2829	5.63733
 266	1	7	0.445763	56.6203	30.7494	5.16219
 267	1	8	-0.144255	57.257	31.6548	4.38505
 268	1	8	-0.136881	56.5469	29.6055	4.44497
 269	1	8	-0.144092	57.4451	30.5036	6.20551
 270	1	7	0.367264	54.218	31.2554	4.41705
 271	1	8	-0.12104	53.8648	29.9909	4.09184
 272	1	8	-0.122614	54.7289	31.817	3.29858
 273	1	8	-0.112321	53.063	31.9017	4.69528
 274	1	3	-0.021957	55.4566	32.7042	6.22712
 275	1	3	-0.054241	55.0921	33.8965	5.54854
 276	1	3	-0.111709	55.3052	35.1254	6.18429
 277	1	3	-0.087244	56.0617	32.8198	7.51216
 278	1	3	-0.118951	56.2736	34.0685	8.13003
 279	1	3	-0.044875	55.8727	35.2138	7.43876
 280	1	2	0.461883	55.9636	36.6509	7.81398
 281	1	1	-0.007433	55.4416	37.3431	6.7316
 282	1	2	0.491356	55.0152	36.503	5.71364
 283	1	3	-0.019445	55.3931	38.7576	6.63248
 284	1	3	-0.186861	54.2161	39.4162	7.02555
 285	1	3	-0.068374	54.0882	40.7994	6.86103
 286	1	3	-0.009193	56.472	39.4818	6.07331
 287	1	3	0.220761	56.3179	40.876	5.84857
 288	1	3	-0.402098	55.1285	41.5208	6.26149
 289	1	6	0.148422	53.391	38.8508	7.45132
 290	1	6	0.146291	53.1743	41.3032	7.17213
 291	1	6	0.158981	56.7321	34.1456	9.11406
 292	1	6	0.141813	56.3648	31.9256	8.05058
 293	1	6	0.143633	54.6464	33.8988	4.55885
 294	1	5	-0.474465	54.5234	36.8093	4.64181
 295	1	5	-0.469737	56.4401	37.1055	8.83979
 296	1	7	-0.37887	57.7636	38.735	5.70682
 297	1	9	0.115886	58.0262	37.9801	6.45788
 298	1	9	0.123845	58.6368	39.3936	5.63871
 299	1	9	0.138418	57.6562	38.226	4.73859
 300	1	6	0.21348	55.0121	42.5931	6.11566
 301	1	1	0.486064	52.1734	38.8427	22.9523
 302	1	2	0.047133	51.4373	37.734	23.3636
 303	1	3	0.001076	51.3122	36.8894	22.1489
 304	1	2	0.034038	52.5806	38.7654	21.6225
 305	1	3	0.050122	51.9905	37.5017	21.1155
 306	1	5	-0.383076	50.8983	37.5403	24.4409
 307	1	5	-0.380811	53.1972	39.5927	20.972
 308	1	3	-0.001248	50.5514	35.7354	21.9463
 309	1	3	-0.036565	51.9518	36.9862	19.8183
 310	1	3	-0.208842	51.182	35.8262	19.5902
 311	1	3	-0.065319	50.4709	35.1794	20.641
 312	1	6	0.153391	49.9919	35.3441	22.7875
 313	1	6	0.155343	52.4583	37.503	19.0058
 314	1	6	0.174191	51.1012	35.4632	18.5683
 315	1	7	-0.106637	49.504	34.0046	20.3147
 316	1	7	0.445763	49.3587	32.9828	21.5085
 317	1	8	-0.144255	50.556	32.6273	22.0228
 318	1	8	-0.136881	48.7461	31.8524	21.1028
 319	1	8	-0.144092	48.635	33.4431	22.5509
 320	1	7	0.367264	48.1013	34.666	20.0379
 321	1	8	-0.12104	47.7044	35.4571	21.0607
 322	1	8	-0.122614	47.117	33.7567	19.8517
 323	1	8	-0.112321	48.1379	35.465	18.9476
 324	1	3	-0.021957	50.0576	33.1949	19.0974
 325	1	3	-0.054241	49.3037	32.9403	17.9169
 326	1	3	-0.111709	49.8836	32.1907	16.8839
 327	1	3	-0.087244	51.3753	32.66	19.1724
 328	1	3	-0.118951	51.9268	31.8817	18.1352
 329	1	3	-0.044875	51.1513	31.6658	16.9939
 330	1	2	0.461883	51.4396	30.8774	15.7682
 331	1	1	-0.007433	50.3057	30.9823	14.9686
 332	1	2	0.491356	49.325	31.7661	15.5713
 333	1	3	-0.019445	50.1327	30.2847	13.7285
 334	1	3	-0.186861	49.022	29.4276	13.604
 335	1	3	-0.068374	48.8268	28.6418	12.466
 336	1	3	-0.009193	51.0477	30.3981	12.6461
 337	1	3	0.220761	50.8531	29.5856	11.4931
 338	1	3	-0.402098	49.7506	28.7078	11.4202
 339	1	6	0.148422	48.2884	29.3561	14.3978
 340	1	6	0.146291	47.9649	27.9778	12.4083
 341	1	6	0.158981	52.92	31.4447	18.2204
 342	1	6	0.141813	51.9848	32.8376	20.0539
 343	1	6	0.143633	48.2891	33.2968	17.7767
 344	1	5	-0.474465	48.1994	32.002	15.1682
 345	1	5	-0.469737	52.4575	30.2465	15.5474
 346	1	7	-0.37887	52.2335	31.3746	12.7276
 347	1	9	0.115886	53.1535	30.8559	13.0256
 348	1	9	0.123845	52.0642	32.177	13.4538
 349	1	9	0.138418	52.4298	31.8978	11.7868
 350	1	6	0.21348	49.6076	28.081	10.5423
 351	1	1	0.486064	44.6953	42.7953	19.6424
 352	1	2	0.047133	44.6108	43.304	20.9442
 353	1	3	0.001076	45.3243	44.6036	20.9114
 354	1	2	0.034038	45.3543	43.6809	18.7807
 355	1	3	0.050122	45.7292	44.8476	19.62
 356	1	5	-0.383076	44.0088	42.8561	21.9056
 357	1	5	-0.380811	45.5813	43.5588	17.5877
 358	1	3	-0.001248	45.62	45.4872	21.9528
 359	1	3	-0.036565	46.3771	46.038	19.2818
 360	1	3	-0.208842	46.6473	46.9674	20.3104
 361	1	3	-0.065319	46.3122	46.6959	21.6698
 362	1	6	0.153391	45.3507	45.2003	22.9648
 363	1	6	0.155343	46.6721	46.2282	18.2521
 364	1	6	0.174191	47.1552	47.8824	20.024
 365	1	7	-0.106637	46.7704	47.5914	22.8657
 366	1	7	0.445763	45.4729	48.125	23.5949
 367	1	8	-0.144255	45.7205	49.0744	24.5246
 368	1	8	-0.136881	44.7974	47.1477	24.2384
 369	1	8	-0.144092	44.6031	48.6642	22.7118
 370	1	7	0.367264	47.6521	48.8323	22.4505
 371	1	8	-0.12104	48.7436	48.4774	21.7352
 372	1	8	-0.122614	48.14	49.4879	23.5279
 373	1	8	-0.112321	46.9665	49.7344	21.7126
 374	1	3	-0.021957	47.6733	46.6831	23.746
 375	1	3	-0.054241	48.621	45.8555	23.0914
 376	1	3	-0.111709	49.4042	44.9832	23.8471
 377	1	3	-0.087244	47.6003	46.6289	25.1676
 378	1	3	-0.118951	48.4023	45.7347	25.9127
 379	1	3	-0.044875	49.2914	44.9062	25.217
 380	1	2	0.461883	50.2054	43.8293	25.692
 381	1	1	-0.007433	50.798	43.3093	24.5463
 382	1	2	0.491356	50.399	43.9812	23.3978
 383	1	3	-0.019445	51.6969	42.2036	24.5363
 384	1	3	-0.186861	52.9198	42.3316	25.2202
 385	1	3	-0.068374	53.8733	41.3064	25.1853
 386	1	3	-0.009193	51.4055	41.0116	23.8241
 387	1	3	0.220761	52.3906	39.9934	23.7589
 388	1	3	-0.402098	53.6158	40.1466	24.4427
 389	1	6	0.148422	53.1362	43.2383	25.7805
 390	1	6	0.146291	54.8178	41.4241	25.7143
 391	1	6	0.158981	48.324	45.6736	26.9968
 392	1	6	0.141813	46.9114	47.2633	25.7156
 393	1	6	0.143633	48.7385	45.8642	22.01
 394	1	5	-0.474465	50.7337	43.7779	22.2434
 395	1	5	-0.469737	50.3596	43.4713	26.8464
 396	1	7	-0.37887	50.0564	40.8273	23.1087
 397	1	9	0.115886	49.6714	39.8046	23.1991
 398	1	9	0.123845	50.1462	41.0649	22.0395
 399	1	9	0.138418	49.2676	41.4646	23.5231
 400	1	6	0.21348	54.3734	39.3682	24.3865
 401	1	1	0.486064	41.379	35.2643	28.6428
 402	1	2	0.047133	42.0849	35.7299	27.5328
 403	1	3	0.001076	42.6307	34.5093	26.887
 404	1	2	0.034038	41.486	33.8818	28.8113
 405	1	3	0.050122	42.267	33.4139	27.64
 406	1	5	-0.383076	42.088	36.8513	27.0525
 407	1	5	-0.380811	40.9294	33.1693	29.6314
 408	1	3	-0.001248	43.2312	34.3693	25.6326
 409	1	3	-0.036565	42.5059	32.1144	27.1885
 410	1	3	-0.208842	43.0746	31.9502	25.9075
 411	1	3	-0.065319	43.3966	33.0676	25.0846
 412	1	6	0.153391	43.4661	35.2677	25.0666
 413	1	6	0.155343	42.1899	31.2607	27.7839
 414	1	6	0.174191	43.2123	30.9353	25.5511
 415	1	7	-0.106637	43.8746	32.9027	23.6068
 416	1	7	0.445763	43.2946	31.6163	22.9015
 417	1	8	-0.144255	41.9652	31.4861	23.1098
 418	1	8	-0.136881	43.8661	30.4669	23.3197
 419	1	8	-0.144092	43.4725	31.6636	21.5613
 420	1	7	0.367264	45.4403	32.8029	23.6512
 421	1	8	-0.12104	45.8633	31.8671	24.529
 422	1	8	-0.122614	45.9965	33.9671	24.0554
 423	1	8	-0.112321	45.9736	32.4724	22.4549
 424	1	3	-0.021957	43.3499	34.1201	22.7813
 425	1	3	-0.054241	44.1699	34.8959	21.9139
 426	1	3	-0.111709	43.6273	36.0405	21.3104
 427	1	3	-0.087244	41.9831	34.495	22.9248
 428	1	3	-0.118951	41.464	35.6577	22.3272
 429	1	3	-0.044875	42.3242	36.4262	21.5418
 430	1	2	0.461883	42.0851	37.7181	20.8538
 431	1	1	-0.007433	43.2809	38.0396	20.2268
 432	1	2	0.491356	44.2514	37.0606	20.4179
 433	1	3	-0.019445	43.4223	39.229	19.4516
 434	1	3	-0.186861	42.6344	39.3275	18.2917
 435	1	3	-0.068374	42.5654	40.5217	17.5719
 436	1	3	-0.009193	44.1856	40.3432	19.8941
 437	1	3	0.220761	44.0654	41.5837	19.1971
 438	1	3	-0.402098	43.258	41.6437	18.0365
 439	1	6	0.148422	42.0377	38.4795	17.9641
 440	1	6	0.146291	41.9427	40.5869	16.6808
 441	1	6	0.158981	40.4331	35.9676	22.4862
 442	1	6	0.141813	41.322	33.9092	23.5591
 443	1	6	0.143633	45.2111	34.6597	21.7249
 444	1	5	-0.474465	45.3736	37.0128	19.9457
 445	1	5	-0.469737	41.0435	38.3513	20.8599
 446	1	7	-0.37887	45.0931	40.1867	21.1239
 447	1	9	0.115886	45.8672	40.9587	21.1882
 448	1	9	0.123845	45.6446	39.2416	21.1132
 449	1	9	0.138418	44.5072	40.2259	22.0526
 450	1	6	0.21348	43.1676	42.5762	17.4828
 451	1	1	0.486064	45.4182	43.6009	36.593
 452	1	2	0.047133	44.2685	43.5583	37.3781
 453	1	3	0.001076	43.8079	42.1506	37.3135
 454	1	2	0.034038	45.7383	42.3676	36.029
 455	1	3	0.050122	44.6777	41.4448	36.5072
 456	1	5	-0.383076	43.7242	44.4707	37.977
 457	1	5	-0.380811	46.6857	42.0823	35.3154
 458	1	3	-0.001248	42.6949	41.5495	37.9105
 459	1	3	-0.036565	44.4836	40.0867	36.2524
 460	1	3	-0.208842	43.3744	39.4574	36.8538
 461	1	3	-0.065319	42.4505	40.1713	37.6715
 462	1	6	0.153391	42.0517	42.164	38.5308
 463	1	6	0.155343	45.1665	39.5422	35.6026
 464	1	6	0.174191	43.2221	38.3998	36.6548
 465	1	7	-0.106637	41.2216	39.4174	38.2656
 466	1	7	0.445763	41.7428	38.6395	39.5304
 467	1	8	-0.144255	42.59	37.6444	39.1845
 468	1	8	-0.136881	40.7545	38.0837	40.2666
 469	1	8	-0.144092	42.4281	39.4509	40.365
 470	1	7	0.367264	40.039	40.3662	38.6937
 471	1	8	-0.12104	39.7218	41.2408	37.7125
 472	1	8	-0.122614	40.3069	41.0919	39.802
 473	1	8	-0.112321	38.9106	39.6674	38.955
 474	1	3	-0.021957	40.6526	38.4937	37.1509
 475	1	3	-0.054241	40.5441	39.0158	35.8363
 476	1	3	-0.111709	40.1055	38.1816	34.8067
 477	1	3	-0.087244	40.2364	37.15	37.3808
 478	1	3	-0.118951	39.7773	36.3307	36.3289
 479	1	3	-0.044875	39.7407	36.8736	35.0412
 480	1	2	0.461883	39.3913	36.2506	33.7383
 481	1	1	-0.007433	39.6012	37.2416	32.789
 482	1	2	0.491356	40.0048	38.4437	33.3489
 483	1	3	-0.019445	39.5183	37.0065	31.3935
 484	1	3	-0.186861	38.3251	37.3288	30.7254
 485	1	3	-0.068374	38.1707	37.034	29.3659
 486	1	3	-0.009193	40.5891	36.3998	30.6958
 487	1	3	0.220761	40.4079	36.0418	29.3386
 488	1	3	-0.402098	39.2007	36.3743	28.6821
 489	1	6	0.148422	37.5096	37.8034	31.2652
 490	1	6	0.146291	37.2432	37.2885	28.8556
 491	1	6	0.158981	39.4734	35.3002	36.5043
 492	1	6	0.141813	40.2685	36.7121	38.3719
 493	1	6	0.143633	40.8363	40.0376	35.6028
 494	1	5	-0.474465	40.2911	39.4835	32.7825
 495	1	5	-0.469737	39.0512	35.0935	33.5615
 496	1	7	-0.37887	41.9229	36.1196	31.3931
 497	1	9	0.115886	42.046	36.6418	32.3475
 498	1	9	0.123845	42.7701	36.4372	30.7712
 499	1	9	0.138418	42.0357	35.0499	31.5897
 500	1	6	0.21348	39.063	36.1129	27.6356
 501	1	1	0.486064	57.5882	46.9563	44.7931
 502	1	2	0.047133	57.3015	48.1733	44.1765
 503	1	3	0.001076	56.4977	47.821	42.9775
 504	1	2	0.034038	57.069	45.8636	44.1
 505	1	3	0.050122	56.3574	46.4487	42.9389
 506	1	5	-0.383076	57.6047	49.2971	44.5401
 507	1	5	-0.380811	57.153	44.678	44.3748
 508	1	3	-0.001248	55.9244	48.6483	42.0043
 509	1	3	-0.036565	55.6301	45.8206	41.9278
 510	1	3	-0.208842	55.0339	46.635	40.9451
 511	1	3	-0.065319	55.16	48.0531	40.964
 512	1	6	0.153391	56.0811	49.719	42.0826
 513	1	6	0.155343	55.5307	44.7372	41.911
 514	1	6	0.174191	54.4653	46.1495	40.1546
 515	1	7	-0.106637	54.4782	48.8738	39.8307
 516	1	7	0.445763	55.3803	48.6992	38.5491
 517	1	8	-0.144255	55.0131	49.503	37.526
 518	1	8	-0.136881	55.3565	47.4306	38.0812
 519	1	8	-0.144092	56.6782	48.9736	38.813
 520	1	7	0.367264	54.3414	50.4132	40.1472
 521	1	8	-0.12104	55.5225	51.0705	40.1282
 522	1	8	-0.122614	53.7914	50.6329	41.3628
 523	1	8	-0.112321	53.5364	51.0351	39.256
 524	1	3	-0.021957	53.0289	48.3284	39.6648
 525	1	3	-0.054241	52.4539	48.0127	38.404
 526	1	3	-0.111709	51.1398	47.5271	38.3633
 527	1	3	-0.087244	52.2303	48.1541	40.8311
 528	1	3	-0.118951	50.9039	47.6849	40.7646
 529	1	3	-0.044875	50.3836	47.3763	39.5061
 530	1	2	0.461883	49.0361	46.884	39.1182
 531	1	1	-0.007433	49.074	46.7439	37.7355
 532	1	2	0.491356	50.3032	47.117	37.2043
 533	1	3	-0.019445	47.9574	46.3398	36.9469
 534	1	3	-0.186861	47.4596	47.2526	35.9977
 535	1	3	-0.068374	46.3283	46.9498	35.2317
 536	1	3	-0.009193	47.324	45.082	37.1201
 537	1	3	0.220761	46.1541	44.7971	36.3702
 538	1	3	-0.402098	45.6687	45.7308	35.4291
 539	1	6	0.148422	47.9525	48.2113	35.8537
 540	1	6	0.146291	45.954	47.6695	34.5053
 541	1	6	0.158981	50.2972	47.5658	41.6602
 542	1	6	0.141813	52.6411	48.3895	41.8095
 543	1	6	0.143633	52.989	48.1329	37.467
 544	1	5	-0.474465	50.6432	47.1394	36.0343
 545	1	5	-0.469737	48.1027	46.6798	39.8753
 546	1	7	-0.37887	47.8762	44.0518	38.1174
 547	1	9	0.115886	47.7803	43.0222	37.7523
 548	1	9	0.123845	47.3549	44.122	39.0821
 549	1	9	0.138418	48.9463	44.1884	38.3101
 550	1	6	0.21348	44.7676	45.5131	34.8597
 551	1	1	0.486064	51.2207	38.8468	49.8924
 552	1	2	0.047133	52.3089	38.494	50.6912
 553	1	3	0.001076	52.7915	39.7707	51.2785
 554	1	2	0.034038	50.948	40.2143	49.9282
 555	1	3	0.050122	51.9833	40.7898	50.8188
 556	1	5	-0.383076	52.779	37.3856	50.8863
 557	1	5	-0.380811	50.0526	40.8291	49.3728
 558	1	3	-0.001248	53.859	40.0131	52.1517
 559	1	3	-0.036565	52.1954	42.1143	51.2004
 560	1	3	-0.208842	53.2706	42.3829	52.0699
 561	1	3	-0.065319	54.1227	41.3506	52.5558
 562	1	6	0.153391	54.4504	39.1674	52.4866
 563	1	6	0.155343	51.5454	42.9049	50.8315
 564	1	6	0.174191	53.4397	43.4148	52.37
 565	1	7	-0.106637	55.2815	41.7392	53.5212
 566	1	7	0.445763	56.3782	40.6187	53.6902
 567	1	8	-0.144255	56.8193	40.1609	52.4969
 568	1	8	-0.136881	55.9413	39.5449	54.3859
 569	1	8	-0.144092	57.4698	41.0852	54.3381
 570	1	7	0.367264	54.6175	42.0167	54.9238
 571	1	8	-0.12104	55.518	42.1818	55.9187
 572	1	8	-0.122614	53.8411	43.1239	54.9086
 573	1	8	-0.112321	53.8081	41.0002	55.2994
 574	1	3	-0.021957	56.0036	42.9734	52.9054
 575	1	3	-0.054241	56.3387	42.9373	51.5276
 576	1	3	-0.111709	56.9707	44.0419	50.9492
 577	1	3	-0.087244	56.3556	44.1349	53.653
 578	1	3	-0.118951	56.9864	45.2422	53.0454
 579	1	3	-0.044875	57.2779	45.169	51.6794
 580	1	2	0.461883	57.9184	46.1551	50.7652
 581	1	1	-0.007433	57.9468	45.5418	49.5179
 582	1	2	0.491356	57.4146	44.2584	49.5504
 583	1	3	-0.019445	58.4886	46.1367	48.3422
 584	1	3	-0.186861	59.8585	46.4566	48.3285
 585	1	3	-0.068374	60.4624	46.9771	47.1778
 586	1	3	-0.009193	57.6968	46.3613	47.1879
 587	1	3	0.220761	58.3242	46.8332	46.0058
 588	1	3	-0.402098	59.7002	47.1499	46.0155
 589	1	6	0.148422	60.4626	46.2995	49.2191
 590	1	6	0.146291	61.5228	47.225	47.1843
 591	1	6	0.158981	57.2432	46.1313	53.6183
 592	1	6	0.141813	56.144	44.204	54.7143
 593	1	6	0.143633	56.1063	42.0735	50.9084
 594	1	5	-0.474465	57.319	43.4547	48.6395
 595	1	5	-0.469737	58.3222	47.2644	51.069
 596	1	7	-0.37887	56.1841	46.0919	47.2183
 597	1	9	0.115886	55.6227	46.7609	46.5553
 598	1	9	0.123845	55.7572	46.2398	48.2172
 599	1	9	0.138418	55.9687	45.0576	46.9126
 600	1	6	0.21348	60.1768	47.535	45.1163
 601	1	1	0.486064	44.2075	34.8498	36.0816
 602	1	2	0.047133	44.8921	36.068	36.0435
 603	1	3	0.001076	45.2732	36.3499	37.452
 604	1	2	0.034038	44.0546	34.3683	37.3823
 605	1	3	0.050122	44.754	35.3503	38.2471
 606	1	5	-0.383076	45.0963	36.7967	35.0871
 607	1	5	-0.380811	43.4715	33.3649	37.758
 608	1	3	-0.001248	46.0257	37.4024	37.989
 609	1	3	-0.036565	44.9123	35.3719	39.6336
 610	1	3	-0.208842	45.6436	36.4372	40.1974
 611	1	3	-0.065319	46.2447	37.4472	39.3924
 612	1	6	0.153391	46.4212	38.152	37.3133
 613	1	6	0.155343	44.4741	34.5905	40.251
 614	1	6	0.174191	45.7456	36.4684	41.2803
 615	1	7	-0.106637	47.0636	38.5837	40.0773
 616	1	7	0.445763	48.1477	39.2338	39.1344
 617	1	8	-0.144255	48.8749	38.2931	38.4908
 618	1	8	-0.136881	49.0267	39.9867	39.8337
 619	1	8	-0.144092	47.6267	40.0411	38.1832
 620	1	7	0.367264	46.0231	39.6875	40.4964
 621	1	8	-0.12104	46.605	40.8179	40.9561
 622	1	8	-0.122614	45.1845	39.2386	41.4571
 623	1	8	-0.112321	45.2405	40.0568	39.4602
 624	1	3	-0.021957	47.8379	37.9706	41.2851
 625	1	3	-0.054241	47.8146	38.5365	42.5885
 626	1	3	-0.111709	48.483	37.8771	43.6261
 627	1	3	-0.087244	48.5889	36.776	41.0882
 628	1	3	-0.118951	49.26	36.1312	42.1481
 629	1	3	-0.044875	49.1786	36.7048	43.4201
 630	1	2	0.461883	49.7102	36.2401	44.7314
 631	1	1	-0.007433	49.2804	37.1806	45.6577
 632	1	2	0.491356	48.5498	38.2063	45.0727
 633	1	3	-0.019445	49.5	37.0808	47.0592
 634	1	3	-0.186861	48.7965	36.095	47.7742
 635	1	3	-0.068374	48.9195	35.9961	49.1647
 636	1	3	-0.009193	50.3577	37.979	47.7381
 637	1	3	0.220761	50.4445	37.9076	49.1537
 638	1	3	-0.402098	49.7312	36.9075	49.8517
 639	1	6	0.148422	48.1464	35.4004	47.2481
 640	1	6	0.146291	48.3733	35.2255	49.7067
 641	1	6	0.158981	49.8085	35.2043	41.9917
 642	1	6	0.141813	48.6289	36.32	40.1022
 643	1	6	0.143633	47.2775	39.4484	42.8286
 644	1	5	-0.474465	48.0155	39.1573	45.6153
 645	1	5	-0.469737	50.3346	35.2134	44.9358
 646	1	7	-0.37887	51.1657	39.0112	46.9376
 647	1	9	0.115886	51.4548	38.6329	45.9497
 648	1	9	0.123845	52.1033	39.2928	47.4314
 649	1	9	0.138418	50.5787	39.9287	46.7868
 650	1	6	0.21348	49.8159	36.8355	50.9342
 651	1	1	0.486064	47.7225	28.7677	21.7212
 652	1	2	0.047133	48.7722	29.0886	22.5851
 653	1	3	0.001076	48.1792	29.0614	23.9438
 654	1	2	0.034038	46.535	28.4912	22.3999
 655	1	3	0.050122	46.8522	28.7042	23.8328
 656	1	5	-0.383076	49.9133	29.4211	22.3109
 657	1	5	-0.380811	45.4389	28.2193	21.9376
 658	1	3	-0.001248	48.7575	29.3861	25.1751
 659	1	3	-0.036565	46.0216	28.6472	24.9525
 660	1	3	-0.208842	46.5791	28.9828	26.2026
 661	1	3	-0.065319	47.9442	29.3629	26.3397
 662	1	6	0.153391	49.8078	29.6578	25.1917