pySIMM System Object

1252 atoms
1376 bonds
2400 angles
3696 dihedrals
400 impropers

9 atom types
11 bond types
18 angle types
7 dihedral types
4 improper types

-174.199221 174.199221 xlo xhi
-174.199221 174.199221 ylo yhi
-174.199221 174.199221 zlo zhi

Masses

   1	14.01	# n
   2	12.01	# c
   3	12.01	# ca
   4	1.008	# hn
   5	16.0	# o
   6	1.008	# ha
   7	12.01	# c3
   8	19.0	# f
   9	1.008	# hc

Pair Coeffs

   1	0.17	3.249998523775958	# n
   2	0.086	3.3996695084235347	# c
   3	0.086	3.3996695084235347	# ca
   4	0.0157	1.069078461768407	# hn
   5	0.21	2.959921901149463	# o
   6	0.015	2.59964245953351	# ha
   7	0.1094	3.3996695084235347	# c3
   8	0.061	3.1181455134911875	# f
   9	0.0157	2.649532787749369	# hc

Bond Coeffs

   1	427.6	1.3789	# c,n
   2	461.1	1.3984	# ca,ca
   3	345.9	1.4906	# c,ca
   4	345.8	1.086	# ca,ha
   5	637.7	1.2183	# c,o
   6	321.0	1.5156	# c3,ca
   7	300.9	1.5375	# c3,c3
   8	356.9	1.3497	# c3,f
   9	384.2	1.4121	# ca,n
  10	330.6	1.0969	# c3,hc
  11	403.2	1.0129	# hn,n

Angle Coeffs

   1	48.18	119.88	# ca,ca,ha
   2	63.15	112.07	# c3,c3,ca
   3	70.89	107.36	# f,c3,f
   4	67.87	120.19	# ca,ca,n
   5	68.72	122.6	# ca,c,o
   6	63.56	112.24	# ca,c3,ca
   7	63.82	123.71	# c,n,ca
   8	74.22	123.05	# n,c,o
   9	48.33	117.55	# c,n,hn
  10	67.68	115.25	# ca,c,n
  11	64.28	120.33	# c,ca,ca
  12	66.11	109.24	# c3,c3,f
  13	46.8	110.47	# ca,c3,hc
  14	39.4	107.58	# hc,c3,hc
  15	66.62	120.02	# ca,ca,ca
  16	63.53	120.77	# c3,ca,ca
  17	62.86	111.51	# c3,c3,c3
  18	63.74	127.08	# c,n,c

Dihedral Coeffs

   1	1	2.5	2	180	# X,c,n,X
   2	1	0.45	2	180	# X,ca,n,X
   3	2	2.5	2	180	2.0	1	0	# hn,n,c,o
   4	1	3.625	2	180	# X,ca,ca,X
   5	1	1.0	2	180	# X,c,ca,X
   6	1	0.15555555555555556	3	0	# X,c3,c3,X
   7	1	0.0	2	0	# X,c3,ca,X

Improper Coeffs

   1	1.1	-1	2	# ca,ca,ca,c3
   2	10.5	-1	2	# c,X,X,o
   3	1.1	-1	2	# ca,X,X,ha
   4	1.1	-1	2	# n,X,X,hn

Atoms

   1	1	1	0.486064	22.1486	-59.3219	12.1609
   2	1	2	0.047133	21.8408	-59.2593	10.8007
   3	1	3	0.001076	22.157	-60.608	10.2635
   4	1	2	0.034038	22.6081	-60.5816	12.548
   5	1	3	0.050122	22.6072	-61.3929	11.3047
   6	1	5	-0.383076	21.458	-58.2989	10.1537
   7	1	5	-0.380811	23.0133	-60.9403	13.6413
   8	1	3	-0.001248	22.1207	-61.0801	8.94532
   9	1	3	-0.036565	23.0388	-62.7029	11.0897
  10	1	3	-0.208842	23.0025	-63.2018	9.77154
  11	1	3	-0.065319	22.545	-62.4108	8.6796
  12	1	6	0.153391	21.7959	-60.4	8.16492
  13	1	6	0.155343	23.4159	-63.3013	11.9164
  14	1	6	0.174191	23.3657	-64.2125	9.5968
  15	1	7	-0.106637	22.6192	-63.0036	7.24088
  16	1	7	0.445763	21.6933	-62.2649	6.19958
  17	1	8	-0.144255	20.4369	-62.1022	6.67198
  18	1	8	-0.136881	21.5781	-62.9688	5.05049
  19	1	8	-0.144092	22.1408	-61.0369	5.85455
  20	1	7	0.367264	24.1201	-62.8529	6.78316
  21	1	8	-0.12104	24.5699	-61.5881	6.95037
  22	1	8	-0.122614	24.3121	-63.1632	5.4812
  23	1	8	-0.112321	24.9496	-63.6373	7.50855
  24	1	3	-0.021957	22.1253	-64.4806	7.29684
  25	1	3	-0.054241	22.8349	-65.5618	6.70675
  26	1	3	-0.111709	22.3173	-66.858	6.82693
  27	1	3	-0.087244	20.8995	-64.766	7.96272
  28	1	3	-0.118951	20.3895	-66.0763	8.05987
  29	1	3	-0.044875	21.1293	-67.1106	7.4809
  30	1	2	0.461883	20.8838	-68.5779	7.45843
  31	1	1	-0.007433	21.975	-69.1233	6.7978
  32	1	2	0.491356	22.8756	-68.1583	6.36922
  33	1	3	-0.019445	22.177	-70.5194	6.63411
  34	1	3	-0.186861	23.0113	-71.1947	7.5444
  35	1	3	-0.068374	23.2272	-72.5757	7.42778
  36	1	3	-0.009193	21.5514	-71.2322	5.58823
  37	1	3	0.220761	21.7734	-72.62	5.47822
  38	1	3	-0.402098	22.6045	-73.288	6.39201
  39	1	6	0.148422	23.4949	-70.6461	8.34834
  40	1	6	0.146291	23.8733	-73.0879	8.13839
  41	1	6	0.158981	19.4569	-66.2847	8.5805
  42	1	6	0.141813	20.3345	-63.9598	8.42391
  43	1	6	0.143633	23.7724	-65.4312	6.17578
  44	1	5	-0.474465	23.9344	-68.3221	5.78862
  45	1	5	-0.469737	19.936	-69.1607	7.95677
  46	1	7	-0.37887	20.6466	-70.5204	4.58443
  47	1	9	0.115886	21.1841	-69.714	4.06966
  48	1	9	0.123845	19.7694	-70.088	5.08299
  49	1	9	0.138418	20.2768	-71.209	3.81413
  50	1	6	0.21348	22.7625	-74.3577	6.29097
  51	1	1	0.486064	16.1433	-49.421	21.943
  52	1	2	0.047133	15.4381	-50.5909	21.6555
  53	1	3	0.001076	16.4699	-51.5942	21.3011
  54	1	2	0.034038	17.5145	-49.553	21.7065
  55	1	3	0.050122	17.7036	-50.9794	21.3165
  56	1	5	-0.383076	14.2567	-50.827	21.8482
  57	1	5	-0.380811	18.4009	-48.7537	21.9595
  58	1	3	-0.001248	16.335	-52.982	21.193
  59	1	3	-0.036565	18.8769	-51.7279	21.1724
  60	1	3	-0.208842	18.7635	-53.1324	21.053
  61	1	3	-0.065319	17.5002	-53.788	21.0859
  62	1	6	0.153391	15.3395	-53.3996	21.2917
  63	1	6	0.155343	19.8478	-51.2404	21.2303
  64	1	6	0.174191	19.678	-53.7209	21.0155
  65	1	7	-0.106637	17.4408	-55.3411	21.2221
  66	1	7	0.445763	17.6744	-55.637	22.7543
  67	1	8	-0.144255	17.4031	-56.9149	23.104
  68	1	8	-0.136881	16.8984	-54.8591	23.5438
  69	1	8	-0.144092	18.9515	-55.3812	23.12
  70	1	7	0.367264	16.0543	-55.9546	20.7893
  71	1	8	-0.12104	15.0585	-55.7246	21.6743
  72	1	8	-0.122614	16.1251	-57.2979	20.6453
  73	1	8	-0.112321	15.6489	-55.4644	19.5963
  74	1	3	-0.021957	18.5029	-56.0067	20.2948
  75	1	3	-0.054241	18.6228	-55.5664	18.9502
  76	1	3	-0.111709	19.5026	-56.2378	18.0877
  77	1	3	-0.087244	19.2919	-57.1207	20.7093
  78	1	3	-0.118951	20.1742	-57.7759	19.8284
  79	1	3	-0.044875	20.2532	-57.3132	18.5141
  80	1	2	0.461883	21.0753	-57.8003	17.3762
  81	1	1	-0.007433	20.7667	-56.9646	16.3117
  82	1	2	0.491356	19.8239	-56.0007	16.6533
  83	1	3	-0.019445	21.4404	-57.0218	15.0582
  84	1	3	-0.186861	22.2981	-55.9563	14.7318
  85	1	3	-0.068374	23.0615	-55.9837	13.5605
  86	1	3	-0.009193	21.3269	-58.1368	14.1889
  87	1	3	0.220761	22.1378	-58.1844	13.023
  88	1	3	-0.402098	22.9904	-57.0995	12.7183
  89	1	6	0.148422	22.3793	-55.0999	15.3969
  90	1	6	0.146291	23.7201	-55.1507	13.3193
  91	1	6	0.158981	20.7689	-58.6287	20.1513
  92	1	6	0.141813	19.2268	-57.5181	21.7151
  93	1	6	0.143633	18.0308	-54.7349	18.5738
  94	1	5	-0.474465	19.3803	-55.1037	15.9582
  95	1	5	-0.469737	21.8806	-58.7147	17.41
  96	1	7	-0.37887	20.3467	-59.2709	14.5179
  97	1	9	0.115886	19.9519	-59.7597	13.6193
  98	1	9	0.123845	19.4714	-58.9127	15.0729
  99	1	9	0.138418	20.8379	-60.0408	15.1307
 100	1	6	0.21348	23.5981	-57.1231	11.8158
 101	1	1	0.486064	12.8801	-33.973	21.5507
 102	1	2	0.047133	13.5106	-35.2256	21.5125
 103	1	3	0.001076	12.5252	-36.1879	22.0708
 104	1	2	0.034038	11.5459	-34.0732	21.9567
 105	1	3	0.050122	11.3523	-35.5036	22.306
 106	1	5	-0.383076	14.6764	-35.4821	21.259
 107	1	5	-0.380811	10.7619	-33.1749	22.2149
 108	1	3	-0.001248	12.7318	-37.4851	22.567
 109	1	3	-0.036565	10.291	-36.1031	22.9835
 110	1	3	-0.208842	10.4786	-37.402	23.4964
 111	1	3	-0.065319	11.7159	-38.097	23.3498
 112	1	6	0.153391	13.7118	-37.9428	22.4575
 113	1	6	0.155343	9.38656	-35.5365	23.1954
 114	1	6	0.174191	9.66725	-37.802	24.094
 115	1	7	-0.106637	12.0747	-39.3472	24.2169
 116	1	7	0.445763	13.0676	-38.8223	25.3318
 117	1	8	-0.144255	14.299	-38.5743	24.8311
 118	1	8	-0.136881	13.2339	-39.6766	26.3665
 119	1	8	-0.144092	12.6396	-37.6587	25.8734
 120	1	7	0.367264	10.828	-39.9966	24.9376
 121	1	8	-0.12104	10.31	-39.2183	25.9153
 122	1	8	-0.122614	11.1356	-41.1789	25.5192
 123	1	8	-0.112321	9.82941	-40.2692	24.0667
 124	1	3	-0.021957	12.6771	-40.4858	23.3405
 125	1	3	-0.054241	13.697	-41.3433	23.8333
 126	1	3	-0.111709	13.9814	-42.532	23.152
 127	1	3	-0.087244	12.0371	-40.8433	22.1214
 128	1	3	-0.118951	12.3272	-42.0589	21.4596
 129	1	3	-0.044875	13.2908	-42.9074	22.0214
 130	1	2	0.461883	13.6133	-44.3388	21.7362
 131	1	1	-0.007433	14.4698	-44.7428	22.7595
 132	1	2	0.491356	14.7988	-43.685	23.6027
 133	1	3	-0.019445	14.7337	-46.1055	23.1152
 134	1	3	-0.186861	14.3013	-46.5062	24.3958
 135	1	3	-0.068374	14.5096	-47.8044	24.8617
 136	1	3	-0.009193	15.3785	-47.0459	22.2635
 137	1	3	0.220761	15.5643	-48.379	22.7311
 138	1	3	-0.402098	15.1387	-48.7329	24.0317
 139	1	6	0.148422	13.8036	-45.7964	25.0526
 140	1	6	0.146291	14.1737	-48.0887	25.8578
 141	1	6	0.158981	11.7569	-42.3742	20.588
 142	1	6	0.141813	11.2296	-40.2247	21.7371
 143	1	6	0.143633	14.193	-41.1779	24.7836
 144	1	5	-0.474465	15.4653	-43.7143	24.623
 145	1	5	-0.469737	13.0691	-45.0352	20.8963
 146	1	7	-0.37887	15.8368	-46.6271	20.8622
 147	1	9	0.115886	16.694	-47.2058	20.5002
 148	1	9	0.123845	16.1552	-45.5781	20.8376
 149	1	9	0.138418	15.0213	-46.7413	20.135
 150	1	6	0.21348	15.2729	-49.7516	24.3903
 151	1	1	0.486064	12.1819	-18.5198	15.5436
 152	1	2	0.047133	13.4479	-18.9923	15.8972
 153	1	3	0.001076	13.2051	-20.3017	16.5628
 154	1	2	0.034038	11.1571	-19.3495	16.0087
 155	1	3	0.050122	11.8453	-20.517	16.6169
 156	1	5	-0.383076	14.5358	-18.5498	15.5679
 157	1	5	-0.380811	9.95756	-19.2556	15.8051
 158	1	3	-0.001248	14.1184	-21.3047	16.9101
 159	1	3	-0.036565	11.3255	-21.7557	17.0035
 160	1	3	-0.208842	12.2311	-22.7898	17.3271
 161	1	3	-0.065319	13.6404	-22.5881	17.3024
 162	1	6	0.153391	15.1736	-21.095	16.7738
 163	1	6	0.155343	10.252	-21.9301	16.9766
 164	1	6	0.174191	11.82	-23.7724	17.5455
 165	1	7	-0.106637	14.6244	-23.7844	17.5222
 166	1	7	0.445763	15.0246	-24.2959	16.0844
 167	1	8	-0.144255	13.9823	-24.9154	15.4855
 168	1	8	-0.136881	16.0682	-25.1556	16.0948
 169	1	8	-0.144092	15.387	-23.2921	15.2543
 170	1	7	0.367264	15.9232	-23.3365	18.2973
 171	1	8	-0.12104	16.7959	-22.6306	17.5452
 172	1	8	-0.122614	16.6151	-24.3969	18.774
 173	1	8	-0.112321	15.6142	-22.5664	19.3649
 174	1	3	-0.021957	13.9821	-24.9109	18.4021
 175	1	3	-0.054241	14.1623	-26.2976	18.1281
 176	1	3	-0.111709	13.7078	-27.2497	19.0504
 177	1	3	-0.087244	13.3256	-24.5587	19.6158
 178	1	3	-0.118951	12.8667	-25.5331	20.5286
 179	1	3	-0.044875	13.0826	-26.8814	20.2215
 180	1	2	0.461883	12.9065	-28.1011	21.0593
 181	1	1	-0.007433	13.4988	-29.1359	20.3434
 182	1	2	0.491356	13.9518	-28.7191	19.0987
 183	1	3	-0.019445	13.8919	-30.3659	20.9489
 184	1	3	-0.186861	15.0391	-30.3164	21.7591
 185	1	3	-0.068374	15.4841	-31.4491	22.4415
 186	1	3	-0.009193	13.1778	-31.5831	20.7922
 187	1	3	0.220761	13.6054	-32.7334	21.5226
 188	1	3	-0.402098	14.7599	-32.6396	22.3372
 189	1	6	0.148422	15.5884	-29.3848	21.8697
 190	1	6	0.146291	16.3734	-31.3957	23.0674
 191	1	6	0.158981	12.4162	-25.2495	21.4779
 192	1	6	0.141813	13.2082	-23.5101	19.8788
 193	1	6	0.143633	14.703	-26.6623	17.2624
 194	1	5	-0.474465	14.5667	-29.3705	18.2727
 195	1	5	-0.469737	12.4986	-28.1246	22.2077
 196	1	7	-0.37887	11.9664	-31.6133	19.854
 197	1	9	0.115886	11.0872	-31.1716	20.3426
 198	1	9	0.123845	11.6941	-32.6274	19.5402
 199	1	9	0.138418	12.1571	-31.0513	18.9311
 200	1	6	0.21348	15.1048	-33.5057	22.8994
 201	1	1	0.486064	13.3119	-2.67827	10.3029
 202	1	2	0.047133	12.3096	-3.57173	9.93031
 203	1	3	0.001076	12.5595	-4.79232	10.737
 204	1	2	0.034038	14.2154	-3.22892	11.2118
 205	1	3	0.050122	13.6912	-4.59149	11.4984
 206	1	5	-0.383076	11.3629	-3.3796	9.1857
 207	1	5	-0.380811	15.1741	-2.6936	11.7431
 208	1	3	-0.001248	11.7673	-5.93492	10.8798
 209	1	3	-0.036565	14.1016	-5.53991	12.44
 210	1	3	-0.208842	13.3093	-6.69808	12.6077
 211	1	3	-0.065319	12.1303	-6.91903	11.8411
 212	1	6	0.153391	10.8597	-5.9901	10.2904
 213	1	6	0.155343	14.9752	-5.353	13.0609
 214	1	6	0.174191	13.5902	-7.40672	13.3843
 215	1	7	-0.106637	11.1881	-8.11194	12.2002
 216	1	7	0.445763	10.3437	-7.62199	13.4383
 217	1	8	-0.144255	9.25248	-8.37927	13.6881
 218	1	8	-0.136881	9.8874	-6.35952	13.268
 219	1	8	-0.144092	11.0919	-7.60906	14.5646
 220	1	7	0.367264	10.2128	-8.49664	11.0222
 221	1	8	-0.12104	9.59395	-9.68006	11.2366
 222	1	8	-0.122614	10.8865	-8.62892	9.85694
 223	1	8	-0.112321	9.22632	-7.59407	10.8215
 224	1	3	-0.021957	12.0052	-9.40752	12.5018
 225	1	3	-0.054241	11.5255	-10.3995	13.4015
 226	1	3	-0.111709	12.1758	-11.638	13.4719
 227	1	3	-0.087244	13.1562	-9.71568	11.7235
 228	1	3	-0.118951	13.8042	-10.9667	11.8168
 229	1	3	-0.044875	13.2787	-11.9212	12.6958
 230	1	2	0.461883	13.5686	-13.3784	12.8142
 231	1	1	-0.007433	12.5577	-13.8956	13.6183
 232	1	2	0.491356	11.7241	-12.9021	14.1152
 233	1	3	-0.019445	12.1839	-15.2715	13.5981
 234	1	3	-0.186861	11.5647	-15.7206	12.4178
 235	1	3	-0.068374	11.1411	-17.0437	12.2857
 236	1	3	-0.009193	12.3802	-16.1632	14.6859
 237	1	3	0.220761	11.9665	-17.5195	14.5429
 238	1	3	-0.402098	11.3486	-17.936	13.3405
 239	1	6	0.148422	11.4079	-15.0334	11.5897
 240	1	6	0.146291	10.6598	-17.3745	11.3668
 241	1	6	0.158981	14.6373	-11.2192	11.1634
 242	1	6	0.141813	13.5148	-9.00498	10.9832
 243	1	6	0.143633	10.6089	-10.2785	13.9678
 244	1	5	-0.474465	10.71	-13.041	14.7764
 245	1	5	-0.469737	14.384	-13.9967	12.152
 246	1	7	-0.37887	13.0388	-15.6533	15.972
 247	1	9	0.115886	14.1307	-15.6158	15.8578
 248	1	9	0.123845	12.8203	-16.2826	16.8424
 249	1	9	0.138418	12.692	-14.6457	16.2329
 250	1	6	0.21348	11.0171	-18.9664	13.2274
 251	1	1	0.486064	10.5276	11.3249	13.0311
 252	1	2	0.047133	10.6306	10.2026	12.2081
 253	1	3	0.001076	9.42037	9.3942	12.498
 254	1	2	0.034038	9.36794	11.3187	13.8054
 255	1	3	0.050122	8.66878	10.0597	13.4431
 256	1	5	-0.383076	11.51	9.92266	11.411
 257	1	5	-0.380811	8.98928	12.1516	14.6123
 258	1	3	-0.001248	9.01233	8.16723	11.9653
 259	1	3	-0.036565	7.45662	9.53861	13.8998
 260	1	3	-0.208842	7.02268	8.3035	13.3726
 261	1	3	-0.065319	7.79385	7.58897	12.4097
 262	1	6	0.153391	9.63824	7.67737	11.2231
 263	1	6	0.155343	6.86885	10.0811	14.6375
 264	1	6	0.174191	6.072	7.92227	13.7307
 265	1	7	-0.106637	7.34779	6.22453	11.8009
 266	1	7	0.445763	6.20285	5.50614	12.6109
 267	1	8	-0.144255	6.00976	4.23696	12.1855
 268	1	8	-0.136881	5.00722	6.13096	12.5156
 269	1	8	-0.144092	6.50216	5.41436	13.9268
 270	1	7	0.367264	6.82561	6.53887	10.3467
 271	1	8	-0.12104	5.95147	7.57113	10.3464
 272	1	8	-0.122614	6.1899	5.49795	9.76415
 273	1	8	-0.112321	7.83302	6.89883	9.51992
 274	1	3	-0.021957	8.57083	5.2606	11.8327
 275	1	3	-0.054241	8.89008	4.37896	10.7641
 276	1	3	-0.111709	10.0032	3.53575	10.8904
 277	1	3	-0.087244	9.38159	5.22056	13.0028
 278	1	3	-0.118951	10.4991	4.36896	13.1069
 279	1	3	-0.044875	10.7901	3.53681	12.0233
 280	1	2	0.461883	11.8785	2.5405	11.8416
 281	1	1	-0.007433	11.6654	1.98133	10.5889
 282	1	2	0.491356	10.559	2.52551	9.94809
 283	1	3	-0.019445	12.5012	0.975325	10.0268
 284	1	3	-0.186861	13.4125	1.35755	9.02581
 285	1	3	-0.068374	14.2863	0.423554	8.45534
 286	1	3	-0.009193	12.4526	-0.372582	10.4639
 287	1	3	0.220761	13.3402	-1.31683	9.88335
 288	1	3	-0.402098	14.2531	-0.909666	8.88608
 289	1	6	0.148422	13.4476	2.39089	8.68875
 290	1	6	0.146291	14.9888	0.737804	7.68467
 291	1	6	0.158981	11.1165	4.34829	14.0028
 292	1	6	0.141813	9.143	5.85821	13.8505
 293	1	6	0.143633	8.30289	4.32638	9.85279
 294	1	5	-0.474465	10.1165	2.24941	8.84694
 295	1	5	-0.469737	12.7558	2.27643	12.6458
 296	1	7	-0.37887	11.45	-0.824319	11.5378
 297	1	9	0.115886	10.9208	0.0006386	12.0242
 298	1	9	0.123845	11.9488	-1.37815	12.3438
 299	1	9	0.138418	10.678	-1.47293	11.1018
 300	1	6	0.21348	14.9386	-1.63012	8.44601
 301	1	1	0.486064	21.2442	7.31746	9.62516
 302	1	2	0.047133	22.0066	8.38095	10.1183
 303	1	3	0.001076	21.3286	8.80403	11.3693
 304	1	2	0.034038	20.1919	6.9795	10.4793
 305	1	3	0.050122	20.2658	7.95555	11.595
 306	1	5	-0.383076	23.0252	8.86903	9.65732
 307	1	5	-0.380811	19.3682	6.08731	10.3575
 308	1	3	-0.001248	21.608	9.88032	12.2191
 309	1	3	-0.036565	19.4533	8.09757	12.7212
 310	1	3	-0.208842	19.7269	9.1654	13.6006
 311	1	3	-0.065319	20.7703	10.1014	13.3462
 312	1	6	0.153391	22.4458	10.5228	11.9713
 313	1	6	0.155343	18.6297	7.40861	12.8973
 314	1	6	0.174191	19.0938	9.28259	14.4778
 315	1	7	-0.106637	20.9551	11.3106	14.3147
 316	1	7	0.445763	21.7272	10.7548	15.5699
 317	1	8	-0.144255	20.9428	9.9422	16.3137
 318	1	8	-0.136881	22.1897	11.7232	16.3926
 319	1	8	-0.144092	22.8021	10.0183	15.2069
 320	1	7	0.367264	21.7719	12.5008	13.6858
 321	1	8	-0.12104	23.0871	12.2268	13.5348
 322	1	8	-0.122614	21.6978	13.6164	14.4471
 323	1	8	-0.112321	21.2886	12.8426	12.47
 324	1	3	-0.021957	19.5474	11.8914	14.6515
 325	1	3	-0.054241	18.572	11.9735	13.6226
 326	1	3	-0.111709	17.295	12.4566	13.9276
 327	1	3	-0.087244	19.1988	12.3767	15.9456
 328	1	3	-0.118951	17.9109	12.8804	16.2262
 329	1	3	-0.044875	16.9694	12.8968	15.1927
 330	1	2	0.461883	15.5386	13.3072	15.1902
 331	1	1	-0.007433	15.0855	13.057	13.9022
 332	1	2	0.491356	16.0826	12.56	13.0743
 333	1	3	-0.019445	13.7359	13.2324	13.4915
 334	1	3	-0.186861	13.3329	14.5034	13.0474
 335	1	3	-0.068374	12.0184	14.726	12.6211
 336	1	3	-0.009193	12.814	12.1575	13.5178
 337	1	3	0.220761	11.487	12.379	13.0607
 338	1	3	-0.402098	11.1017	13.6666	12.6244
 339	1	6	0.148422	14.043	15.3265	13.0356
 340	1	6	0.146291	11.7146	15.7172	12.2876
 341	1	6	0.158981	17.6472	13.2361	17.2205
 342	1	6	0.141813	19.9163	12.3698	16.7583
 343	1	6	0.143633	18.7852	11.6412	12.6089
 344	1	5	-0.474465	15.9901	12.2078	11.9116
 345	1	5	-0.469737	14.9006	13.7138	16.1457
 346	1	7	-0.37887	13.2701	10.7815	14.0267
 347	1	9	0.115886	12.444	10.1678	14.4035
 348	1	9	0.123845	13.9779	10.8642	14.8603
 349	1	9	0.138418	13.762	10.2181	13.2206
 350	1	6	0.21348	10.0793	13.8475	12.2985
 351	1	1	0.486064	18.2246	9.32885	-4.93279
 352	1	2	0.047133	19.0247	10.3654	-4.43981
 353	1	3	0.001076	19.6876	9.81229	-3.2293
 354	1	2	0.034038	18.3038	8.18192	-4.133
 355	1	3	0.050122	19.2866	8.50621	-3.06822
 356	1	5	-0.383076	19.2916	11.4347	-4.9619
 357	1	5	-0.380811	17.7826	7.09276	-4.31125
 358	1	3	-0.001248	20.6706	10.3824	-2.41445
 359	1	3	-0.036565	19.89	7.67964	-2.11607
 360	1	3	-0.208842	20.9239	8.22069	-1.3194
 361	1	3	-0.065319	21.3211	9.58462	-1.43095
 362	1	6	0.153391	20.9584	11.4092	-2.61357
 363	1	6	0.155343	19.6041	6.63251	-2.04171
 364	1	6	0.174191	21.4347	7.54728	-0.636853
 365	1	7	-0.106637	22.5191	10.1611	-0.607829
 366	1	7	0.445763	22.1637	11.5738	0.000335798
 367	1	8	-0.144255	23.0409	11.9387	0.963292
 368	1	8	-0.136881	20.9379	11.5702	0.570318
 369	1	8	-0.144092	22.1577	12.5782	-0.902874
 370	1	7	0.367264	23.7268	10.3241	-1.61577
 371	1	8	-0.12104	24.1583	9.11934	-2.05444
 372	1	8	-0.122614	24.7797	10.9786	-1.07484
 373	1	8	-0.112321	23.4136	11.0179	-2.73208
 374	1	3	-0.021957	22.8816	9.24837	0.618249
 375	1	3	-0.054241	21.877	8.89945	1.56643
 376	1	3	-0.111709	22.2349	8.17864	2.71915
 377	1	3	-0.087244	24.2187	8.82504	0.892059
 378	1	3	-0.118951	24.5587	8.11946	2.06014
 379	1	3	-0.044875	23.543	7.82265	2.96585
 380	1	2	0.461883	23.6164	7.1441	4.28239
 381	1	1	-0.007433	22.316	7.11749	4.7625
 382	1	2	0.491356	21.4161	7.69774	3.87058
 383	1	3	-0.019445	21.9916	6.5092	6.01136
 384	1	3	-0.186861	22.1689	5.11763	6.11595
 385	1	3	-0.068374	22.0119	4.46319	7.34121
 386	1	3	-0.009193	21.6442	7.27079	7.15751
 387	1	3	0.220761	21.5276	6.60938	8.41497
 388	1	3	-0.402098	21.7032	5.20817	8.48427
 389	1	6	0.148422	22.4609	4.5395	5.24267
 390	1	6	0.146291	22.157	3.38598	7.40726
 391	1	6	0.158981	25.5871	7.82877	2.26754
 392	1	6	0.141813	25.0416	9.05077	0.226889
 393	1	6	0.143633	20.8393	9.19234	1.42227
 394	1	5	-0.474465	20.2042	7.77793	3.96883
 395	1	5	-0.469737	24.6225	6.69522	4.80431
 396	1	7	-0.37887	21.4403	8.78774	7.01851
 397	1	9	0.115886	20.8814	9.04935	6.11428
 398	1	9	0.123845	22.4067	9.30864	6.98096
 399	1	9	0.138418	20.8629	9.2264	7.83947
 400	1	6	0.21348	21.5914	4.69284	9.43677
 401	1	1	0.486064	9.1216	17.6532	-14.6782
 402	1	2	0.047133	9.88967	17.5035	-13.5168
 403	1	3	0.001076	9.42135	16.236	-12.8887
 404	1	2	0.034038	8.23979	16.5887	-14.8658
 405	1	3	0.050122	8.46123	15.6895	-13.7101
 406	1	5	-0.383076	10.8094	18.2002	-13.1218
 407	1	5	-0.380811	7.48348	16.3811	-15.8007
 408	1	3	-0.001248	9.82043	15.5995	-11.7023
 409	1	3	-0.036565	7.88628	14.455	-13.4252
 410	1	3	-0.208842	8.2849	13.7922	-12.2489
 411	1	3	-0.065319	9.236	14.3493	-11.3371
 412	1	6	0.153391	10.5871	16.0732	-11.0976
 413	1	6	0.155343	7.15044	14.0231	-14.1006
 414	1	6	0.174191	7.80637	12.8363	-12.0762
 415	1	7	-0.106637	9.62032	13.6512	-9.97377
 416	1	7	0.445763	8.72117	12.3727	-9.70302
 417	1	8	-0.144255	8.96454	11.4055	-10.6172
 418	1	8	-0.136881	7.39922	12.6592	-9.72626
 419	1	8	-0.144092	8.92433	11.771	-8.51179
 420	1	7	0.367264	9.36559	14.6969	-8.81521
 421	1	8	-0.12104	8.17819	15.3251	-8.96888
 422	1	8	-0.122614	10.3182	15.6544	-8.78337
 423	1	8	-0.112321	9.36165	14.168	-7.57252
 424	1	3	-0.021957	11.1191	13.2049	-9.9611
 425	1	3	-0.054241	11.679	12.5864	-8.80775
 426	1	3	-0.111709	13.0063	12.1412	-8.83507
 427	1	3	-0.087244	11.9613	13.349	-11.1031
 428	1	3	-0.118951	13.3152	12.9504	-11.0868
 429	1	3	-0.044875	13.8151	12.3512	-9.92682
 430	1	2	0.461883	15.143	11.7423	-9.64667
 431	1	1	-0.007433	15.0294	11.1287	-8.39949
 432	1	2	0.491356	13.765	11.3251	-7.84764
 433	1	3	-0.019445	16.0078	10.2125	-7.89064
 434	1	3	-0.186861	16.3693	9.15539	-8.74875
 435	1	3	-0.068374	17.3238	8.20895	-8.37481
 436	1	3	-0.009193	16.6139	10.3136	-6.60294
 437	1	3	0.220761	17.5764	9.33265	-6.21383
 438	1	3	-0.402098	17.9217	8.30064	-7.11672
 439	1	6	0.148422	15.9145	9.07097	-9.73312
 440	1	6	0.146291	17.5931	7.4052	-9.05844
 441	1	6	0.158981	13.9479	13.0634	-11.9652
 442	1	6	0.141813	11.5815	13.7572	-12.0328
 443	1	6	0.143633	11.1045	12.4121	-7.90392
 444	1	5	-0.474465	13.2951	10.8176	-6.84388
 445	1	5	-0.469737	16.0822	11.7049	-10.4237
 446	1	7	-0.37887	16.2717	11.4751	-5.65699
 447	1	9	0.115886	16.2418	11.1566	-4.60813
 448	1	9	0.123845	15.3005	11.9349	-5.84848
 449	1	9	0.138418	17.0151	12.2785	-5.74401
 450	1	6	0.21348	18.6501	7.54506	-6.82803
 451	1	1	0.486064	15.6868	29.3693	-16.4737
 452	1	2	0.047133	14.6116	29.744	-17.282
 453	1	3	0.001076	13.407	29.1835	-16.6196
 454	1	2	0.034038	15.2817	28.6359	-15.3554
 455	1	3	0.050122	13.8046	28.5391	-15.468
 456	1	5	-0.383076	14.6311	30.3548	-18.3378
 457	1	5	-0.380811	15.972	28.1175	-14.4931
 458	1	3	-0.001248	12.0692	29.2058	-17.029
 459	1	3	-0.036565	12.8777	27.9093	-14.6354
 460	1	3	-0.208842	11.5204	27.9355	-15.0189
 461	1	3	-0.065319	11.092	28.5493	-16.2306
 462	1	6	0.153391	11.8308	29.7188	-17.954
 463	1	6	0.155343	13.2051	27.4108	-13.7256
 464	1	6	0.174191	10.794	27.45	-14.3705
 465	1	7	-0.106637	9.5767	28.5119	-16.6041
 466	1	7	0.445763	8.88142	29.5988	-15.6986
 467	1	8	-0.144255	8.7982	29.1904	-14.4122
 468	1	8	-0.136881	7.62817	29.917	-16.0931
 469	1	8	-0.144092	9.57838	30.7583	-15.6891
 470	1	7	0.367264	9.29946	28.8414	-18.1188
 471	1	8	-0.12104	10.0653	28.0813	-18.934
 472	1	8	-0.122614	9.52835	30.1364	-18.433
 473	1	8	-0.112321	8.01732	28.5863	-18.4661
 474	1	3	-0.021957	9.02293	27.0715	-16.3711
 475	1	3	-0.054241	9.85317	25.9481	-16.6282
 476	1	3	-0.111709	9.34112	24.659	-16.4317
 477	1	3	-0.087244	7.67417	26.8279	-15.9785
 478	1	3	-0.118951	7.16976	25.5199	-15.8187
 479	1	3	-0.044875	8.03544	24.4464	-16.047
 480	1	2	0.461883	7.79507	22.9775	-15.9904
 481	1	1	-0.007433	9.0092	22.3865	-16.3259
 482	1	2	0.491356	9.9879	23.3335	-16.6102
 483	1	3	-0.019445	9.21619	20.9817	-16.482
 484	1	3	-0.186861	9.57989	20.5312	-17.7639
 485	1	3	-0.068374	9.80504	19.176	-18.0133
 486	1	3	-0.009193	9.07553	20.0541	-15.4129
 487	1	3	0.220761	9.30474	18.6702	-15.6687
 488	1	3	-0.402098	9.66805	18.2547	-16.9708
 489	1	6	0.148422	9.69053	21.2412	-18.5804
 490	1	6	0.146291	10.0733	18.8428	-19.0148
 491	1	6	0.158981	6.13356	25.3444	-15.5354
 492	1	6	0.141813	6.98468	27.6475	-15.8123
 493	1	6	0.143633	10.8783	26.064	-16.9733
 494	1	5	-0.474465	11.1348	23.1445	-16.9761
 495	1	5	-0.469737	6.72921	22.4344	-15.7542
 496	1	7	-0.37887	8.64343	20.5639	-14.0294
 497	1	9	0.115886	9.12189	21.5205	-13.7875
 498	1	9	0.123845	8.90077	19.8956	-13.2037
 499	1	9	0.138418	7.55645	20.7157	-13.992
 500	1	6	0.21348	9.81235	17.1974	-17.184
 501	1	1	0.486064	25.1315	33.6505	-5.64983
 502	1	2	0.047133	26.0276	33.2496	-6.63751
 503	1	3	0.001076	25.182	32.8934	-7.80279
 504	1	2	0.034038	23.8013	33.6033	-6.0673
 505	1	3	0.050122	23.8606	33.095	-7.46162
 506	1	5	-0.383076	27.244	33.1865	-6.57653
 507	1	5	-0.380811	22.7948	33.8957	-5.44095
 508	1	3	-0.001248	25.5526	32.3747	-9.04685
 509	1	3	-0.036565	22.8315	32.7694	-8.34576
 510	1	3	-0.208842	23.1801	32.2149	-9.59457
 511	1	3	-0.065319	24.5393	32.0276	-9.97933
 512	1	6	0.153391	26.6066	32.2065	-9.24119
 513	1	6	0.155343	21.7946	32.9035	-8.05319
 514	1	6	0.174191	22.3717	31.9045	-10.2523
 515	1	7	-0.106637	24.8884	31.3373	-11.3301
 516	1	7	0.445763	25.0956	29.81	-10.9983
 517	1	8	-0.144255	25.5263	29.0983	-12.0644
 518	1	8	-0.136881	23.9509	29.2433	-10.5524
 519	1	8	-0.144092	26.0026	29.6109	-10.0149
 520	1	7	0.367264	26.2073	31.908	-11.9847
 521	1	8	-0.12104	27.3463	31.4792	-11.3981
 522	1	8	-0.122614	26.2445	33.2586	-11.9396
 523	1	8	-0.112321	26.3026	31.56	-13.2882
 524	1	3	-0.021957	23.7405	31.5961	-12.3575
 525	1	3	-0.054241	23.071	30.5503	-13.0479
 526	1	3	-0.111709	22.0465	30.8728	-13.9426
 527	1	3	-0.087244	23.3391	32.9364	-12.6302
 528	1	3	-0.118951	22.3114	33.2396	-13.5488
 529	1	3	-0.044875	21.6757	32.1756	-14.1957
 530	1	2	0.461883	20.5653	32.1583	-15.1893
 531	1	1	-0.007433	20.3269	30.8151	-15.4519
 532	1	2	0.491356	21.184	29.9783	-14.7527
 533	1	3	-0.019445	19.3325	30.3215	-16.3403
 534	1	3	-0.186861	19.7561	29.8221	-17.5839
 535	1	3	-0.068374	18.844	29.2324	-18.4636
 536	1	3	-0.009193	17.9705	30.237	-15.958
 537	1	3	0.220761	17.0522	29.5915	-16.8321
 538	1	3	-0.402098	17.5029	29.1092	-18.0828
 539	1	6	0.148422	20.8051	29.876	-17.8645
 540	1	6	0.146291	19.1829	28.8494	-19.4249
 541	1	6	0.158981	22.0132	34.2676	-13.7465
 542	1	6	0.141813	23.8212	33.7608	-12.1119
 543	1	6	0.143633	23.3084	29.5005	-12.9133
 544	1	5	-0.474465	21.2386	28.7613	-14.7789
 545	1	5	-0.469737	19.9856	33.129	-15.6451
 546	1	7	-0.37887	17.5359	30.8172	-14.6035
 547	1	9	0.115886	17.9729	31.8069	-14.4269
 548	1	9	0.123845	17.8446	30.1565	-13.7823
 549	1	9	0.138418	16.4536	30.9612	-14.5175
 550	1	6	0.21348	16.8026	28.6338	-18.767
 551	1	1	0.486064	20.743	41.1208	-4.65597
 552	1	2	0.047133	21.0024	41.7034	-3.41542
 553	1	3	0.001076	22.2961	42.4143	-3.58752
 554	1	2	0.034038	21.6619	41.4966	-5.63377
 555	1	3	0.050122	22.6884	42.2775	-4.90182
 556	1	5	-0.383076	20.4114	41.5328	-2.36243
 557	1	5	-0.380811	21.7355	41.1128	-6.78963
 558	1	3	-0.001248	23.168	42.892	-2.60127
 559	1	3	-0.036565	23.973	42.6282	-5.30801
 560	1	3	-0.208842	24.8875	43.0415	-4.31957
 561	1	3	-0.065319	24.531	43.1453	-2.94036
 562	1	6	0.153391	22.7993	42.8865	-1.58373
 563	1	6	0.155343	24.2873	42.4591	-6.33586
 564	1	6	0.174191	25.9108	43.1714	-4.64727
 565	1	7	-0.106637	25.6688	43.1885	-1.85218
 566	1	7	0.445763	25.1281	43.5384	-0.409947
 567	1	8	-0.144255	24.3283	42.5666	0.0831777
 568	1	8	-0.136881	24.4298	44.6955	-0.409395
 569	1	8	-0.144092	26.0987	43.6496	0.524107
 570	1	7	0.367264	26.751	44.2688	-2.275
 571	1	8	-0.12104	27.5709	44.6803	-1.28402
 572	1	8	-0.122614	27.5911	43.8101	-3.22963
 573	1	8	-0.112321	26.1622	45.3857	-2.75834
 574	1	3	-0.021957	26.2715	41.7528	-1.77542
 575	1	3	-0.054241	25.5116	40.6447	-2.23199
 576	1	3	-0.111709	26.0534	39.3674	-2.17417
 577	1	3	-0.087244	27.5535	41.4856	-1.21294
 578	1	3	-0.118951	28.0813	40.1718	-1.15445
 579	1	3	-0.044875	27.3047	39.1205	-1.66282
 580	1	2	0.461883	27.5594	37.6534	-1.78969
 581	1	1	-0.007433	26.4235	37.1306	-2.40562
 582	1	2	0.491356	25.4573	38.0982	-2.63357
 583	1	3	-0.019445	26.2204	35.7653	-2.75435
 584	1	3	-0.186861	26.1824	34.8111	-1.72174
 585	1	3	-0.068374	25.8335	33.4813	-1.98756
 586	1	3	-0.009193	25.9353	35.3791	-4.08958
 587	1	3	0.220761	25.5313	34.0456	-4.34398
 588	1	3	-0.402098	25.4884	33.1048	-3.29219
 589	1	6	0.148422	26.4053	35.1074	-0.699223
 590	1	6	0.146291	25.8	32.7553	-1.17657
 591	1	6	0.158981	29.0648	39.9768	-0.731403
 592	1	6	0.141813	28.154	42.297	-0.81255
 593	1	6	0.143633	24.5125	40.7297	-2.64019
 594	1	5	-0.474465	24.3546	37.9746	-3.14037
 595	1	5	-0.469737	28.5595	37.0587	-1.42686
 596	1	7	-0.37887	26.0306	36.3909	-5.2433
 597	1	9	0.115886	26.4313	35.9419	-6.16027
 598	1	9	0.123845	26.7075	37.222	-5.01375
 599	1	9	0.138418	25.045	36.8177	-5.47595
 600	1	6	0.21348	25.1811	32.0802	-3.48952
 601	1	1	0.486064	14.4041	26.7267	-5.38385
 602	1	2	0.047133	15.6565	26.6337	-5.98604
 603	1	3	0.001076	16.1735	28.0227	-6.01863
 604	1	2	0.034038	14.0657	28.0307	-5.02809
 605	1	3	0.050122	15.2253	28.8524	-5.45592
 606	1	5	-0.383076	16.2243	25.6411	-6.40864
 607	1	5	-0.380811	13.049	28.4311	-4.48535
 608	1	3	-0.001248	17.3784	28.514	-6.5312
 609	1	3	-0.036565	15.42	30.2319	-5.39338
 610	1	3	-0.208842	16.6192	30.7524	-5.92208
 611	1	3	-0.065319	17.6297	29.9098	-6.47427
 612	1	6	0.153391	18.0743	27.8129	-6.98024
 613	1	6	0.155343	14.6538	30.8767	-4.96715
 614	1	6	0.174191	16.7452	31.8322	-5.90472
 615	1	7	-0.106637	18.9247	30.5291	-7.0778
 616	1	7	0.445763	20.1962	29.6056	-6.89651
 617	1	8	-0.144255	20.271	29.0814	-5.65317
 618	1	8	-0.136881	21.3397	30.2986	-7.0939
 619	1	8	-0.144092	20.2439	28.5543	-7.74364
 620	1	7	0.367264	18.6478	30.7209	-8.61699
 621	1	8	-0.12104	19.7237	31.2082	-9.27674
 622	1	8	-0.122614	17.6108	31.5602	-8.8377
 623	1	8	-0.112321	18.3015	29.5666	-9.23052
 624	1	3	-0.021957	19.2187	31.8658	-6.32471
 625	1	3	-0.054241	19.2449	33.1359	-6.9651
 626	1	3	-0.111709	19.382	34.2892	-6.18237
 627	1	3	-0.087244	19.3704	31.8306	-4.90822
 628	1	3	-0.118951	19.52	33.0023	-4.14168
 629	1	3	-0.044875	19.5101	34.2266	-4.81132
 630	1	2	0.461883	19.4994	35.6112	-4.27226
 631	1	1	-0.007433	19.3187	36.4332	-5.37533
 632	1	2	0.491356	19.2864	35.7223	-6.56866
 633	1	3	-0.019445	19.0461	37.8253	-5.26249
 634	1	3	-0.186861	17.7039	38.2425	-5.30183
 635	1	3	-0.068374	17.3673	39.5874	-5.10891
 636	1	3	-0.009193	20.0797	38.7646	-5.04179
 637	1	3	0.220761	19.7377	40.1354	-4.86948
 638	1	3	-0.402098	18.3812	40.5298	-4.8918
 639	1	6	0.148422	16.913	37.5136	-5.46015
 640	1	6	0.146291	16.322	39.8928	-5.11766
 641	1	6	0.158981	19.5947	32.9667	-3.05678
 642	1	6	0.141813	19.3135	30.8857	-4.37678
 643	1	6	0.143633	19.1107	33.264	-8.03371
 644	1	5	-0.474465	19.0873	36.1451	-7.6946
 645	1	5	-0.469737	19.4926	35.9261	-3.09446
 646	1	7	-0.37887	21.5259	38.2493	-4.96599
 647	1	9	0.115886	21.7795	37.6607	-5.85685
 648	1	9	0.123845	21.6636	37.6001	-4.09003
 649	1	9	0.138418	22.2886	39.0297	-4.88774
 650	1	6	0.21348	18.1142	41.5709	-4.7257
 651	1	1	0.486064	4.98837	18.1909	3.75243
 652	1	2	0.047133	5.84411	18.925	4.57241
 653	1	3	0.001076	6.81542	19.5615	3.64487