pySIMM System Object

802 atoms
881 bonds
1536 angles
2364 dihedrals
256 impropers

9 atom types
11 bond types
18 angle types
7 dihedral types
4 improper types

-148.938239 148.938239 xlo xhi
-148.938239 148.938239 ylo yhi
-148.938239 148.938239 zlo zhi

Masses

   1	14.01	# n
   2	12.01	# c
   3	12.01	# ca
   4	1.008	# hn
   5	16.0	# o
   6	1.008	# ha
   7	12.01	# c3
   8	19.0	# f
   9	1.008	# hc

Pair Coeffs

   1	0.17	3.249998523775958	# n
   2	0.086	3.3996695084235347	# c
   3	0.086	3.3996695084235347	# ca
   4	0.0157	1.069078461768407	# hn
   5	0.21	2.959921901149463	# o
   6	0.015	2.59964245953351	# ha
   7	0.1094	3.3996695084235347	# c3
   8	0.061	3.1181455134911875	# f
   9	0.0157	2.649532787749369	# hc

Bond Coeffs

   1	427.6	1.3789	# c,n
   2	461.1	1.3984	# ca,ca
   3	345.9	1.4906	# c,ca
   4	345.8	1.086	# ca,ha
   5	637.7	1.2183	# c,o
   6	321.0	1.5156	# c3,ca
   7	300.9	1.5375	# c3,c3
   8	356.9	1.3497	# c3,f
   9	384.2	1.4121	# ca,n
  10	330.6	1.0969	# c3,hc
  11	403.2	1.0129	# hn,n

Angle Coeffs

   1	48.18	119.88	# ca,ca,ha
   2	63.15	112.07	# c3,c3,ca
   3	70.89	107.36	# f,c3,f
   4	67.87	120.19	# ca,ca,n
   5	68.72	122.6	# ca,c,o
   6	63.56	112.24	# ca,c3,ca
   7	63.82	123.71	# c,n,ca
   8	74.22	123.05	# n,c,o
   9	48.33	117.55	# c,n,hn
  10	67.68	115.25	# ca,c,n
  11	64.28	120.33	# c,ca,ca
  12	66.11	109.24	# c3,c3,f
  13	46.8	110.47	# ca,c3,hc
  14	39.4	107.58	# hc,c3,hc
  15	66.62	120.02	# ca,ca,ca
  16	63.53	120.77	# c3,ca,ca
  17	62.86	111.51	# c3,c3,c3
  18	63.74	127.08	# c,n,c

Dihedral Coeffs

   1	1	2.5	2	180	# X,c,n,X
   2	1	0.45	2	180	# X,ca,n,X
   3	2	2.5	2	180	2.0	1	0	# hn,n,c,o
   4	1	3.625	2	180	# X,ca,ca,X
   5	1	1.0	2	180	# X,c,ca,X
   6	1	0.15555555555555556	3	0	# X,c3,c3,X
   7	1	0.0	2	0	# X,c3,ca,X

Improper Coeffs

   1	1.1	-1	2	# ca,ca,ca,c3
   2	10.5	-1	2	# c,X,X,o
   3	1.1	-1	2	# ca,X,X,ha
   4	1.1	-1	2	# n,X,X,hn

Atoms

   1	1	1	0.486064	-50.722	-21.8158	15.215
   2	1	2	0.047133	-52.0497	-21.4273	15.0147
   3	1	3	0.001076	-52.8671	-22.5598	15.5361
   4	1	2	0.034038	-50.6113	-23.0149	15.9135
   5	1	3	0.050122	-52.0012	-23.5051	16.047
   6	1	5	-0.383076	-52.4645	-20.4931	14.3499
   7	1	5	-0.380811	-49.6021	-23.6576	16.1524
   8	1	3	-0.001248	-54.2413	-22.8195	15.4057
   9	1	3	-0.036565	-52.441	-24.7805	16.3939
  10	1	3	-0.208842	-53.8082	-25.0712	16.2406
  11	1	3	-0.065319	-54.7447	-24.0941	15.7921
  12	1	6	0.153391	-54.8739	-22.0608	14.9554
  13	1	6	0.155343	-51.7295	-25.5404	16.7099
  14	1	6	0.174191	-54.1215	-26.0899	16.4533
  15	1	7	-0.106637	-56.2493	-24.4809	15.6309
  16	1	7	0.445763	-57.2263	-23.2967	16.0002
  17	1	8	-0.144255	-56.8702	-22.6918	17.1547
  18	1	8	-0.136881	-58.4939	-23.7376	16.1658
  19	1	8	-0.144092	-57.2825	-22.3164	15.0722
  20	1	7	0.367264	-56.4603	-24.8644	14.1165
  21	1	8	-0.12104	-56.0951	-23.8735	13.2723
  22	1	8	-0.122614	-57.7488	-25.1607	13.8316
  23	1	8	-0.112321	-55.7023	-25.9274	13.7633
  24	1	3	-0.021957	-56.5574	-25.66	16.6148
  25	1	3	-0.054241	-57.0103	-26.9399	16.1865
  26	1	3	-0.111709	-57.0542	-27.9924	17.111
  27	1	3	-0.087244	-56.2454	-25.4956	17.9963
  28	1	3	-0.118951	-56.3088	-26.5649	18.912
  29	1	3	-0.044875	-56.7005	-27.8163	18.4313
  30	1	2	0.461883	-56.7325	-29.1406	19.108
  31	1	1	-0.007433	-57.1009	-30.0508	18.1265
  32	1	2	0.491356	-57.3303	-29.4394	16.8993
  33	1	3	-0.019445	-57.1443	-31.4583	18.3389
  34	1	3	-0.186861	-55.9369	-32.1471	18.5691
  35	1	3	-0.068374	-55.9311	-33.5312	18.7982
  36	1	3	-0.009193	-58.3667	-32.1685	18.3409
  37	1	3	0.220761	-58.351	-33.56	18.5695
  38	1	3	-0.402098	-57.1427	-34.2372	18.7975
  39	1	6	0.148422	-54.9951	-31.6051	18.5804
  40	1	6	0.146291	-54.9913	-34.0502	18.9798
  41	1	6	0.158981	-56.01	-26.4388	19.9509
  42	1	6	0.141813	-55.8662	-24.5439	18.3573
  43	1	6	0.143633	-57.266	-27.1627	15.156
  44	1	5	-0.474465	-57.6055	-29.9659	15.8351
  45	1	5	-0.469737	-56.3974	-29.3678	20.2579
  46	1	7	-0.37887	-59.6997	-31.4553	18.1199
  47	1	9	0.115886	-59.7446	-30.9977	17.1236
  48	1	9	0.123845	-59.8592	-30.6703	18.8693
  49	1	9	0.138418	-60.5456	-32.1505	18.1898
  50	1	6	0.21348	-57.1537	-35.3082	18.9778
  51	1	1	0.486064	-36.4077	-15.0251	11.5033
  52	1	2	0.047133	-37.2591	-14.3752	12.3966
  53	1	3	0.001076	-38.6257	-14.8563	12.0617
  54	1	2	0.034038	-37.097	-15.8593	10.621
  55	1	3	0.050122	-38.5298	-15.7406	11.009
  56	1	5	-0.383076	-36.9621	-13.6316	13.3164
  57	1	5	-0.380811	-36.6389	-16.589	9.75747
  58	1	3	-0.001248	-39.8541	-14.5484	12.6591
  59	1	3	-0.036565	-39.6649	-16.3875	10.5106
  60	1	3	-0.208842	-40.9126	-16.1048	11.1122
  61	1	3	-0.065319	-41.0428	-15.1713	12.1807
  62	1	6	0.153391	-39.845	-13.83	13.4707
  63	1	6	0.155343	-39.5782	-17.0886	9.68292
  64	1	6	0.174191	-41.7929	-16.612	10.7242
  65	1	7	-0.106637	-42.4719	-14.8222	12.7238
  66	1	7	0.445763	-42.445	-13.8343	13.951
  67	1	8	-0.144255	-43.6732	-13.6343	14.4809
  68	1	8	-0.136881	-41.9552	-12.6162	13.6283
  69	1	8	-0.144092	-41.6955	-14.3259	14.9643
  70	1	7	0.367264	-43.2451	-14.1283	11.5307
  71	1	8	-0.12104	-42.4586	-13.2368	10.8856
  72	1	8	-0.122614	-44.3491	-13.4461	11.9079
  73	1	8	-0.112321	-43.6543	-15.023	10.6028
  74	1	3	-0.021957	-43.1845	-16.1052	13.2468
  75	1	3	-0.054241	-44.5988	-16.2494	13.2053
  76	1	3	-0.111709	-45.1902	-17.3803	13.7846
  77	1	3	-0.087244	-42.4274	-17.1245	13.8901
  78	1	3	-0.118951	-43.042	-18.2623	14.4565
  79	1	3	-0.044875	-44.4366	-18.3608	14.3929
  80	1	2	0.461883	-45.3466	-19.4738	14.7832
  81	1	1	-0.007433	-46.6026	-19.1076	14.3132
  82	1	2	0.491356	-46.6092	-17.8303	13.7681
  83	1	3	-0.019445	-47.607	-20.0673	14.0069
  84	1	3	-0.186861	-47.4109	-20.7819	12.8119
  85	1	3	-0.068374	-48.3125	-21.7646	12.4034
  86	1	3	-0.009193	-48.7343	-20.3337	14.8262
  87	1	3	0.220761	-49.6379	-21.3529	14.4169
  88	1	3	-0.402098	-49.4184	-22.0483	13.2066
  89	1	6	0.148422	-46.5402	-20.578	12.1936
  90	1	6	0.146291	-48.1399	-22.3169	11.4815
  91	1	6	0.158981	-42.453	-19.0514	14.9202
  92	1	6	0.141813	-41.3467	-17.0354	13.9626
  93	1	6	0.143633	-45.2459	-15.5135	12.7393
  94	1	5	-0.474465	-47.5292	-17.2661	13.203
  95	1	5	-0.469737	-45.0028	-20.554	15.2314
  96	1	7	-0.37887	-48.9356	-19.546	16.1243
  97	1	9	0.115886	-49.9467	-19.6481	16.5364
  98	1	9	0.123845	-48.7823	-18.4713	15.9579
  99	1	9	0.138418	-48.2249	-19.8709	16.8958
 100	1	6	0.21348	-50.0994	-22.8405	12.9038
 101	1	1	0.486064	-22.255	-7.86636	6.58933
 102	1	2	0.047133	-23.4952	-7.26402	6.34761
 103	1	3	0.001076	-24.5049	-8.1204	7.0372
 104	1	2	0.034038	-22.387	-9.0241	7.36701
 105	1	3	0.050122	-23.846	-9.1746	7.62914
 106	1	5	-0.383076	-23.7423	-6.31347	5.62426
 107	1	5	-0.380811	-21.5214	-9.82558	7.6794
 108	1	3	-0.001248	-25.9051	-8.03356	7.05213
 109	1	3	-0.036565	-24.5561	-10.2099	8.25066
 110	1	3	-0.208842	-25.97	-10.1474	8.26395
 111	1	3	-0.065319	-26.675	-9.05835	7.67909
 112	1	6	0.153391	-26.3655	-7.20549	6.52444
 113	1	6	0.155343	-24.0236	-11.06	8.6722
 114	1	6	0.174191	-26.5167	-10.9806	8.70006
 115	1	7	-0.106637	-28.2388	-9.07249	7.5853
 116	1	7	0.445763	-28.844	-7.62256	7.75317
 117	1	8	-0.144255	-28.2534	-6.95715	8.77156
 118	1	8	-0.136881	-30.1678	-7.65961	8.03033
 119	1	8	-0.144092	-28.7153	-6.83902	6.66026
 120	1	7	0.367264	-28.5832	-9.60861	6.14325
 121	1	8	-0.12104	-27.9181	-8.95234	5.16603
 122	1	8	-0.122614	-29.8966	-9.4953	5.8404
 123	1	8	-0.112321	-28.2328	-10.9083	6.011
 124	1	3	-0.021957	-28.904	-9.93574	8.71829
 125	1	3	-0.054241	-29.9154	-10.9096	8.46352
 126	1	3	-0.111709	-30.5884	-11.5114	9.53703
 127	1	3	-0.087244	-28.6023	-9.65009	10.0808
 128	1	3	-0.118951	-29.2906	-10.27	11.1493
 129	1	3	-0.044875	-30.2977	-11.1942	10.8447
 130	1	2	0.461883	-31.1921	-11.9988	11.7291
 131	1	1	-0.007433	-31.9749	-12.774	10.8775
 132	1	2	0.491356	-31.6742	-12.533	9.54104
 133	1	3	-0.019445	-32.8257	-13.836	11.3214
 134	1	3	-0.186861	-32.1942	-14.9339	11.9356
 135	1	3	-0.068374	-32.9274	-16.0441	12.3668
 136	1	3	-0.009193	-34.2391	-13.8431	11.1508
 137	1	3	0.220761	-34.9831	-14.9708	11.5987
 138	1	3	-0.402098	-34.3151	-16.0638	12.1925
 139	1	6	0.148422	-31.1166	-14.9284	12.0803
 140	1	6	0.146291	-32.418	-16.8846	12.8357
 141	1	6	0.158981	-29.0632	-10.0254	12.1852
 142	1	6	0.141813	-27.8414	-8.91118	10.3186
 143	1	6	0.143633	-30.2218	-11.1978	7.46437
 144	1	5	-0.474465	-32.1488	-13.076	8.55887
 145	1	5	-0.469737	-31.1655	-12.019	12.9477
 146	1	7	-0.37887	-34.9701	-12.6486	10.5249
 147	1	9	0.115886	-35.7855	-12.9699	9.86426
 148	1	9	0.123845	-34.319	-12.0226	9.90637
 149	1	9	0.138418	-35.4009	-12.0048	11.3042
 150	1	6	0.21348	-34.8799	-16.9309	12.5272
 151	1	1	0.486064	-10.7287	4.33019	5.29299
 152	1	2	0.047133	-10.6163	3.0247	5.80129
 153	1	3	0.001076	-11.8488	2.30764	5.38835
 154	1	2	0.034038	-11.9749	4.52128	4.67383
 155	1	3	0.050122	-12.6826	3.21019	4.77301
 156	1	5	-0.383076	-9.68498	2.51318	6.40227
 157	1	5	-0.380811	-12.36	5.47198	4.01421
 158	1	3	-0.001248	-12.1201	0.931133	5.38861
 159	1	3	-0.036565	-13.9151	2.79785	4.25516
 160	1	3	-0.208842	-14.2411	1.42128	4.30655
 161	1	3	-0.065319	-13.3203	0.447363	4.78799
 162	1	6	0.153391	-11.3431	0.278366	5.769
 163	1	6	0.155343	-14.5719	3.51743	3.77108
 164	1	6	0.174191	-15.1817	1.10386	3.86332
 165	1	7	-0.106637	-13.5432	-1.06456	4.41845
 166	1	7	0.445763	-13.4958	-1.13611	2.83419
 167	1	8	-0.144255	-14.5979	-0.608205	2.25572
 168	1	8	-0.136881	-13.3842	-2.39256	2.34715
 169	1	8	-0.144092	-12.4472	-0.44133	2.33483
 170	1	7	0.367264	-12.3898	-2.00749	4.95638
 171	1	8	-0.12104	-11.1912	-1.765	4.37833
 172	1	8	-0.122614	-12.664	-3.31541	4.74649
 173	1	8	-0.112321	-12.2088	-1.89582	6.29178
 174	1	3	-0.021957	-14.8692	-1.64129	5.02423
 175	1	3	-0.054241	-15.762	-2.46905	4.28168
 176	1	3	-0.111709	-16.7559	-3.20006	4.9559
 177	1	3	-0.087244	-15.0904	-1.5364	6.42581
 178	1	3	-0.118951	-16.0642	-2.31981	7.08969
 179	1	3	-0.044875	-16.8675	-3.17811	6.32584
 180	1	2	0.461883	-17.8314	-4.24892	6.73519
 181	1	1	-0.007433	-18.2896	-4.84138	5.55374
 182	1	2	0.491356	-17.7065	-4.22421	4.44045
 183	1	3	-0.019445	-19.0874	-6.04702	5.45284
 184	1	3	-0.186861	-18.5905	-7.05086	4.59397
 185	1	3	-0.068374	-19.2882	-8.23854	4.36608
 186	1	3	-0.009193	-20.3256	-6.28174	6.13551
 187	1	3	0.220761	-21.0285	-7.51219	5.92295
 188	1	3	-0.402098	-20.4989	-8.46372	5.02334
 189	1	6	0.148422	-17.648	-6.90869	4.07043
 190	1	6	0.146291	-18.8834	-8.98418	3.68307
 191	1	6	0.158981	-16.1512	-2.30544	8.17422
 192	1	6	0.141813	-14.4314	-0.914425	7.02619
 193	1	6	0.143633	-15.6573	-2.63234	3.21426
 194	1	5	-0.474465	-17.8579	-4.49331	3.26086
 195	1	5	-0.469737	-18.0301	-4.60609	7.88358
 196	1	7	-0.37887	-20.8786	-5.2378	7.11223
 197	1	9	0.115886	-21.9705	-5.23748	7.17914
 198	1	9	0.123845	-20.6042	-4.21831	6.81939
 199	1	9	0.138418	-20.4862	-5.40921	8.12403
 200	1	6	0.21348	-21.0215	-9.40344	4.85416
 201	1	1	0.486064	-0.955768	16.7764	1.34139
 202	1	2	0.047133	-1.13345	15.4109	1.1256
 203	1	3	0.001076	-2.49846	15.1127	1.61908
 204	1	2	0.034038	-2.05242	17.3646	1.97471
 205	1	3	0.050122	-3.04532	16.2664	2.13486
 206	1	5	-0.383076	-0.359096	14.6115	0.627154
 207	1	5	-0.380811	-2.19987	18.5303	2.30118
 208	1	3	-0.001248	-3.22432	13.9238	1.53174
 209	1	3	-0.036565	-4.35022	16.2763	2.63852
 210	1	3	-0.208842	-5.10251	15.0801	2.56556
 211	1	3	-0.065319	-4.57183	13.8912	1.9886
 212	1	6	0.153391	-2.72978	13.0825	1.06143
 213	1	6	0.155343	-4.77796	17.1949	3.03512
 214	1	6	0.174191	-6.13245	15.0964	2.91634
 215	1	7	-0.106637	-5.51733	12.6718	1.72577
 216	1	7	0.445763	-6.50448	13.1326	0.58262
 217	1	8	-0.144255	-7.1437	12.1186	-0.0403924
 218	1	8	-0.136881	-5.85505	13.8131	-0.390836
 219	1	8	-0.144092	-7.46122	13.9594	1.06034
 220	1	7	0.367264	-4.7316	11.3913	1.23617
 221	1	8	-0.12104	-4.18336	11.5449	0.00986149
 222	1	8	-0.122614	-5.51137	10.2898	1.15694
 223	1	8	-0.112321	-3.73922	11.0701	2.0983
 224	1	3	-0.021957	-6.26072	12.222	3.02263
 225	1	3	-0.054241	-7.44145	11.4343	2.94152
 226	1	3	-0.111709	-7.87023	10.713	4.06311
 227	1	3	-0.087244	-5.62254	12.3338	4.28914
 228	1	3	-0.118951	-6.08409	11.6166	5.41609
 229	1	3	-0.044875	-7.19522	10.7758	5.26293
 230	1	2	0.461883	-7.61805	9.60911	6.0937
 231	1	1	-0.007433	-8.44654	8.85056	5.26824
 232	1	2	0.491356	-8.75567	9.51753	4.08873
 233	1	3	-0.019445	-8.47319	7.42115	5.30594
 234	1	3	-0.186861	-7.25032	6.79873	5.00365
 235	1	3	-0.068374	-7.17823	5.42424	4.79695
 236	1	3	-0.009193	-9.65451	6.64236	5.45776
 237	1	3	0.220761	-9.59615	5.22905	5.22233
 238	1	3	-0.402098	-8.34407	4.65967	4.87286
 239	1	6	0.148422	-6.34624	7.39255	4.88934
 240	1	6	0.146291	-6.22521	4.96061	4.54659
 241	1	6	0.158981	-5.513	11.6063	6.34246
 242	1	6	0.141813	-4.68908	12.8824	4.38064
 243	1	6	0.143633	-7.92661	11.2222	1.99502
 244	1	5	-0.474465	-9.35261	9.07139	3.12469
 245	1	5	-0.469737	-7.07344	9.24883	7.12314
 246	1	7	-0.37887	-10.9415	7.3643	5.86383
 247	1	9	0.115886	-11.6715	6.69959	6.33871
 248	1	9	0.123845	-11.4227	7.81635	4.98499
 249	1	9	0.138418	-10.743	8.16756	6.58415
 250	1	6	0.21348	-8.26102	3.59332	4.67352
 251	1	1	0.486064	8.37343	14.0086	-0.371094
 252	1	2	0.047133	8.3996	13.978	-1.76416
 253	1	3	0.001076	8.5291	15.3967	-2.17995
 254	1	2	0.034038	8.53168	15.2909	0.148116
 255	1	3	0.050122	8.5853	16.1745	-1.04375
 256	1	5	-0.383076	8.21576	13.0238	-2.50119
 257	1	5	-0.380811	8.53635	15.6425	1.31637
 258	1	3	-0.001248	8.42605	15.955	-3.45904
 259	1	3	-0.036565	8.53532	17.5639	-1.12543
 260	1	3	-0.208842	8.34979	18.1438	-2.39713
 261	1	3	-0.065319	8.26757	17.3656	-3.59303
 262	1	6	0.153391	8.33839	15.2648	-4.28856
 263	1	6	0.155343	8.53873	18.1664	-0.219413
 264	1	6	0.174191	8.18741	19.2138	-2.40971
 265	1	7	-0.106637	7.73374	18.0276	-4.91891
 266	1	7	0.445763	8.54714	19.3673	-5.18117
 267	1	8	-0.144255	8.41511	19.8778	-6.42473
 268	1	8	-0.136881	9.87153	19.1797	-4.98802
 269	1	8	-0.144092	8.17242	20.3802	-4.36789
 270	1	7	0.367264	7.87673	17.0946	-6.1832
 271	1	8	-0.12104	9.15476	16.691	-6.36061
 272	1	8	-0.122614	7.47392	17.6815	-7.33188
 273	1	8	-0.112321	7.10067	15.9913	-6.09566
 274	1	3	-0.021957	6.21259	18.2707	-4.68434
 275	1	3	-0.054241	5.50146	17.3772	-3.84212
 276	1	3	-0.111709	4.23309	17.7254	-3.39041
 277	1	3	-0.087244	5.51407	19.4039	-5.19038
 278	1	3	-0.118951	4.21426	19.7289	-4.73571
 279	1	3	-0.044875	3.61588	18.8904	-3.78518
 280	1	2	0.461883	2.46016	19.1216	-2.87047
 281	1	1	-0.007433	2.5273	18.0947	-1.93392
 282	1	2	0.491356	3.5023	17.1586	-2.23636
 283	1	3	-0.019445	1.92651	18.1413	-0.647056
 284	1	3	-0.186861	2.68259	18.7199	0.388001
 285	1	3	-0.068374	2.2197	18.7073	1.70709
 286	1	3	-0.009193	0.682075	17.5325	-0.36812
 287	1	3	0.220761	0.232657	17.4786	0.98126
 288	1	3	-0.402098	1.00166	18.083	2.00189
 289	1	6	0.148422	3.65033	19.1663	0.17122
 290	1	6	0.146291	2.81921	19.155	2.49868
 291	1	6	0.158981	3.73049	20.6564	-5.03532
 292	1	6	0.141813	6.00048	20.0922	-5.87458
 293	1	6	0.143633	5.94866	16.4829	-3.42442
 294	1	5	-0.474465	3.86205	16.2008	-1.57253
 295	1	5	-0.469737	1.75652	20.1158	-2.83726
 296	1	7	-0.37887	-0.122953	16.918	-1.52025
 297	1	9	0.115886	-0.00210888	17.4848	-2.45186
 298	1	9	0.123845	-1.20012	16.8995	-1.31816
 299	1	9	0.138418	0.205812	15.8866	-1.70631
 300	1	6	0.21348	0.65477	18.0577	3.03317
 301	1	1	0.486064	-1.15904	2.47252	-0.682264
 302	1	2	0.047133	-0.410339	2.36953	0.488296
 303	1	3	0.001076	-0.116197	3.76483	0.890132
 304	1	2	0.034038	-1.39227	3.80289	-1.05005
 305	1	3	0.050122	-0.682447	4.62022	-0.0294472
 306	1	5	-0.383076	-0.04522	1.3623	1.07084
 307	1	5	-0.380811	-2.06045	4.23085	-1.97683
 308	1	3	-0.001248	0.595775	4.23404	1.99491
 309	1	3	-0.036565	-0.544846	6.00639	0.0982801
 310	1	3	-0.208842	0.185688	6.50417	1.20113
 311	1	3	-0.065319	0.773912	5.63166	2.1614
 312	1	6	0.153391	0.980213	3.50806	2.70274
 313	1	6	0.155343	-0.991394	6.67417	-0.635078
 314	1	6	0.174191	0.281861	7.5829	1.30213
 315	1	7	-0.106637	1.51549	6.19301	3.40615
 316	1	7	0.445763	0.46707	6.21322	4.58397
 317	1	8	-0.144255	-0.593106	7.0017	4.29349
 318	1	8	-0.136881	1.00789	6.65113	5.74438
 319	1	8	-0.144092	-0.0695514	4.99808	4.8374
 320	1	7	0.367264	2.73748	5.27666	3.83626
 321	1	8	-0.12104	2.39566	4.16852	4.52998
 322	1	8	-0.122614	3.60762	5.94714	4.62506
 323	1	8	-0.112321	3.4409	4.83112	2.77089
 324	1	3	-0.021957	2.1053	7.60899	3.08509
 325	1	3	-0.054241	3.14473	7.72389	2.12162
 326	1	3	-0.111709	3.81812	8.94518	1.98318
 327	1	3	-0.087244	1.71939	8.79325	3.78463
 328	1	3	-0.118951	2.38081	10.0223	3.59554
 329	1	3	-0.044875	3.45341	10.0604	2.70523
 330	1	2	0.461883	4.45416	11.132	2.46451
 331	1	1	-0.007433	5.40565	10.5648	1.62758
 332	1	2	0.491356	5.0757	9.2649	1.25776
 333	1	3	-0.019445	6.67772	11.1549	1.374
 334	1	3	-0.186861	7.7985	10.534	1.95743
 335	1	3	-0.068374	9.08458	11.0595	1.79387
 336	1	3	-0.009193	6.84586	12.3339	0.603625
 337	1	3	0.220761	8.15553	12.8535	0.428214
 338	1	3	-0.402098	9.26241	12.2176	1.02917
 339	1	6	0.148422	7.6714	9.63129	2.55058
 340	1	6	0.146291	9.9371	10.5666	2.25844
 341	1	6	0.158981	2.11556	10.9032	4.17659
 342	1	6	0.141813	0.933828	8.78818	4.52899
 343	1	6	0.143633	3.48215	6.87138	1.53794
 344	1	5	-0.474465	5.75089	8.47933	0.615146
 345	1	5	-0.469737	4.48806	12.2205	3.01296
 346	1	7	-0.37887	5.64998	13.0527	-0.0388347
 347	1	9	0.115886	5.59782	14.1017	0.284589
 348	1	9	0.123845	4.68031	12.6138	0.21742
 349	1	9	0.138418	5.71862	13.0415	-1.13357
 350	1	6	0.21348	10.2621	12.6263	0.902037
 351	1	1	0.486064	-1.43065	6.44247	-12.5045
 352	1	2	0.047133	-1.47905	5.81712	-11.2613
 353	1	3	0.001076	-2.00413	4.46218	-11.5376
 354	1	2	0.034038	-2.01627	5.68539	-13.5195
 355	1	3	0.050122	-2.35092	4.39047	-12.8676
 356	1	5	-0.383076	-0.9718	6.18166	-10.2141
 357	1	5	-0.380811	-2.01406	5.90771	-14.7193
 358	1	3	-0.001248	-1.81206	3.31709	-10.7617
 359	1	3	-0.036565	-2.68544	3.16677	-13.4432
 360	1	3	-0.208842	-2.49957	1.99851	-12.672
 361	1	3	-0.065319	-1.90329	2.03237	-11.3687
 362	1	6	0.153391	-1.39697	3.48178	-9.77791
 363	1	6	0.155343	-2.94348	3.11018	-14.499
 364	1	6	0.174191	-2.67836	1.06934	-13.198
 365	1	7	-0.106637	-1.04125	0.822659	-10.8095
 366	1	7	0.445763	0.391915	1.38622	-10.396
 367	1	8	-0.144255	1.27823	0.421806	-10.0783
 368	1	8	-0.136881	0.390503	2.1678	-9.29407
 369	1	8	-0.144092	0.946221	2.12906	-11.38
 370	1	7	0.367264	-0.763076	-0.228146	-11.9783
 371	1	8	-0.12104	-1.88318	-0.902915	-12.327
 372	1	8	-0.122614	0.146073	-1.18595	-11.6855
 373	1	8	-0.112321	-0.275148	0.354568	-13.0978
 374	1	3	-0.021957	-1.62056	0.126919	-9.52375
 375	1	3	-0.054241	-1.95013	0.901055	-8.37836
 376	1	3	-0.111709	-1.98504	0.28174	-7.12047
 377	1	3	-0.087244	-1.56858	-1.29213	-9.34518
 378	1	3	-0.118951	-1.60507	-1.89324	-8.07136
 379	1	3	-0.044875	-1.74218	-1.06176	-6.96123
 380	1	2	0.461883	-1.64084	-1.35887	-5.50675
 381	1	1	-0.007433	-1.86496	-0.14539	-4.85833
 382	1	2	0.491356	-2.13138	0.876461	-5.76971
 383	1	3	-0.019445	-1.94683	0.015893	-3.43654
 384	1	3	-0.186861	-2.7258	-0.906211	-2.71036
 385	1	3	-0.068374	-2.95215	-0.740933	-1.33983
 386	1	3	-0.009193	-1.33617	1.10253	-2.75146
 387	1	3	0.220761	-1.65484	1.32982	-1.38475
 388	1	3	-0.402098	-2.45095	0.392077	-0.689843
 389	1	6	0.148422	-3.16536	-1.76614	-3.21019
 390	1	6	0.146291	-3.53916	-1.47682	-0.792005
 391	1	6	0.158981	-1.46898	-2.96625	-7.94971
 392	1	6	0.141813	-1.41508	-1.97096	-10.1731
 393	1	6	0.143633	-2.0427	1.97909	-8.41682
 394	1	5	-0.474465	-2.48159	2.02148	-5.54871
 395	1	5	-0.469737	-1.36455	-2.44404	-5.02319
 396	1	7	-0.37887	-0.308988	1.99798	-3.45704
 397	1	9	0.115886	0.463122	2.34535	-2.7663
 398	1	9	0.123845	-0.785911	2.89098	-3.88341
 399	1	9	0.138418	0.214992	1.47888	-4.26754
 400	1	6	0.21348	-2.65002	0.527267	0.371876
 401	1	1	0.486064	2.04485	11.6048	-4.17997
 402	1	2	0.047133	2.20736	12.201	-5.43157
 403	1	3	0.001076	1.17285	13.2704	-5.48955
 404	1	2	0.034038	1.03779	12.2012	-3.42518
 405	1	3	0.050122	0.481969	13.2649	-4.29583
 406	1	5	-0.383076	2.99958	11.9117	-6.31209
 407	1	5	-0.380811	0.651422	11.9023	-2.30711
 408	1	3	-0.001248	0.810634	14.1251	-6.53949
 409	1	3	-0.036565	-0.582754	14.1368	-4.06958
 410	1	3	-0.208842	-0.99212	14.9709	-5.12928
 411	1	3	-0.065319	-0.353826	14.9346	-6.40239
 412	1	6	0.153391	1.37309	14.079	-7.46903
 413	1	6	0.155343	-1.10574	14.128	-3.11578
 414	1	6	0.174191	-1.8461	15.6154	-4.95033
 415	1	7	-0.106637	-0.941026	15.7127	-7.62763
 416	1	7	0.445763	-0.31137	17.153	-7.6115
 417	1	8	-0.144255	1.00238	17.1127	-7.92809
 418	1	8	-0.136881	-0.389926	17.7243	-6.38815
 419	1	8	-0.144092	-0.914558	18.0084	-8.46867
 420	1	7	0.367264	-2.51477	15.8237	-7.5741
 421	1	8	-0.12104	-2.96671	16.755	-6.70494
 422	1	8	-0.122614	-3.08037	14.6454	-7.22519
 423	1	8	-0.112321	-3.03874	16.1513	-8.77808
 424	1	3	-0.021957	-0.643318	14.9203	-8.93722
 425	1	3	-0.054241	-0.789026	13.51	-8.92299
 426	1	3	-0.111709	-0.504333	12.7846	-10.0792
 427	1	3	-0.087244	-0.301955	15.5445	-10.1744
 428	1	3	-0.118951	-0.0774456	14.7924	-11.3476
 429	1	3	-0.044875	-0.17789	13.4009	-11.2651
 430	1	2	0.461883	0.0337268	12.3452	-12.2907
 431	1	1	-0.007433	-0.147936	11.1374	-11.6252
 432	1	2	0.491356	-0.457454	11.3193	-10.2811
 433	1	3	-0.019445	0.0591364	9.86666	-12.2341
 434	1	3	-0.186861	1.29414	9.63962	-12.8713
 435	1	3	-0.068374	1.58073	8.40827	-13.4682
 436	1	3	-0.009193	-0.915413	8.83699	-12.1884
 437	1	3	0.220761	-0.591714	7.56908	-12.7296
 438	1	3	-0.402098	0.644486	7.37158	-13.3852
 439	1	6	0.148422	2.04055	10.43	-12.9131
 440	1	6	0.146291	2.53764	8.25387	-13.9648
 441	1	6	0.158981	0.179638	15.2728	-12.2898
 442	1	6	0.141813	-0.215429	16.6215	-10.2572
 443	1	6	0.143633	-1.08307	12.9732	-8.02311
 444	1	5	-0.474465	-0.583591	10.4844	-9.40261
 445	1	5	-0.469737	0.338961	12.5269	-13.4571
 446	1	7	-0.37887	-2.29342	9.07633	-11.555
 447	1	9	0.115886	-2.62674	10.1136	-11.6755
 448	1	9	0.123845	-2.26934	8.85342	-10.4786
 449	1	9	0.138418	-3.07921	8.45559	-12.0011
 450	1	6	0.21348	0.885956	6.40186	-13.8157
 451	1	1	0.486064	2.19411	-4.47342	-5.56744
 452	1	2	0.047133	1.99668	-3.39103	-4.70347
 453	1	3	0.001076	2.01676	-2.19241	-5.57637
 454	1	2	0.034038	2.09413	-4.11613	-6.91092
 455	1	3	0.050122	2.05179	-2.62816	-6.8846
 456	1	5	-0.383076	2.14596	-3.36906	-3.49387
 457	1	5	-0.380811	2.37248	-4.79889	-7.88341
 458	1	3	-0.001248	2.42192	-0.897015	-5.21297
 459	1	3	-0.036565	2.39761	-1.75254	-7.90882
 460	1	3	-0.208842	2.85402	-0.467421	-7.55779
 461	1	3	-0.065319	2.98589	-0.0400675	-6.19917
 462	1	6	0.153391	2.49998	-0.6786	-4.15428
 463	1	6	0.155343	2.48304	-2.1134	-8.93184
 464	1	6	0.174191	3.23953	0.109767	-8.38639
 465	1	7	-0.106637	4.02653	1.07312	-5.77892
 466	1	7	0.445763	5.18651	0.330188	-4.96973
 467	1	8	-0.144255	4.80476	-0.260427	-3.81891
 468	1	8	-0.136881	6.18223	1.17132	-4.62061
 469	1	8	-0.144092	5.74083	-0.689	-5.66513
 470	1	7	0.367264	4.7745	1.69068	-7.05226
 471	1	8	-0.12104	3.92703	2.24194	-7.95194
 472	1	8	-0.122614	5.49789	0.792173	-7.75914
 473	1	8	-0.112321	5.65269	2.66643	-6.72293
 474	1	3	-0.021957	3.42406	2.25178	-4.89996
 475	1	3	-0.054241	3.29476	3.58033	-5.41308
 476	1	3	-0.111709	3.10867	4.66473	-4.54831
 477	1	3	-0.087244	3.18267	2.10677	-3.49666
 478	1	3	-0.118951	2.96982	3.21381	-2.63963
 479	1	3	-0.044875	2.95933	4.49648	-3.19458
 480	1	2	0.461883	2.9172	5.84621	-2.55875
 481	1	1	-0.007433	3.11715	6.75987	-3.59307
 482	1	2	0.491356	3.21899	6.1237	-4.82777
 483	1	3	-0.019445	3.34375	8.15835	-3.37599
 484	1	3	-0.186861	4.38792	8.51636	-2.49936
 485	1	3	-0.068374	4.66614	9.85575	-2.20676
 486	1	3	-0.009193	2.56344	9.17826	-3.98741
 487	1	3	0.220761	2.84175	10.5384	-3.6745
 488	1	3	-0.402098	3.88378	10.8619	-2.78052
 489	1	6	0.148422	4.99317	7.74626	-2.02513
 490	1	6	0.146291	5.4817	10.1061	-1.52971
 491	1	6	0.158981	2.87438	3.08238	-1.56325
 492	1	6	0.141813	3.2073	1.13759	-3.01748
 493	1	6	0.143633	3.43657	3.841	-6.45187
 494	1	5	-0.474465	3.49162	6.61484	-5.90922
 495	1	5	-0.469737	2.79792	6.07114	-1.36478
 496	1	7	-0.37887	1.44458	8.81446	-4.97471
 497	1	9	0.115886	0.954953	7.86751	-4.71867
 498	1	9	0.123845	1.85377	8.7076	-5.99054
 499	1	9	0.138418	0.64591	9.56256	-5.02838
 500	1	6	0.21348	4.07936	11.9015	-2.52971
 501	1	1	0.486064	11.6541	0.442867	-8.21425
 502	1	2	0.047133	11.1255	-0.683559	-7.57443
 503	1	3	0.001076	10.4757	-0.157979	-6.34025
 504	1	2	0.034038	11.2736	1.63534	-7.60431
 505	1	3	0.050122	10.6009	1.21403	-6.35057
 506	1	5	-0.383076	11.4144	-1.85208	-7.77172
 507	1	5	-0.380811	11.6645	2.76224	-7.86169
 508	1	3	-0.001248	10.0665	-0.854757	-5.19026
 509	1	3	-0.036565	10.3813	1.95589	-5.19295
 510	1	3	-0.208842	10.0303	1.26719	-4.01454
 511	1	3	-0.065319	9.8507	-0.149277	-3.96907
 512	1	6	0.153391	10.0196	-1.93174	-5.26121
 513	1	6	0.155343	10.5846	3.02518	-5.18326
 514	1	6	0.174191	9.97824	1.87508	-3.12178
 515	1	7	-0.106637	9.62816	-0.885733	-2.59204
 516	1	7	0.445763	8.58312	-0.0951072	-1.68227
 517	1	8	-0.144255	8.29434	-0.758543	-0.539554
 518	1	8	-0.136881	7.42605	0.121872	-2.34045
 519	1	8	-0.144092	8.96543	1.12625	-1.25409
 520	1	7	0.367264	11.0089	-0.883303	-1.82483
 521	1	8	-0.12104	12.0221	-1.35272	-2.58365
 522	1	8	-0.122614	10.9606	-1.64309	-0.708375
 523	1	8	-0.112321	11.4228	0.347505	-1.45109
 524	1	3	-0.021957	9.14812	-2.38658	-2.78342
 525	1	3	-0.054241	7.83017	-2.81504	-2.448
 526	1	3	-0.111709	7.44043	-4.14055	-2.66181
 527	1	3	-0.087244	10.0142	-3.39877	-3.30812
 528	1	3	-0.118951	9.57747	-4.71597	-3.58449
 529	1	3	-0.044875	8.26249	-5.06218	-3.26364
 530	1	2	0.461883	7.43173	-6.24337	-3.65661
 531	1	1	-0.007433	6.1313	-5.8946	-3.31195
 532	1	2	0.491356	6.0834	-4.71954	-2.56913
 533	1	3	-0.019445	4.95497	-6.34838	-3.97966
 534	1	3	-0.186861	4.32489	-7.5565	-3.63294
 535	1	3	-0.068374	3.02111	-7.82712	-4.0859
 536	1	3	-0.009193	4.3038	-5.4443	-4.85015
 537	1	3	0.220761	2.9246	-5.61672	-5.11845
 538	1	3	-0.402098	2.29712	-6.83249	-4.76921
 539	1	6	0.148422	4.83152	-8.2714	-2.98932
 540	1	6	0.146291	2.53987	-8.76643	-3.81781
 541	1	6	0.158981	10.2273	-5.43117	-4.08553
 542	1	6	0.141813	11.0287	-3.16065	-3.60288
 543	1	6	0.143633	7.06197	-2.15483	-2.06448
 544	1	5	-0.474465	5.10041	-4.12417	-2.16462
 545	1	5	-0.469737	7.79061	-7.17461	-4.3556
 546	1	7	-0.37887	5.07263	-4.24635	-5.4389
 547	1	9	0.115886	4.88132	-3.32179	-4.87958
 548	1	9	0.123845	4.80768	-4.07943	-6.49064
 549	1	9	0.138418	6.15673	-4.41272	-5.45467
 550	1	6	0.21348	1.24644	-6.99038	-4.99937
 551	1	1	0.486064	23.8387	1.58182	-11.6495
 552	1	2	0.047133	23.2107	0.526975	-12.3059
 553	1	3	0.001076	22.0595	1.14233	-13.0094
 554	1	2	0.034038	23.1851	2.8008	-11.8374
 555	1	3	0.050122	22.0487	2.49127	-12.7452
 556	1	5	-0.383076	23.5378	-0.647377	-12.3413
 557	1	5	-0.380811	23.4726	3.89404	-11.3793
 558	1	3	-0.001248	21.1496	0.554095	-13.8873
 559	1	3	-0.036565	21.0983	3.32246	-13.3396
 560	1	3	-0.208842	20.217	2.75607	-14.2894
 561	1	3	-0.065319	20.2543	1.36928	-14.6385
 562	1	6	0.153391	21.224	-0.516874	-13.9927
 563	1	6	0.155343	21.0842	4.38702	-13.1144
 564	1	6	0.174191	19.5322	3.44412	-14.7676
 565	1	7	-0.106637	19.4177	0.769032	-15.8351
 566	1	7	0.445763	20.3091	-0.321383	-16.5921
 567	1	8	-0.144255	20.5618	-1.44201	-15.8837
 568	1	8	-0.136881	21.5218	0.18178	-16.9184
 569	1	8	-0.144092	19.7634	-0.79628	-17.732
 570	1	7	0.367264	19.0852	1.8759	-16.9345
 571	1	8	-0.12104	18.4962	1.37528	-18.0418
 572	1	8	-0.122614	18.215	2.82846	-16.538
 573	1	8	-0.112321	20.1956	2.53381	-17.3372
 574	1	3	-0.021957	18.0768	0.210343	-15.2573
 575	1	3	-0.054241	17.2174	1.09699	-14.5581
 576	1	3	-0.111709	16.0289	0.624371	-13.9936
 577	1	3	-0.087244	17.6841	-1.1607	-15.3232
 578	1	3	-0.118951	16.5175	-1.63322	-14.6809
 579	1	3	-0.044875	15.6971	-0.71065	-14.0229
 580	1	2	0.461883	14.5965	-0.936401	-13.0438
 581	1	1	-0.007433	14.425	0.289082	-12.4075
 582	1	2	0.491356	15.1335	1.30958	-13.0306
 583	1	3	-0.019445	14.1913	0.349252	-11.0058
 584	1	3	-0.186861	15.3617	0.320527	-10.2237
 585	1	3	-0.068374	15.3049	0.338714	-8.83246
 586	1	3	-0.009193	12.9158	0.399492	-10.3851
 587	1	3	0.220761	12.8633	0.3864	-8.96446
 588	1	3	-0.402098	14.058	0.363774	-8.20877
 589	1	6	0.148422	16.337	0.287218	-10.7037
 590	1	6	0.146291	16.2225	0.328295	-8.24725
 591	1	6	0.158981	16.2894	-2.69707	-14.6423
 592	1	6	0.141813	18.2932	-1.90378	-15.8221
 593	1	6	0.143633	17.4844	2.13514	-14.3898
 594	1	5	-0.474465	15.2704	2.45939	-12.6508
 595	1	5	-0.469737	14.2078	-2.02631	-12.6618
 596	1	7	-0.37887	11.6325	0.470078	-11.2167
 597	1	9	0.115886	10.93	1.21128	-10.8131
 598	1	9	0.123845	11.1257	-0.503661	-11.242
 599	1	9	0.138418	11.8232	0.766022	-12.2555
 600	1	6	0.21348	14.0123	0.37805	-7.12236
 601	1	1	0.486064	18.9649	-2.80843	-3.66489
 602	1	2	0.047133	19.8382	-2.04704	-4.46624
 603	1	3	0.001076	19.8716	-0.708775	-3.85228
 604	1	2	0.034038	18.2035	-1.9505	-2.84201
 605	1	3	0.050122	18.8935	-0.63548	-2.89055
 606	1	5	-0.383076	20.6769	-2.40761	-5.27774
 607	1	5	-0.380811	17.2892	-2.19743	-2.07622
 608	1	3	-0.001248	21.0274	0.0639738	-3.78281
 609	1	3	-0.036565	18.954	0.33051	-1.87946
 610	1	3	-0.208842	20.1458	1.07651	-1.75429
 611	1	3	-0.065319	21.2507	0.837938	-2.61914
 612	1	6	0.153391	21.8176	-0.186541	-4.48088
 613	1	6	0.155343	18.2065	0.345963	-1.08903
 614	1	6	0.174191	20.2645	1.68836	-0.863825
 615	1	7	-0.106637	22.7088	1.0536	-2.11161
 616	1	7	0.445763	22.9653	2.57998	-1.78724
 617	1	8	-0.144255	22.5303	3.38442	-2.78237
 618	1	8	-0.136881	24.281	2.82531	-1.6012
 619	1	8	-0.144092	22.3261	3.04988	-0.694945
 620	1	7	0.367264	22.8677	0.198904	-0.781665
 621	1	8	-0.12104	22.2495	0.70964	0.305336
 622	1	8	-0.122614	24.1645	0.0339047	-0.44229
 623	1	8	-0.112321	22.3138	-1.03049	-0.905288
 624	1	3	-0.021957	23.732	0.529652	-3.19788
 625	1	3	-0.054241	24.2111	1.39056	-4.22156
 626	1	3	-0.111709	24.979	0.875071	-5.26819
 627	1	3	-0.087244	24.0874	-0.855341	-3.31575
 628	1	3	-0.118951	24.8424	-1.36034	-4.39979
 629	1	3	-0.044875	25.2733	-0.464598	-5.3825
 630	1	2	0.461883	25.9021	-0.691656	-6.72085
 631	1	1	-0.007433	25.8962	0.557089	-7.33276
 632	1	2	0.491356	25.4259	1.55932	-6.50016
 633	1	3	-0.019445	26.0443	0.808202	-8.72219
 634	1	3	-0.186861	27.2911	1.22945	-9.21672
 635	1	3	-0.068374	27.4031	1.73437	-10.5192
 636	1	3	-0.009193	24.8893	0.867873	-9.53925
 637	1	3	0.220761	24.9981	1.41891	-10.8401
 638	1	3	-0.402098	26.2567	1.84757	-11.3201
 639	1	6	0.148422	28.1687	1.20895	-8.57468