pySIMM System Object

1102 atoms
1211 bonds
2112 angles
3252 dihedrals
352 impropers

9 atom types
11 bond types
18 angle types
7 dihedral types
4 improper types

-166.615561 166.615561 xlo xhi
-166.615561 166.615561 ylo yhi
-166.615561 166.615561 zlo zhi

Masses

   1	14.01	# n
   2	12.01	# c
   3	12.01	# ca
   4	1.008	# hn
   5	16.0	# o
   6	1.008	# ha
   7	12.01	# c3
   8	19.0	# f
   9	1.008	# hc

Pair Coeffs

   1	0.17	3.249998523775958	# n
   2	0.086	3.3996695084235347	# c
   3	0.086	3.3996695084235347	# ca
   4	0.0157	1.069078461768407	# hn
   5	0.21	2.959921901149463	# o
   6	0.015	2.59964245953351	# ha
   7	0.1094	3.3996695084235347	# c3
   8	0.061	3.1181455134911875	# f
   9	0.0157	2.649532787749369	# hc

Bond Coeffs

   1	427.6	1.3789	# c,n
   2	461.1	1.3984	# ca,ca
   3	345.9	1.4906	# c,ca
   4	345.8	1.086	# ca,ha
   5	637.7	1.2183	# c,o
   6	321.0	1.5156	# c3,ca
   7	300.9	1.5375	# c3,c3
   8	356.9	1.3497	# c3,f
   9	384.2	1.4121	# ca,n
  10	330.6	1.0969	# c3,hc
  11	403.2	1.0129	# hn,n

Angle Coeffs

   1	48.18	119.88	# ca,ca,ha
   2	63.15	112.07	# c3,c3,ca
   3	70.89	107.36	# f,c3,f
   4	67.87	120.19	# ca,ca,n
   5	68.72	122.6	# ca,c,o
   6	63.56	112.24	# ca,c3,ca
   7	63.82	123.71	# c,n,ca
   8	74.22	123.05	# n,c,o
   9	48.33	117.55	# c,n,hn
  10	67.68	115.25	# ca,c,n
  11	64.28	120.33	# c,ca,ca
  12	66.11	109.24	# c3,c3,f
  13	46.8	110.47	# ca,c3,hc
  14	39.4	107.58	# hc,c3,hc
  15	66.62	120.02	# ca,ca,ca
  16	63.53	120.77	# c3,ca,ca
  17	62.86	111.51	# c3,c3,c3
  18	63.74	127.08	# c,n,c

Dihedral Coeffs

   1	1	2.5	2	180	# X,c,n,X
   2	1	0.45	2	180	# X,ca,n,X
   3	2	2.5	2	180	2.0	1	0	# hn,n,c,o
   4	1	3.625	2	180	# X,ca,ca,X
   5	1	1.0	2	180	# X,c,ca,X
   6	1	0.15555555555555556	3	0	# X,c3,c3,X
   7	1	0.0	2	0	# X,c3,ca,X

Improper Coeffs

   1	1.1	-1	2	# ca,ca,ca,c3
   2	10.5	-1	2	# c,X,X,o
   3	1.1	-1	2	# ca,X,X,ha
   4	1.1	-1	2	# n,X,X,hn

Atoms

   1	1	1	0.486064	-5.56756	-63.3721	34.6973
   2	1	2	0.047133	-4.71714	-62.7277	35.595
   3	1	3	0.001076	-4.68162	-63.6008	36.7945
   4	1	2	0.034038	-6.00998	-64.6092	35.17
   5	1	3	0.050122	-5.44315	-64.7225	36.5408
   6	1	5	-0.383076	-4.23068	-61.613	35.5061
   7	1	5	-0.380811	-6.82038	-65.3662	34.6613
   8	1	3	-0.001248	-4.17733	-63.3235	38.0698
   9	1	3	-0.036565	-5.71498	-65.651	37.5496
  10	1	3	-0.208842	-5.22057	-65.388	38.8459
  11	1	3	-0.065319	-4.46068	-64.2187	39.136
  12	1	6	0.153391	-3.66775	-62.3782	38.2216
  13	1	6	0.155343	-6.3553	-66.5077	37.3496
  14	1	6	0.174191	-5.50241	-66.0697	39.6453
  15	1	7	-0.106637	-4.15276	-63.8435	40.6162
  16	1	7	0.445763	-2.84927	-62.9698	40.7873
  17	1	8	-0.144255	-1.81878	-63.4658	40.0663
  18	1	8	-0.136881	-2.43983	-62.9377	42.0764
  19	1	8	-0.144092	-2.99721	-61.6817	40.4073
  20	1	7	0.367264	-5.39715	-63.0075	41.1061
  21	1	8	-0.12104	-5.68393	-61.9794	40.2752
  22	1	8	-0.122614	-5.22092	-62.4689	42.3339
  23	1	8	-0.112321	-6.51868	-63.7635	41.1443
  24	1	3	-0.021957	-3.91485	-65.1402	41.4487
  25	1	3	-0.054241	-4.59623	-65.4121	42.6657
  26	1	3	-0.111709	-4.29312	-66.5827	43.3676
  27	1	3	-0.087244	-2.94303	-66.0802	41.0021
  28	1	3	-0.118951	-2.64131	-67.2476	41.7349
  29	1	3	-0.044875	-3.339	-67.4727	42.9256
  30	1	2	0.461883	-3.2792	-68.6056	43.8893
  31	1	1	-0.007433	-4.23542	-68.3219	44.8563
  32	1	2	0.491356	-4.88579	-67.1184	44.6196
  33	1	3	-0.019445	-4.58543	-69.2114	45.909
  34	1	3	-0.186861	-5.20248	-70.433	45.5774
  35	1	3	-0.068374	-5.5999	-71.331	46.5781
  36	1	3	-0.009193	-4.351	-68.8867	47.2654
  37	1	3	0.220761	-4.75877	-69.7937	48.2647
  38	1	3	-0.402098	-5.38032	-71.006	47.9245
  39	1	6	0.148422	-5.37574	-70.6876	44.5348
  40	1	6	0.146291	-6.07766	-72.2715	46.3078
  41	1	6	0.158981	-1.89346	-67.9581	41.3879
  42	1	6	0.141813	-2.40862	-65.9039	40.0725
  43	1	6	0.143633	-5.34908	-64.7538	43.0853
  44	1	5	-0.474465	-5.80873	-66.622	45.2418
  45	1	5	-0.469737	-2.57254	-69.5944	43.7965
  46	1	7	-0.37887	-3.66329	-67.5813	47.6655
  47	1	9	0.115886	-4.31239	-66.7176	47.4733
  48	1	9	0.123845	-2.72567	-67.4366	47.1155
  49	1	9	0.138418	-3.41677	-67.566	48.7345
  50	1	6	0.21348	-5.68674	-71.69	48.7105
  51	1	1	0.486064	-2.55469	-52.7623	23.5785
  52	1	2	0.047133	-1.48342	-53.3755	24.2282
  53	1	3	0.001076	-2.08144	-54.5061	24.9835
  54	1	2	0.034038	-3.78639	-53.3128	23.9395
  55	1	3	0.050122	-3.44915	-54.4685	24.816
  56	1	5	-0.383076	-0.292005	-53.2003	24.0371
  57	1	5	-0.380811	-4.88258	-53.0739	23.4605
  58	1	3	-0.001248	-1.4413	-55.6095	25.559
  59	1	3	-0.036565	-4.25403	-55.5278	25.248
  60	1	3	-0.208842	-3.62672	-56.6584	25.8191
  61	1	3	-0.065319	-2.21155	-56.7344	25.9629
  62	1	6	0.153391	-0.356199	-55.6157	25.5761
  63	1	6	0.155343	-5.32603	-55.5096	25.0634
  64	1	6	0.174191	-4.25718	-57.5053	26.0762
  65	1	7	-0.106637	-1.50742	-58.0707	26.3524
  66	1	7	0.445763	-0.847222	-58.6341	25.0272
  67	1	8	-0.144255	-0.261519	-59.8376	25.2203
  68	1	8	-0.136881	0.102994	-57.8351	24.4934
  69	1	8	-0.144092	-1.75961	-58.7617	24.036
  70	1	7	0.367264	-0.362008	-57.8282	27.4207
  71	1	8	-0.12104	0.772772	-57.2865	26.9285
  72	1	8	-0.122614	0.00843648	-58.9843	28.0166
  73	1	8	-0.112321	-0.753378	-56.9797	28.3964
  74	1	3	-0.021957	-2.53437	-59.0943	26.9723
  75	1	3	-0.054241	-3.04398	-58.8911	28.2872
  76	1	3	-0.111709	-3.87173	-59.863	28.8708
  77	1	3	-0.087244	-2.97604	-60.2684	26.2836
  78	1	3	-0.118951	-3.83676	-61.2145	26.8751
  79	1	3	-0.044875	-4.25778	-60.9935	28.1858
  80	1	2	0.461883	-5.11155	-61.824	29.0773
  81	1	1	-0.007433	-5.1727	-61.1329	30.2781
  82	1	2	0.491356	-4.45804	-59.941	30.238
  83	1	3	-0.019445	-5.92033	-61.5757	31.406
  84	1	3	-0.186861	-7.26974	-61.1897	31.4912
  85	1	3	-0.068374	-8.05465	-61.5687	32.5856
  86	1	3	-0.009193	-5.33727	-62.3627	32.4313
  87	1	3	0.220761	-6.124	-62.7114	33.5615
  88	1	3	-0.402098	-7.48029	-62.3189	33.6184
  89	1	6	0.148422	-7.71482	-60.5879	30.703
  90	1	6	0.146291	-9.09856	-61.2636	32.6408
  91	1	6	0.158981	-4.14679	-62.1097	26.3389
  92	1	6	0.141813	-2.65295	-60.5001	25.2775
  93	1	6	0.143633	-2.79385	-58.0133	28.873
  94	1	5	-0.474465	-4.31893	-59.1189	31.1258
  95	1	5	-0.469737	-5.63407	-62.8876	28.7926
  96	1	7	-0.37887	-3.87378	-62.8051	32.3154
  97	1	9	0.115886	-3.65897	-63.7121	32.8929
  98	1	9	0.123845	-3.19989	-62.0136	32.6709
  99	1	9	0.138418	-3.60053	-63.0421	31.2797
 100	1	6	0.21348	-8.08854	-62.5909	34.4788
 101	1	1	0.486064	0.845462	-38.298	16.6209
 102	1	2	0.047133	0.282681	-39.0924	17.6369
 103	1	3	0.001076	0.276425	-40.4894	17.1173
 104	1	2	0.034038	1.29782	-39.0808	15.554
 105	1	3	0.050122	0.907784	-40.476	15.8939
 106	1	5	-0.383076	-0.249052	-38.731	18.6739
 107	1	5	-0.380811	1.72018	-38.7127	14.4703
 108	1	3	-0.001248	-0.418864	-41.6257	17.5779
 109	1	3	-0.036565	0.951905	-41.6208	15.1012
 110	1	3	-0.208842	0.259245	-42.7672	15.541
 111	1	3	-0.065319	-0.504344	-42.7849	16.7501
 112	1	6	0.153391	-0.97283	-41.5512	18.5088
 113	1	6	0.155343	1.43507	-41.5926	14.1267
 114	1	6	0.174191	0.267713	-43.6035	14.853
 115	1	7	-0.106637	-1.57374	-43.9101	17.0549
 116	1	7	0.445763	-2.97736	-43.1803	17.148
 117	1	8	-0.144255	-3.14346	-42.5735	18.3439
 118	1	8	-0.136881	-4.05108	-43.9853	16.9946
 119	1	8	-0.144092	-3.10257	-42.2237	16.1994
 120	1	7	0.367264	-1.65484	-44.9886	15.8981
 121	1	8	-0.12104	-1.99017	-44.4479	14.7045
 122	1	8	-0.122614	-2.55863	-45.9683	16.1245
 123	1	8	-0.112321	-0.479004	-45.6426	15.7517
 124	1	3	-0.021957	-1.25755	-44.7267	18.3481
 125	1	3	-0.054241	-2.2528	-45.5572	18.9381
 126	1	3	-0.111709	-1.88256	-46.5223	19.8844
 127	1	3	-0.087244	0.0793556	-44.8645	18.813
 128	1	3	-0.118951	0.430063	-45.8325	19.7837
 129	1	3	-0.044875	-0.574004	-46.6721	20.2869
 130	1	2	0.461883	-0.469576	-47.9483	21.0567
 131	1	1	-0.007433	-1.73391	-48.5272	20.9992
 132	1	2	0.491356	-2.65857	-47.6936	20.3801
 133	1	3	-0.019445	-1.94954	-49.9325	21.1414
 134	1	3	-0.186861	-1.88173	-50.6852	19.9542
 135	1	3	-0.068374	-2.06162	-52.0699	19.9641
 136	1	3	-0.009193	-2.19918	-50.5813	22.3804
 137	1	3	0.220761	-2.36794	-51.9955	22.3896
 138	1	3	-0.402098	-2.30095	-52.719	21.1777
 139	1	6	0.148422	-1.68745	-50.1888	19.0066
 140	1	6	0.146291	-2.00561	-52.6356	19.0355
 141	1	6	0.158981	1.46944	-45.9958	20.0616
 142	1	6	0.141813	0.876619	-44.2869	18.3537
 143	1	6	0.143633	-3.2777	-45.5703	18.5821
 144	1	5	-0.474465	-3.80967	-47.9546	20.0779
 145	1	5	-0.469737	0.565053	-48.4648	21.4412
 146	1	7	-0.37887	-2.29512	-49.7486	23.6616
 147	1	9	0.115886	-2.3166	-50.3547	24.5747
 148	1	9	0.123845	-3.20672	-49.136	23.655
 149	1	9	0.138418	-1.4357	-49.0719	23.756
 150	1	6	0.21348	-2.42673	-53.7995	21.1818
 151	1	1	0.486064	7.01592	-22.5856	14.7063
 152	1	2	0.047133	6.25854	-23.0864	15.7693
 153	1	3	0.001076	5.858	-24.4655	15.3599
 154	1	2	0.034038	7.02436	-23.4622	13.6147
 155	1	3	0.050122	6.31987	-24.6895	14.0826
 156	1	5	-0.383076	6.1435	-22.6165	16.8888
 157	1	5	-0.380811	7.67308	-23.3671	12.5858
 158	1	3	-0.001248	5.35285	-25.5108	16.1474
 159	1	3	-0.036565	6.29784	-25.9757	13.5288
 160	1	3	-0.208842	5.81869	-27.047	14.3204
 161	1	3	-0.065319	5.33351	-26.8491	15.6444
 162	1	6	0.153391	5.09616	-25.2638	17.1693
 163	1	6	0.155343	6.73351	-26.1516	12.5474
 164	1	6	0.174191	5.90187	-28.0559	13.9217
 165	1	7	-0.106637	5.06716	-28.0867	16.5844
 166	1	7	0.445763	6.4952	-28.5047	17.1099
 167	1	8	-0.144255	7.18164	-29.173	16.1552
 168	1	8	-0.136881	6.46897	-29.2917	18.2073
 169	1	8	-0.144092	7.25105	-27.4341	17.4468
 170	1	7	0.367264	4.14371	-27.6977	17.8051
 171	1	8	-0.12104	4.76228	-26.9267	18.727
 172	1	8	-0.122614	3.68911	-28.7683	18.4931
 173	1	8	-0.112321	3.04612	-27.0336	17.3781
 174	1	3	-0.021957	4.35918	-29.3031	15.8791
 175	1	3	-0.054241	4.38128	-30.6068	16.4638
 176	1	3	-0.111709	3.60545	-31.642	15.9181
 177	1	3	-0.087244	3.53084	-29.1217	14.7358
 178	1	3	-0.118951	2.78903	-30.1875	14.1731
 179	1	3	-0.044875	2.84229	-31.4451	14.7912
 180	1	2	0.461883	2.01259	-32.6669	14.5739
 181	1	1	-0.007433	2.26678	-33.509	15.658
 182	1	2	0.491356	3.25952	-32.9832	16.4827
 183	1	3	-0.019445	1.3548	-34.5484	16.0546
 184	1	3	-0.186861	0.0398933	-34.1237	16.3212
 185	1	3	-0.068374	-0.955868	-35.0287	16.686
 186	1	3	-0.009193	1.68767	-35.9312	16.1854
 187	1	3	0.220761	0.662366	-36.868	16.5453
 188	1	3	-0.402098	-0.647275	-36.3864	16.7824
 189	1	6	0.148422	-0.22293	-33.0726	16.2295
 190	1	6	0.146291	-1.96828	-34.6775	16.879
 191	1	6	0.158981	2.12694	-30.0233	13.325
 192	1	6	0.141813	3.41488	-28.1333	14.3002
 193	1	6	0.143633	4.90211	-30.8136	17.3919
 194	1	5	-0.474465	3.63877	-33.4154	17.5572
 195	1	5	-0.469737	1.1475	-32.7875	13.7231
 196	1	7	-0.37887	3.1289	-36.3785	15.916
 197	1	9	0.115886	3.33696	-36.3859	14.8377
 198	1	9	0.123845	3.34624	-37.3825	16.2965
 199	1	9	0.138418	3.85872	-35.716	16.395
 200	1	6	0.21348	-1.44365	-37.077	17.0538
 201	1	1	0.486064	11.7159	-6.52711	14.9427
 202	1	2	0.047133	12.0287	-7.47755	13.9648
 203	1	3	0.001076	11.0861	-8.61257	14.1932
 204	1	2	0.034038	10.6855	-6.9598	15.7812
 205	1	3	0.050122	10.2998	-8.30534	15.2813
 206	1	5	-0.383076	12.9204	-7.44178	13.1334
 207	1	5	-0.380811	10.214	-6.39298	16.7534
 208	1	3	-0.001248	10.9199	-9.81344	13.4858
 209	1	3	-0.036565	9.32826	-9.19641	15.7451
 210	1	3	-0.208842	9.14454	-10.4097	15.0453
 211	1	3	-0.065319	9.91657	-10.7451	13.8964
 212	1	6	0.153391	11.555	-9.96843	12.6214
 213	1	6	0.155343	8.71932	-8.9402	16.6096
 214	1	6	0.174191	8.36605	-11.0875	15.3899
 215	1	7	-0.106637	9.53661	-12.0318	13.0732
 216	1	7	0.445763	8.14177	-11.7112	12.4059
 217	1	8	-0.144255	7.81469	-12.5332	11.3851
 218	1	8	-0.136881	8.10635	-10.4561	11.9011
 219	1	8	-0.144092	7.13358	-11.7952	13.3031
 220	1	7	0.367264	10.5883	-12.3453	11.9411
 221	1	8	-0.12104	10.3537	-13.5166	11.309
 222	1	8	-0.122614	11.8344	-12.4497	12.4555
 223	1	8	-0.112321	10.6149	-11.4011	10.9728
 224	1	3	-0.021957	9.44867	-13.3133	13.9738
 225	1	3	-0.054241	8.77937	-14.4944	13.5305
 226	1	3	-0.111709	8.80708	-15.6564	14.3224
 227	1	3	-0.087244	10.1398	-13.3794	15.2162
 228	1	3	-0.118951	10.1311	-14.5455	16.0127
 229	1	3	-0.044875	9.44829	-15.6732	15.5401
 230	1	2	0.461883	9.40171	-17.0628	16.0749
 231	1	1	-0.007433	8.7882	-17.8409	15.0921
 232	1	2	0.491356	8.3588	-17.0541	14.0227
 233	1	3	-0.019445	8.88426	-19.2775	15.0697
 234	1	3	-0.186861	10.1855	-19.8041	15.1968
 235	1	3	-0.068374	10.4218	-21.1792	15.1885
 236	1	3	-0.009193	7.7814	-20.1733	14.9157
 237	1	3	0.220761	8.02815	-21.581	14.8771
 238	1	3	-0.402098	9.34964	-22.0575	15.0269
 239	1	6	0.148422	11.036	-19.1372	15.3169
 240	1	6	0.146291	11.4359	-21.5594	15.3003
 241	1	6	0.158981	10.6872	-14.5919	16.9471
 242	1	6	0.141813	10.7229	-12.5315	15.5643
 243	1	6	0.143633	8.29771	-14.5508	12.5596
 244	1	5	-0.474465	7.85931	-17.4282	12.9759
 245	1	5	-0.469737	9.93882	-17.438	17.1035
 246	1	7	-0.37887	6.35704	-19.6276	14.7831
 247	1	9	0.115886	6.23816	-18.6692	15.3025
 248	1	9	0.123845	5.60732	-20.3005	15.2171
 249	1	9	0.138418	6.09981	-19.4624	13.7277
 250	1	6	0.21348	9.54747	-23.1271	15.005
 251	1	1	0.486064	9.5377	7.85019	10.1581
 252	1	2	0.047133	10.0834	7.68618	11.4353
 253	1	3	0.001076	11.2068	6.72842	11.2572
 254	1	2	0.034038	10.2721	7.17721	9.17609
 255	1	3	0.050122	11.2915	6.40135	9.92193
 256	1	5	-0.383076	9.70572	8.16539	12.4944
 257	1	5	-0.380811	10.1273	7.19161	7.9638
 258	1	3	-0.001248	12.0301	6.1267	12.2154
 259	1	3	-0.036565	12.162	5.40685	9.476
 260	1	3	-0.208842	12.95	4.73943	10.4358
 261	1	3	-0.065319	12.9235	5.08995	11.8164
 262	1	6	0.153391	11.9128	6.45232	13.2414
 263	1	6	0.155343	12.1827	5.12359	8.42578
 264	1	6	0.174191	13.5659	3.91589	10.0882
 265	1	7	-0.106637	13.7853	4.2573	12.8264
 266	1	7	0.445763	15.2975	4.34877	12.364
 267	1	8	-0.144255	16.193	3.9802	13.3065
 268	1	8	-0.136881	15.6263	5.61107	12.0066
 269	1	8	-0.144092	15.5577	3.55986	11.298
 270	1	7	0.367264	13.6839	4.78676	14.3096
 271	1	8	-0.12104	14.1388	6.05431	14.4314
 272	1	8	-0.122614	14.378	4.02644	15.1858
 273	1	8	-0.112321	12.4141	4.75869	14.7755
 274	1	3	-0.021957	13.2333	2.80126	12.8563
 275	1	3	-0.054241	14.0487	1.67828	13.1717
 276	1	3	-0.111709	13.4407	0.42334	13.3543
 277	1	3	-0.087244	11.8322	2.59214	12.7124
 278	1	3	-0.118951	11.245	1.33053	12.9153
 279	1	3	-0.044875	12.0759	0.262669	13.2603
 280	1	2	0.461883	11.7241	-1.11111	13.7096
 281	1	1	-0.007433	12.9302	-1.72586	14.0423
 282	1	2	0.491356	14.0141	-0.872696	13.8162
 283	1	3	-0.019445	13.0296	-2.97042	14.7556
 284	1	3	-0.186861	13.7329	-2.9422	15.9764
 285	1	3	-0.068374	13.8249	-4.07323	16.7907
 286	1	3	-0.009193	12.4007	-4.18273	14.3406
 287	1	3	0.220761	12.4517	-5.3227	15.1982
 288	1	3	-0.402098	13.1775	-5.25113	16.4081
 289	1	6	0.148422	14.2111	-2.02441	16.3116
 290	1	6	0.146291	14.3673	-4.02116	17.7336
 291	1	6	0.158981	10.1692	1.20122	12.8571
 292	1	6	0.141813	11.166	3.42402	12.5013
 293	1	6	0.143633	15.1174	1.77176	13.3422
 294	1	5	-0.474465	15.1937	-1.07541	14.048
 295	1	5	-0.469737	10.5892	-1.52061	13.889
 296	1	7	-0.37887	11.6492	-4.25054	13.0049
 297	1	9	0.115886	10.573	-4.08853	13.1503
 298	1	9	0.123845	11.7805	-5.21089	12.4946
 299	1	9	0.138418	12.0039	-3.49739	12.292
 300	1	6	0.21348	13.2047	-6.10847	17.0773
 301	1	1	0.486064	5.78571	1.65602	9.58529
 302	1	2	0.047133	4.47248	1.42335	9.17548
 303	1	3	0.001076	4.38137	2.05344	7.83098
 304	1	2	0.034038	6.57646	2.23587	8.59907
 305	1	3	0.050122	5.63663	2.52191	7.49316
 306	1	5	-0.383076	3.53663	1.02371	9.8471
 307	1	5	-0.380811	7.71945	2.65316	8.69991
 308	1	3	-0.001248	3.23994	2.41095	7.09802
 309	1	3	-0.036565	5.83421	3.3408	6.38582
 310	1	3	-0.208842	4.70045	3.73075	5.65361
 311	1	3	-0.065319	3.3833	3.31069	6.00561
 312	1	6	0.153391	2.27306	2.08465	7.46628
 313	1	6	0.155343	6.81918	3.74976	6.16969
 314	1	6	0.174191	4.85426	4.46507	4.868
 315	1	7	-0.106637	2.18354	4.06432	5.34711
 316	1	7	0.445763	2.15569	3.69492	3.80696
 317	1	8	-0.144255	3.27837	4.05173	3.1448
 318	1	8	-0.136881	1.13507	4.27677	3.13898
 319	1	8	-0.144092	2.0436	2.36097	3.62015
 320	1	7	0.367264	0.764928	3.71763	5.95452
 321	1	8	-0.12104	0.411561	2.42883	5.75164
 322	1	8	-0.122614	-0.209609	4.48766	5.42223
 323	1	8	-0.112321	0.688219	3.92322	7.28744
 324	1	3	-0.021957	2.49602	5.5589	5.6622
 325	1	3	-0.054241	2.80066	5.892	7.00938
 326	1	3	-0.111709	3.44873	7.0944	7.29176
 327	1	3	-0.087244	2.74054	6.53954	4.65893
 328	1	3	-0.118951	3.41953	7.74073	4.96218
 329	1	3	-0.044875	3.8095	7.96581	6.2883
 330	1	2	0.461883	4.80785	8.91865	6.84951
 331	1	1	-0.007433	5.02007	8.50004	8.15962
 332	1	2	0.491356	4.14243	7.49483	8.54055
 333	1	3	-0.019445	6.12555	8.93554	8.94786
 334	1	3	-0.186861	6.12383	10.2652	9.40245
 335	1	3	-0.068374	7.21236	10.7806	10.1134
 336	1	3	-0.009193	7.24161	8.09109	9.20711
 337	1	3	0.220761	8.3655	8.63044	9.89884
 338	1	3	-0.402098	8.32775	9.96907	10.3532
 339	1	6	0.148422	5.27526	10.9108	9.18877
 340	1	6	0.146291	7.19469	11.8123	10.4605
 341	1	6	0.158981	3.72394	8.42724	4.17431
 342	1	6	0.141813	2.5123	6.34444	3.61665
 343	1	6	0.143633	2.69341	5.16954	7.81373
 344	1	5	-0.474465	4.08055	6.91128	9.61018
 345	1	5	-0.469737	5.44553	9.74239	6.21677
 346	1	7	-0.37887	7.24584	6.63306	8.70288
 347	1	9	0.115886	7.92421	5.98284	9.26795
 348	1	9	0.123845	7.54395	6.58845	7.6471
 349	1	9	0.138418	6.28015	6.13503	8.79122
 350	1	6	0.21348	9.17425	10.38	10.8994
 351	1	1	0.486064	9.73467	14.2946	14.385
 352	1	2	0.047133	8.36076	14.1135	14.2024
 353	1	3	0.001076	8.12229	12.6667	14.4273
 354	1	2	0.034038	10.3948	13.0921	14.6597
 355	1	3	0.050122	9.32492	12.0633	14.7187
 356	1	5	-0.383076	7.49531	14.9586	14.0445
 357	1	5	-0.380811	11.5731	12.9141	14.9233
 358	1	3	-0.001248	6.9124	11.9726	14.5062
 359	1	3	-0.036565	9.37857	10.7315	15.1371
 360	1	3	-0.208842	8.16303	10.0262	15.2711
 361	1	3	-0.065319	6.90941	10.6208	14.9456
 362	1	6	0.153391	5.99817	12.5198	14.3017
 363	1	6	0.155343	10.3298	10.2781	15.4064
 364	1	6	0.174191	8.21471	9.01429	15.6624
 365	1	7	-0.106637	5.56105	9.87047	15.181
 366	1	7	0.445763	4.57929	10.0601	13.9577
 367	1	8	-0.144255	3.57413	9.15507	13.9794
 368	1	8	-0.136881	5.22046	9.90327	12.7783
 369	1	8	-0.144092	3.98908	11.2747	13.9086
 370	1	7	0.367264	4.90318	10.4994	16.4725
 371	1	8	-0.12104	5.6374	10.2278	17.5756
 372	1	8	-0.122614	3.64198	10.0598	16.6877
 373	1	8	-0.112321	4.81253	11.8471	16.4287
 374	1	3	-0.021957	5.78645	8.32612	15.3158
 375	1	3	-0.054241	6.47304	7.62979	14.283
 376	1	3	-0.111709	6.54999	6.23026	14.3335
 377	1	3	-0.087244	5.2298	7.55264	16.3802
 378	1	3	-0.118951	5.30244	6.14798	16.4019
 379	1	3	-0.044875	5.95696	5.51017	15.3497
 380	1	2	0.461883	6.03935	4.06427	15.0241
 381	1	1	-0.007433	6.66069	4.0063	13.7864
 382	1	2	0.491356	7.07457	5.25903	13.3365
 383	1	3	-0.019445	6.71486	2.82336	12.9965
 384	1	3	-0.186861	7.44074	1.71239	13.4645
 385	1	3	-0.068374	7.55419	0.551703	12.6859
 386	1	3	-0.009193	6.04054	2.75665	11.7533
 387	1	3	0.220761	6.22807	1.6148	10.9344
 388	1	3	-0.402098	6.98364	0.519529	11.4055
 389	1	6	0.148422	7.91468	1.74548	14.443
 390	1	6	0.146291	8.11951	-0.302744	13.0605
 391	1	6	0.158981	4.81716	5.56902	17.1858
 392	1	6	0.141813	4.6836	8.00765	17.196
 393	1	6	0.143633	6.90584	8.15807	13.4351
 394	1	5	-0.474465	7.6718	5.53048	12.3062
 395	1	5	-0.469737	5.54931	3.15119	15.666
 396	1	7	-0.37887	5.13545	3.9172	11.2962
 397	1	9	0.115886	4.67358	4.4415	12.1419
 398	1	9	0.123845	4.28472	3.58776	10.6893
 399	1	9	0.138418	5.69495	4.66208	10.7152
 400	1	6	0.21348	7.13359	-0.353115	10.7742
 401	1	1	0.486064	5.78076	21.5723	5.41706
 402	1	2	0.047133	6.69655	20.9809	6.28417
 403	1	3	0.001076	7.73418	22.0129	6.51124
 404	1	2	0.034038	6.12068	22.8844	5.08309
 405	1	3	0.050122	7.39696	23.1439	5.79941
 406	1	5	-0.383076	6.67153	19.8633	6.77257
 407	1	5	-0.380811	5.51493	23.6695	4.37286
 408	1	3	-0.001248	8.89923	21.9445	7.27571
 409	1	3	-0.036565	8.21774	24.2752	5.81332
 410	1	3	-0.208842	9.40287	24.2299	6.58165
 411	1	3	-0.065319	9.75768	23.0728	7.33322
 412	1	6	0.153391	9.12944	21.0201	7.79985
 413	1	6	0.155343	7.94698	25.155	5.23359
 414	1	6	0.174191	10.0439	25.1059	6.5659
 415	1	7	-0.106637	11.074	22.9596	8.15315
 416	1	7	0.445763	11.6979	24.3471	8.57297
 417	1	8	-0.144255	10.7781	25.1775	9.11343
 418	1	8	-0.136881	12.2652	25.021	7.54751
 419	1	8	-0.144092	12.662	24.1886	9.50804
 420	1	7	0.367264	12.0992	22.2034	7.22479
 421	1	8	-0.12104	12.2182	22.8004	6.01678
 422	1	8	-0.122614	11.7037	20.9367	6.96338
 423	1	8	-0.112321	13.3411	22.1369	7.75428
 424	1	3	-0.021957	10.7307	22.2005	9.47156
 425	1	3	-0.054241	11.4158	21.0315	9.90157
 426	1	3	-0.111709	10.9793	20.3793	11.0626
 427	1	3	-0.087244	9.64902	22.6752	10.2679
 428	1	3	-0.118951	9.24106	22.0163	11.4447
 429	1	3	-0.044875	9.92441	20.8551	11.8133
 430	1	2	0.461883	9.70875	19.9321	12.9598
 431	1	1	-0.007433	10.6606	18.9326	12.8135
 432	1	2	0.491356	11.4698	19.1293	11.7026
 433	1	3	-0.019445	10.8122	17.8581	13.7331
 434	1	3	-0.186861	11.5091	18.1171	14.925
 435	1	3	-0.068374	11.6517	17.1239	15.8975
 436	1	3	-0.009193	10.2495	16.579	13.4923
 437	1	3	0.220761	10.3596	15.5779	14.4994
 438	1	3	-0.402098	11.0689	15.8689	15.6888
 439	1	6	0.148422	11.9389	19.0997	15.1025
 440	1	6	0.146291	12.1968	17.3342	16.8164
 441	1	6	0.158981	8.40893	22.3841	12.0422
 442	1	6	0.141813	9.09724	23.5603	9.96146
 443	1	6	0.143633	12.2533	20.6058	9.358
 444	1	5	-0.474465	12.3764	18.422	11.2995
 445	1	5	-0.469737	8.87961	20.0599	13.8445
 446	1	7	-0.37887	9.52474	16.3232	12.1632
 447	1	9	0.115886	10.06	16.7638	11.3138
 448	1	9	0.123845	8.51375	16.7535	12.1842
 449	1	9	0.138418	9.42215	15.2592	11.9235
 450	1	6	0.21348	11.1737	15.1069	16.4589
 451	1	1	0.486064	-0.409042	15.5693	4.07435
 452	1	2	0.047133	-0.817325	16.595	3.22541
 453	1	3	0.001076	-1.04967	15.9364	1.91912
 454	1	2	0.034038	-0.466636	14.3108	3.47717
 455	1	3	0.050122	-0.837823	14.5815	2.06279
 456	1	5	-0.383076	-0.817884	17.797	3.43444
 457	1	5	-0.380811	-0.122163	13.2374	3.94286
 458	1	3	-0.001248	-1.16423	16.5314	0.662758
 459	1	3	-0.036565	-0.790492	13.7385	0.948534
 460	1	3	-0.208842	-0.853637	14.3261	-0.33491
 461	1	3	-0.065319	-0.956671	15.7372	-0.497629
 462	1	6	0.153391	-1.21214	17.6166	0.608444
 463	1	6	0.155343	-0.596468	12.6755	1.0749
 464	1	6	0.174191	-0.720353	13.6705	-1.18983
 465	1	7	-0.106637	-0.613293	16.475	-1.83251
 466	1	7	0.445763	0.0579864	15.5653	-2.92739
 467	1	8	-0.144255	1.12869	14.8982	-2.43962
 468	1	8	-0.136881	0.52233	16.2973	-3.96483
 469	1	8	-0.144092	-0.787268	14.644	-3.44182
 470	1	7	0.367264	-1.96495	17.0569	-2.39543
 471	1	8	-0.12104	-2.46861	18.0245	-1.59628
 472	1	8	-0.122614	-2.91891	16.1021	-2.47278
 473	1	8	-0.112321	-1.84742	17.5906	-3.63186
 474	1	3	-0.021957	0.440311	17.561	-1.44455
 475	1	3	-0.054241	1.42857	17.2158	-0.483833
 476	1	3	-0.111709	2.11299	18.2349	0.1799
 477	1	3	-0.087244	0.353499	18.9207	-1.8579
 478	1	3	-0.118951	1.10829	19.9298	-1.22006
 479	1	3	-0.044875	1.9446	19.5595	-0.160031
 480	1	2	0.461883	2.56142	20.3928	0.909254
 481	1	1	-0.007433	2.9811	19.4897	1.87974
 482	1	2	0.491356	2.81669	18.1685	1.48494
 483	1	3	-0.019445	3.25836	19.8597	3.22559
 484	1	3	-0.186861	2.28246	19.5466	4.18968
 485	1	3	-0.068374	2.45616	19.8912	5.5324
 486	1	3	-0.009193	4.44318	20.5332	3.60651
 487	1	3	0.220761	4.6081	20.9033	4.96847
 488	1	3	-0.402098	3.61551	20.5724	5.91842
 489	1	6	0.148422	1.37384	19.0271	3.89745
 490	1	6	0.146291	1.69183	19.629	6.2645
 491	1	6	0.158981	0.957892	20.9805	-1.46134
 492	1	6	0.141813	-0.363619	19.231	-2.61028
 493	1	6	0.143633	1.53025	16.197	-0.115544
 494	1	5	-0.474465	2.97334	17.1595	2.15337
 495	1	5	-0.469737	2.51022	21.6079	0.988508
 496	1	7	-0.37887	5.51468	20.8479	2.5537
 497	1	9	0.115886	6.52635	20.8934	2.97367
 498	1	9	0.123845	5.30773	21.8154	2.07359
 499	1	9	0.138418	5.5522	20.0882	1.76378
 500	1	6	0.21348	3.75333	20.8321	6.9658
 501	1	1	0.486064	-8.78687	18.8828	11.3492
 502	1	2	0.047133	-7.95154	17.799	11.0687
 503	1	3	0.001076	-7.21691	17.5328	12.3227
 504	1	2	0.034038	-8.70013	19.2842	12.6886
 505	1	3	0.050122	-7.67642	18.3893	13.297
 506	1	5	-0.383076	-7.7589	17.2351	10.0037
 507	1	5	-0.380811	-9.21464	20.2496	13.2286
 508	1	3	-0.001248	-6.12401	16.6924	12.5332
 509	1	3	-0.036565	-7.10482	18.3908	14.5737
 510	1	3	-0.208842	-6.01933	17.5187	14.8234
 511	1	3	-0.065319	-5.48386	16.6842	13.7987
 512	1	6	0.153391	-5.74663	16.1126	11.6951
 513	1	6	0.155343	-7.46862	19.0773	15.3353
 514	1	6	0.174191	-5.57742	17.5457	15.8144
 515	1	7	-0.106637	-4.1714	15.8552	13.9458
 516	1	7	0.445763	-4.5618	14.3261	13.8594
 517	1	8	-0.144255	-3.52603	13.4939	14.1072
 518	1	8	-0.136881	-5.0415	13.9794	12.6444
 519	1	8	-0.144092	-5.5356	14.0139	14.7432
 520	1	7	0.367264	-3.39612	16.0942	15.3
 521	1	8	-0.12104	-4.06784	15.6358	16.3798
 522	1	8	-0.122614	-3.1373	17.4015	15.5284
 523	1	8	-0.112321	-2.18806	15.4871	15.297
 524	1	3	-0.021957	-3.23808	16.3427	12.7983
 525	1	3	-0.054241	-2.57176	15.4676	11.8974
 526	1	3	-0.111709	-1.82445	16.0235	10.8481
 527	1	3	-0.087244	-3.07703	17.7467	12.6163
 528	1	3	-0.118951	-2.30464	18.2824	11.57
 529	1	3	-0.044875	-1.69683	17.3885	10.6891
 530	1	2	0.461883	-0.894113	17.6521	9.46899
 531	1	1	-0.007433	-0.597496	16.4028	8.94877
 532	1	2	0.491356	-1.10217	15.3663	9.72422
 533	1	3	-0.019445	0.113532	16.2334	7.73184
 534	1	3	-0.186861	1.49868	16.4756	7.73827
 535	1	3	-0.068374	2.24208	16.3955	6.55604
 536	1	3	-0.009193	-0.555834	15.9163	6.5244
 537	1	3	0.220761	0.203696	15.8266	5.3306
 538	1	3	-0.402098	1.59478	16.0712	5.3582
 539	1	6	0.148422	2.00103	16.7469	8.66381
 540	1	6	0.146291	3.31189	16.6013	6.5657
 541	1	6	0.158981	-2.19986	19.3569	11.4318
 542	1	6	0.141813	-3.57569	18.4434	13.285
 543	1	6	0.143633	-2.63855	14.3862	11.9697
 544	1	5	-0.474465	-1.02122	14.1672	9.52387
 545	1	5	-0.469737	-0.608633	18.7455	9.01083
 546	1	7	-0.37887	-2.07519	15.6888	6.52898
 547	1	9	0.115886	-2.59129	16.4046	7.18101
 548	1	9	0.123845	-2.3117	14.6783	6.89053
 549	1	9	0.138418	-2.53914	15.8019	5.54251
 550	1	6	0.21348	2.178	16.0283	4.43858
 551	1	1	0.486064	-10.3673	25.6782	6.49531
 552	1	2	0.047133	-11.5444	26.1447	5.91017
 553	1	3	0.001076	-12.3572	26.6402	7.03444
 554	1	2	0.034038	-10.2526	26.08	7.83162
 555	1	3	0.050122	-11.5747	26.6884	8.1623
 556	1	5	-0.383076	-11.9109	26.0806	4.74792
 557	1	5	-0.380811	-9.36069	25.8221	8.62289
 558	1	3	-0.001248	-13.7468	26.6708	7.10829
 559	1	3	-0.036565	-12.1358	27.0402	9.39228
 560	1	3	-0.208842	-13.5418	27.1886	9.46713
 561	1	3	-0.065319	-14.3871	26.8522	8.36339
 562	1	6	0.153391	-14.2623	26.3625	6.21234
 563	1	6	0.155343	-11.5145	27.0862	10.2847
 564	1	6	0.174191	-13.9499	27.3899	10.4501
 565	1	7	-0.106637	-15.8497	26.3012	8.56063
 566	1	7	0.445763	-16.799	26.7925	7.37736
 567	1	8	-0.144255	-16.4761	26.3257	6.15328
 568	1	8	-0.136881	-16.7819	28.1389	7.2674
 569	1	8	-0.144092	-18.0897	26.4211	7.52227
 570	1	7	0.367264	-16.5342	26.7725	9.91337
 571	1	8	-0.12104	-17.7942	26.307	10.0566
 572	1	8	-0.122614	-15.9174	26.3403	11.0336
 573	1	8	-0.112321	-16.5884	28.1198	10.003
 574	1	3	-0.021957	-15.6213	24.7538	8.61271
 575	1	3	-0.054241	-14.6524	24.2602	9.52644
 576	1	3	-0.111709	-14.1757	22.9581	9.4073
 577	1	3	-0.087244	-16.1582	23.828	7.66981
 578	1	3	-0.118951	-15.6528	22.5099	7.55725
 579	1	3	-0.044875	-14.6272	22.1104	8.42457
 580	1	2	0.461883	-13.7012	20.9413	8.37329
 581	1	1	-0.007433	-12.7086	21.2182	9.31099
 582	1	2	0.491356	-12.9688	22.3719	10.0332
 583	1	3	-0.019445	-11.3999	20.6625	9.27538
 584	1	3	-0.186861	-10.6153	20.9964	8.15915
 585	1	3	-0.068374	-9.2665	20.6501	8.09779
 586	1	3	-0.009193	-10.8379	19.9386	10.3568
 587	1	3	0.220761	-9.4547	19.6035	10.3085
 588	1	3	-0.402098	-8.68832	19.9784	9.17783
 589	1	6	0.148422	-11.0517	21.5445	7.33205
 590	1	6	0.146291	-8.67469	20.9124	7.22117
 591	1	6	0.158981	-15.9896	21.8453	6.76395
 592	1	6	0.141813	-16.9178	24.13	6.9575
 593	1	6	0.143633	-14.1657	24.8966	10.2556
 594	1	5	-0.474465	-12.2382	22.9447	10.8227
 595	1	5	-0.469737	-13.6936	20.078	7.51353
 596	1	7	-0.37887	-11.7311	19.5477	11.5398
 597	1	9	0.115886	-11.3827	18.6455	12.0557
 598	1	9	0.123845	-12.7599	19.339	11.2223
 599	1	9	0.138418	-11.7684	20.3605	12.2795
 600	1	6	0.21348	-7.63392	19.7154	9.1195
 601	1	1	0.486064	-17.0696	21.5644	-3.68129
 602	1	2	0.047133	-16.4876	21.6294	-2.415
 603	1	3	0.001076	-15.5256	20.4936	-2.37116
 604	1	2	0.034038	-16.5768	20.5166	-4.4522
 605	1	3	0.050122	-15.5845	19.839	-3.58467
 606	1	5	-0.383076	-16.7238	22.4177	-1.51492
 607	1	5	-0.380811	-16.909	20.1831	-5.57775
 608	1	3	-0.001248	-14.6796	20.0535	-1.34214
 609	1	3	-0.036565	-14.8115	18.7075	-3.83692
 610	1	3	-0.208842	-13.9475	18.2554	-2.82029
 611	1	3	-0.065319	-13.8458	18.9207	-1.56211
 612	1	6	0.153391	-14.6651	20.5936	-0.398551
 613	1	6	0.155343	-14.8847	18.1937	-4.79394
 614	1	6	0.174191	-13.3652	17.3695	-3.04655
 615	1	7	-0.106637	-12.8933	18.4264	-0.420255
 616	1	7	0.445763	-13.8205	17.7679	0.672335
 617	1	8	-0.144255	-14.486	18.706	1.38323
 618	1	8	-0.136881	-13.1581	16.9987	1.56476
 619	1	8	-0.144092	-14.7586	16.9705	0.111988
 620	1	7	0.367264	-11.8333	17.3671	-0.907435
 621	1	8	-0.12104	-10.9015	17.096	0.0344278
 622	1	8	-0.122614	-11.1454	17.8212	-1.98016
 623	1	8	-0.112321	-12.3864	16.1787	-1.24139
 624	1	3	-0.021957	-12.0657	19.6228	0.141251
 625	1	3	-0.054241	-11.5306	19.6123	1.46071
 626	1	3	-0.111709	-10.7514	20.6954	1.89197
 627	1	3	-0.087244	-11.7465	20.7256	-0.701591
 628	1	3	-0.118951	-10.9974	21.8234	-0.235823
 629	1	3	-0.044875	-10.5151	21.7795	1.07422
 630	1	2	0.461883	-9.7388	22.7848	1.84165
 631	1	1	-0.007433	-9.56277	22.2398	3.10596
 632	1	2	0.491356	-10.0958	20.9598	3.20582
 633	1	3	-0.019445	-9.05137	23.0232	4.18129
 634	1	3	-0.186861	-7.67783	23.3177	4.21316
 635	1	3	-0.068374	-7.1802	24.2997	5.07922
 636	1	3	-0.009193	-9.94208	23.6944	5.0521
 637	1	3	0.220761	-9.46088	24.7995	5.81624
 638	1	3	-0.402098	-8.07241	25.0623	5.8469
 639	1	6	0.148422	-6.99686	22.8099	3.53436
 640	1	6	0.146291	-6.11334	24.5189	5.09711
 641	1	6	0.158981	-10.7898	22.6805	-0.873378
 642	1	6	0.141813	-12.0806	20.7444	-1.73532
 643	1	6	0.143633	-11.6898	18.786	2.14595
 644	1	5	-0.474465	-10.0914	20.2203	4.17437
 645	1	5	-0.469737	-9.40688	23.8896	1.44714
 646	1	7	-0.37887	-11.4065	23.2188	5.1076
 647	1	9	0.115886	-11.4806	22.1268	5.14062
 648	1	9	0.123845	-11.9694	23.5585	4.22793
 649	1	9	0.138418	-11.9412	23.5599	6.00067
 650	1	6	0.21348	-7.68537	25.8717	6.46401