pySIMM System Object

752 atoms
826 bonds
1440 angles
2216 dihedrals
240 impropers

9 atom types
11 bond types
18 angle types
7 dihedral types
4 improper types

-145.552099 145.552099 xlo xhi
-145.552099 145.552099 ylo yhi
-145.552099 145.552099 zlo zhi

Masses

   1	14.01	# n
   2	12.01	# c
   3	12.01	# ca
   4	1.008	# hn
   5	16.0	# o
   6	1.008	# ha
   7	12.01	# c3
   8	19.0	# f
   9	1.008	# hc

Pair Coeffs

   1	0.17	3.249998523775958	# n
   2	0.086	3.3996695084235347	# c
   3	0.086	3.3996695084235347	# ca
   4	0.0157	1.069078461768407	# hn
   5	0.21	2.959921901149463	# o
   6	0.015	2.59964245953351	# ha
   7	0.1094	3.3996695084235347	# c3
   8	0.061	3.1181455134911875	# f
   9	0.0157	2.649532787749369	# hc

Bond Coeffs

   1	427.6	1.3789	# c,n
   2	461.1	1.3984	# ca,ca
   3	345.9	1.4906	# c,ca
   4	345.8	1.086	# ca,ha
   5	637.7	1.2183	# c,o
   6	321.0	1.5156	# c3,ca
   7	300.9	1.5375	# c3,c3
   8	356.9	1.3497	# c3,f
   9	384.2	1.4121	# ca,n
  10	330.6	1.0969	# c3,hc
  11	403.2	1.0129	# hn,n

Angle Coeffs

   1	48.18	119.88	# ca,ca,ha
   2	63.15	112.07	# c3,c3,ca
   3	70.89	107.36	# f,c3,f
   4	67.87	120.19	# ca,ca,n
   5	68.72	122.6	# ca,c,o
   6	63.56	112.24	# ca,c3,ca
   7	63.82	123.71	# c,n,ca
   8	74.22	123.05	# n,c,o
   9	48.33	117.55	# c,n,hn
  10	67.68	115.25	# ca,c,n
  11	64.28	120.33	# c,ca,ca
  12	66.11	109.24	# c3,c3,f
  13	46.8	110.47	# ca,c3,hc
  14	39.4	107.58	# hc,c3,hc
  15	66.62	120.02	# ca,ca,ca
  16	63.53	120.77	# c3,ca,ca
  17	62.86	111.51	# c3,c3,c3
  18	63.74	127.08	# c,n,c

Dihedral Coeffs

   1	1	2.5	2	180	# X,c,n,X
   2	1	0.45	2	180	# X,ca,n,X
   3	2	2.5	2	180	2.0	1	0	# hn,n,c,o
   4	1	3.625	2	180	# X,ca,ca,X
   5	1	1.0	2	180	# X,c,ca,X
   6	1	0.15555555555555556	3	0	# X,c3,c3,X
   7	1	0.0	2	0	# X,c3,ca,X

Improper Coeffs

   1	1.1	-1	2	# ca,ca,ca,c3
   2	10.5	-1	2	# c,X,X,o
   3	1.1	-1	2	# ca,X,X,ha
   4	1.1	-1	2	# n,X,X,hn

Atoms

   1	1	1	0.486064	-55.354	-4.81214	8.56344
   2	1	2	0.047133	-56.6675	-4.9044	8.10497
   3	1	3	0.001076	-57.5107	-4.55413	9.27741
   4	1	2	0.034038	-55.2683	-4.35322	9.87597
   5	1	3	0.050122	-56.6765	-4.21933	10.3244
   6	1	5	-0.383076	-57.0637	-5.31482	7.02711
   7	1	5	-0.380811	-54.2737	-4.23412	10.572
   8	1	3	-0.001248	-58.8942	-4.68054	9.45389
   9	1	3	-0.036565	-57.1817	-3.96678	11.6003
  10	1	3	-0.208842	-58.5713	-4.09316	11.8014
  11	1	3	-0.065319	-59.4504	-4.46632	10.7432
  12	1	6	0.153391	-59.5069	-5.01034	8.6182
  13	1	6	0.155343	-56.5066	-3.74135	12.4234
  14	1	6	0.174191	-58.9336	-3.94748	12.8134
  15	1	7	-0.106637	-60.9576	-4.7883	10.977
  16	1	7	0.445763	-61.0713	-6.36313	10.9828
  17	1	8	-0.144255	-60.8903	-6.88259	9.74726
  18	1	8	-0.136881	-62.2622	-6.81921	11.4319
  19	1	8	-0.144092	-60.1265	-6.9277	11.769
  20	1	7	0.367264	-61.5256	-4.23432	12.339
  21	1	8	-0.12104	-61.058	-4.89513	13.4222
  22	1	8	-0.122614	-62.8746	-4.32062	12.3916
  23	1	8	-0.112321	-61.2314	-2.92506	12.5083
  24	1	3	-0.021957	-61.8031	-4.11037	9.86119
  25	1	3	-0.054241	-62.9253	-4.74617	9.26639
  26	1	3	-0.111709	-63.702	-4.03144	8.3486
  27	1	3	-0.087244	-61.5187	-2.76461	9.49339
  28	1	3	-0.118951	-62.3163	-2.06197	8.56513
  29	1	3	-0.044875	-63.4139	-2.72656	8.0082
  30	1	2	0.461883	-64.4486	-2.25831	7.0451
  31	1	1	-0.007433	-65.3027	-3.3385	6.86709
  32	1	2	0.491356	-64.9264	-4.44365	7.61561
  33	1	3	-0.019445	-66.4245	-3.33026	5.99669
  34	1	3	-0.186861	-67.6606	-2.85421	6.47264
  35	1	3	-0.068374	-68.7911	-2.84748	5.64171
  36	1	3	-0.009193	-66.3159	-3.81288	4.67413
  37	1	3	0.220761	-67.455	-3.79462	3.8443
  38	1	3	-0.402098	-68.685	-3.31528	4.32349
  39	1	6	0.148422	-67.7461	-2.49238	7.49375
  40	1	6	0.146291	-69.7439	-2.48168	6.02034
  41	1	6	0.158981	-62.1028	-1.02747	8.30212
  42	1	6	0.141813	-60.6839	-2.2426	9.95522
  43	1	6	0.143633	-63.2277	-5.75882	9.5118
  44	1	5	-0.474465	-65.4641	-5.53602	7.6693
  45	1	5	-0.469737	-64.5124	-1.1546	6.53148
  46	1	7	-0.37887	-64.9918	-4.36019	4.14288
  47	1	9	0.115886	-64.6623	-5.22804	4.72913
  48	1	9	0.123845	-64.2032	-3.5978	4.18075
  49	1	9	0.138418	-65.0792	-4.68927	3.09991
  50	1	6	0.21348	-69.5519	-3.31415	3.66817
  51	1	1	0.486064	-43.5443	-3.0913	-2.33117
  52	1	2	0.047133	-44.7406	-2.41433	-2.55175
  53	1	3	0.001076	-45.743	-3.11089	-1.71406
  54	1	2	0.034038	-43.6789	-4.15362	-1.43771
  55	1	3	0.050122	-45.1161	-4.14322	-1.04758
  56	1	5	-0.383076	-44.9422	-1.44215	-3.25954
  57	1	5	-0.380811	-42.8231	-4.93208	-1.05091
  58	1	3	-0.001248	-47.106	-2.84326	-1.56119
  59	1	3	-0.036565	-45.8305	-4.97077	-0.176824
  60	1	3	-0.208842	-47.2091	-4.71614	-0.00252037
  61	1	3	-0.065319	-47.8711	-3.65132	-0.679295
  62	1	6	0.153391	-47.5294	-2.02425	-2.13225
  63	1	6	0.155343	-45.3312	-5.78638	0.342164
  64	1	6	0.174191	-47.772	-5.36493	0.665749
  65	1	7	-0.106637	-49.4045	-3.45273	-0.475905
  66	1	7	0.445763	-49.9263	-2.03548	-0.927122
  67	1	8	-0.144255	-51.1953	-1.8127	-0.51607
  68	1	8	-0.136881	-49.921	-1.86575	-2.26847
  69	1	8	-0.144092	-49.1792	-1.04091	-0.395855
  70	1	7	0.367264	-50.1073	-4.56084	-1.34911
  71	1	8	-0.12104	-49.6051	-4.59614	-2.60465
  72	1	8	-0.122614	-51.4411	-4.38145	-1.47707
  73	1	8	-0.112321	-49.9186	-5.79658	-0.833052
  74	1	3	-0.021957	-49.7242	-3.56125	1.04353
  75	1	3	-0.054241	-50.8739	-4.23303	1.5392
  76	1	3	-0.111709	-51.0945	-4.26818	2.9214
  77	1	3	-0.087244	-48.862	-2.92236	1.9795
  78	1	3	-0.118951	-49.0989	-2.97621	3.36785
  79	1	3	-0.044875	-50.2311	-3.66471	3.81171
  80	1	2	0.461883	-50.7191	-3.9316	5.19092
  81	1	1	-0.007433	-51.8596	-4.70591	5.03479
  82	1	2	0.491356	-52.1689	-4.93719	3.70196
  83	1	3	-0.019445	-52.5435	-5.31587	6.11926
  84	1	3	-0.186861	-52.1108	-6.59343	6.51561
  85	1	3	-0.068374	-52.7238	-7.2573	7.58224
  86	1	3	-0.009193	-53.6161	-4.6803	6.79143
  87	1	3	0.220761	-54.2448	-5.36362	7.86396
  88	1	3	-0.402098	-53.7863	-6.6421	8.25309
  89	1	6	0.148422	-51.2883	-7.0758	5.99323
  90	1	6	0.146291	-52.3764	-8.24429	7.88355
  91	1	6	0.158981	-48.4232	-2.50314	4.07783
  92	1	6	0.141813	-47.9882	-2.37913	1.62843
  93	1	6	0.143633	-51.5903	-4.72749	0.891515
  94	1	5	-0.474465	-53.0774	-5.60941	3.24683
  95	1	5	-0.469737	-50.1746	-3.59298	6.22741
  96	1	7	-0.37887	-54.0919	-3.2924	6.34402
  97	1	9	0.115886	-53.2631	-2.67025	5.9846
  98	1	9	0.123845	-54.5605	-2.72218	7.15492
  99	1	9	0.138418	-54.8236	-3.37974	5.52884
 100	1	6	0.21348	-54.2589	-7.16047	9.08453
 101	1	1	0.486064	-33.1371	-3.51902	-12.0424
 102	1	2	0.047133	-33.9375	-4.59998	-11.6501
 103	1	3	0.001076	-35.3304	-4.19218	-11.9579
 104	1	2	0.034038	-33.8945	-2.47994	-12.5942
 105	1	3	0.050122	-35.3037	-2.91371	-12.4667
 106	1	5	-0.383076	-33.6276	-5.59113	-11.0114
 107	1	5	-0.380811	-33.521	-1.39728	-13.0174
 108	1	3	-0.001248	-36.532	-4.8733	-11.7322
 109	1	3	-0.036565	-36.4793	-2.19401	-12.6722
 110	1	3	-0.208842	-37.7	-2.83676	-12.3885
 111	1	3	-0.065319	-37.7602	-4.19935	-11.977
 112	1	6	0.153391	-36.4733	-5.89264	-11.3678
 113	1	6	0.155343	-36.4415	-1.16046	-13.0097
 114	1	6	0.174191	-38.6104	-2.25613	-12.5058
 115	1	7	-0.106637	-39.1583	-4.8684	-11.8113
 116	1	7	0.445763	-39.8617	-4.84133	-13.2345
 117	1	8	-0.144255	-40.1557	-3.59675	-13.6725
 118	1	8	-0.136881	-41.0293	-5.52122	-13.2713
 119	1	8	-0.144092	-39.0673	-5.37588	-14.1891
 120	1	7	0.367264	-39.1041	-6.38411	-11.3509
 121	1	8	-0.12104	-38.5186	-7.18757	-12.2669
 122	1	8	-0.122614	-40.3381	-6.88271	-11.114
 123	1	8	-0.112321	-38.4273	-6.57545	-10.1975
 124	1	3	-0.021957	-39.9091	-4.07145	-10.7052
 125	1	3	-0.054241	-39.3043	-3.94966	-9.42514
 126	1	3	-0.111709	-40.0022	-3.31023	-8.3947
 127	1	3	-0.087244	-41.1959	-3.48927	-10.8963
 128	1	3	-0.118951	-41.8548	-2.79588	-9.86073
 129	1	3	-0.044875	-41.2309	-2.72776	-8.61277
 130	1	2	0.461883	-41.7249	-2.18257	-7.32377
 131	1	1	-0.007433	-40.7866	-2.56773	-6.37314
 132	1	2	0.491356	-39.6901	-3.20327	-6.94312
 133	1	3	-0.019445	-40.9831	-2.4056	-4.97122
 134	1	3	-0.186861	-40.0921	-1.59029	-4.24943
 135	1	3	-0.068374	-40.297	-1.33815	-2.88639
 136	1	3	-0.009193	-42.0864	-3.00585	-4.31235
 137	1	3	0.220761	-42.3277	-2.69274	-2.95205
 138	1	3	-0.402098	-41.4227	-1.87217	-2.24481
 139	1	6	0.148422	-39.2378	-1.14105	-4.75059
 140	1	6	0.146291	-39.6046	-0.698789	-2.34059
 141	1	6	0.158981	-42.8431	-2.36423	-10.0076
 142	1	6	0.141813	-41.7217	-3.57459	-11.8401
 143	1	6	0.143633	-38.3292	-4.37875	-9.21061
 144	1	5	-0.474465	-38.7182	-3.6756	-6.38009
 145	1	5	-0.469737	-42.772	-1.58184	-7.15491
 146	1	7	-0.37887	-43.0265	-3.96095	-5.06397
 147	1	9	0.115886	-43.4373	-4.74255	-4.41333
 148	1	9	0.123845	-42.5136	-4.49602	-5.87229
 149	1	9	0.138418	-43.8688	-3.41095	-5.50749
 150	1	6	0.21348	-41.6078	-1.63168	-1.20047
 151	1	1	0.486064	-19.4085	-10.8269	-6.95532
 152	1	2	0.047133	-20.0333	-9.80303	-6.24918
 153	1	3	0.001076	-21.2646	-9.50616	-7.01181
 154	1	2	0.034038	-20.122	-11.2279	-8.08301
 155	1	3	0.050122	-21.3289	-10.3588	-8.09418
 156	1	5	-0.383076	-19.6747	-9.26196	-5.21676
 157	1	5	-0.380811	-19.8317	-12.0861	-8.89969
 158	1	3	-0.001248	-22.2596	-8.56457	-6.74665
 159	1	3	-0.036565	-22.4224	-10.3338	-8.96277
 160	1	3	-0.208842	-23.4521	-9.40354	-8.70285
 161	1	3	-0.065319	-23.3785	-8.48701	-7.61453
 162	1	6	0.153391	-22.1548	-7.94133	-5.86496
 163	1	6	0.155343	-22.4788	-11.0293	-9.79727
 164	1	6	0.174191	-24.3235	-9.41214	-9.35372
 165	1	7	-0.106637	-24.5515	-7.50782	-7.33006
 166	1	7	0.445763	-25.5162	-8.25417	-6.33307
 167	1	8	-0.144255	-26.1236	-9.30227	-6.93407
 168	1	8	-0.136881	-26.4803	-7.45286	-5.82547
 169	1	8	-0.144092	-24.8538	-8.76677	-5.27103
 170	1	7	0.367264	-24.078	-6.1521	-6.67105
 171	1	8	-0.12104	-23.7676	-6.25766	-5.35997
 172	1	8	-0.122614	-25.0327	-5.19674	-6.7539
 173	1	8	-0.112321	-22.9839	-5.65347	-7.28996
 174	1	3	-0.021957	-25.2312	-7.10557	-8.67337
 175	1	3	-0.054241	-26.6404	-7.05434	-8.82301
 176	1	3	-0.111709	-27.1804	-6.49521	-9.98309
 177	1	3	-0.087244	-24.4262	-6.62527	-9.74584
 178	1	3	-0.118951	-24.9926	-6.05215	-10.9042
 179	1	3	-0.044875	-26.3872	-5.97878	-10.9854
 180	1	2	0.461883	-27.2518	-5.1692	-11.8894
 181	1	1	-0.007433	-28.5113	-5.19902	-11.3012
 182	1	2	0.491356	-28.5766	-6.06405	-10.2196
 183	1	3	-0.019445	-29.464	-4.15387	-11.4224
 184	1	3	-0.186861	-29.1173	-2.93827	-10.8086
 185	1	3	-0.068374	-30.0637	-1.92935	-10.6385
 186	1	3	-0.009193	-30.7737	-4.36674	-11.9153
 187	1	3	0.220761	-31.7561	-3.35788	-11.6972
 188	1	3	-0.402098	-31.378	-2.15289	-11.0548
 189	1	6	0.148422	-28.1136	-2.79047	-10.4172
 190	1	6	0.146291	-29.7889	-0.998931	-10.1444
 191	1	6	0.158981	-24.3685	-5.59787	-11.6714
 192	1	6	0.141813	-23.3432	-6.62988	-9.65057
 193	1	6	0.143633	-27.3295	-7.33881	-8.03546
 194	1	5	-0.474465	-29.5033	-6.22174	-9.44408
 195	1	5	-0.469737	-26.8608	-4.43026	-12.7763
 196	1	7	-0.37887	-31.085	-5.6831	-12.6374
 197	1	9	0.115886	-31.9062	-5.585	-13.3572
 198	1	9	0.123845	-31.3616	-6.46593	-11.9172
 199	1	9	0.138418	-30.2216	-6.04943	-13.2063
 200	1	6	0.21348	-32.1143	-1.37135	-10.8782
 201	1	1	0.486064	-4.99433	-3.91447	-6.22229
 202	1	2	0.047133	-5.13001	-4.92969	-5.27422
 203	1	3	0.001076	-6.31891	-5.71536	-5.70107
 204	1	2	0.034038	-5.97251	-3.99425	-7.22153
 205	1	3	0.050122	-6.82241	-5.16026	-6.85699
 206	1	5	-0.383076	-4.49673	-5.09224	-4.24507
 207	1	5	-0.380811	-6.17338	-3.2249	-8.14711
 208	1	3	-0.001248	-6.92387	-6.82025	-5.09319
 209	1	3	-0.036565	-7.97014	-5.68033	-7.46768
 210	1	3	-0.208842	-8.59402	-6.80049	-6.87194
 211	1	3	-0.065319	-8.09135	-7.38596	-5.67604
 212	1	6	0.153391	-6.46133	-7.22218	-4.19914
 213	1	6	0.155343	-8.35714	-5.23392	-8.38156
 214	1	6	0.174191	-9.46484	-7.23062	-7.3636
 215	1	7	-0.106637	-8.73383	-8.69155	-5.11873
 216	1	7	0.445763	-8.04113	-9.87287	-5.89962
 217	1	8	-0.144255	-8.32419	-11.0901	-5.38214
 218	1	8	-0.136881	-6.6934	-9.76233	-5.89759
 219	1	8	-0.144092	-8.40704	-9.88464	-7.2023
 220	1	7	0.367264	-8.49069	-8.88641	-3.57083
 221	1	8	-0.12104	-7.23406	-9.27724	-3.26226
 222	1	8	-0.122614	-9.31472	-9.82366	-3.04859
 223	1	8	-0.112321	-8.72635	-7.74612	-2.88265
 224	1	3	-0.021957	-10.2841	-8.66415	-5.3001
 225	1	3	-0.054241	-11.0059	-9.77699	-5.80883
 226	1	3	-0.111709	-12.4014	-9.74479	-5.81071
 227	1	3	-0.087244	-11.031	-7.54779	-4.82547
 228	1	3	-0.118951	-12.4447	-7.54765	-4.81193
 229	1	3	-0.044875	-13.108	-8.67783	-5.3054
 230	1	2	0.461883	-14.5556	-9.03023	-5.33976
 231	1	1	-0.007433	-14.6214	-10.3084	-5.89564
 232	1	2	0.491356	-13.3625	-10.7986	-6.21588
 233	1	3	-0.019445	-15.8116	-11.0923	-5.99215
 234	1	3	-0.186861	-15.8185	-12.3614	-5.37896
 235	1	3	-0.068374	-16.9727	-13.1531	-5.36272
 236	1	3	-0.009193	-16.9826	-10.6221	-6.63682
 237	1	3	0.220761	-18.1726	-11.3854	-6.53519
 238	1	3	-0.402098	-18.1578	-12.6524	-5.91374
 239	1	6	0.148422	-14.9164	-12.744	-4.90688
 240	1	6	0.146291	-16.9536	-14.1322	-4.88638
 241	1	6	0.158981	-13.0078	-6.71154	-4.4008
 242	1	6	0.141813	-10.5096	-6.68531	-4.41771
 243	1	6	0.143633	-10.5298	-10.684	-6.16291
 244	1	5	-0.474465	-13.069	-11.8885	-6.6758
 245	1	5	-0.469737	-15.4623	-8.35304	-4.88686
 246	1	7	-0.37887	-16.9772	-9.30847	-7.43191
 247	1	9	0.115886	-17.6266	-9.35789	-8.31507
 248	1	9	0.123845	-15.9799	-9.05939	-7.81288
 249	1	9	0.138418	-17.3158	-8.46985	-6.80687
 250	1	6	0.21348	-19.0706	-13.2409	-5.84813
 251	1	1	0.486064	7.72043	4.69067	-1.222
 252	1	2	0.047133	7.93698	3.31747	-1.32754
 253	1	3	0.001076	6.84534	2.80631	-2.18996
 254	1	2	0.034038	6.58618	5.10106	-1.93721
 255	1	3	0.050122	6.03044	3.85447	-2.54963
 256	1	5	-0.383076	8.83673	2.65118	-0.8425
 257	1	5	-0.380811	6.15271	6.2322	-2.08391
 258	1	3	-0.001248	6.6191	1.50507	-2.63993
 259	1	3	-0.036565	4.9186	3.63411	-3.37706
 260	1	3	-0.208842	4.6573	2.31326	-3.82945
 261	1	3	-0.065319	5.50144	1.22221	-3.47341
 262	1	6	0.153391	7.33305	0.748004	-2.33754
 263	1	6	0.155343	4.2794	4.46693	-3.66286
 264	1	6	0.174191	3.79506	2.15115	-4.47106
 265	1	7	-0.106637	5.27199	-0.237227	-3.99155
 266	1	7	0.445763	6.5222	-0.620573	-4.89094
 267	1	8	-0.144255	6.30729	-1.75069	-5.59972
 268	1	8	-0.136881	7.67614	-0.814396	-4.21599
 269	1	8	-0.144092	6.82748	0.363438	-5.76781
 270	1	7	0.367264	5.22552	-1.21398	-2.73996
 271	1	8	-0.12104	6.39157	-1.38411	-2.08115
 272	1	8	-0.122614	4.83065	-2.45924	-3.08741
 273	1	8	-0.112321	4.3815	-0.748836	-1.79089
 274	1	3	-0.021957	3.93597	-0.408397	-4.83831
 275	1	3	-0.054241	2.72218	-0.907844	-4.26814
 276	1	3	-0.111709	1.60703	-1.17686	-5.08081
 277	1	3	-0.087244	3.89847	-0.13936	-6.24311
 278	1	3	-0.118951	2.76132	-0.399306	-7.04289
 279	1	3	-0.044875	1.62124	-0.932652	-6.43363
 280	1	2	0.461883	0.26423	-1.23525	-6.98233
 281	1	1	-0.007433	-0.50721	-1.63113	-5.89303
 282	1	2	0.491356	0.243247	-1.6691	-4.72195
 283	1	3	-0.019445	-1.93942	-1.67501	-5.9089
 284	1	3	-0.186861	-2.59651	-0.444997	-5.72619
 285	1	3	-0.068374	-3.99119	-0.367223	-5.69415
 286	1	3	-0.009193	-2.70261	-2.86622	-6.0665
 287	1	3	0.220761	-4.12931	-2.78284	-6.06196
 288	1	3	-0.402098	-4.74927	-1.52849	-5.86627
 289	1	6	0.148422	-2.0175	0.465701	-5.59738
 290	1	6	0.146291	-4.4815	0.592656	-5.54067
 291	1	6	0.158981	2.76581	-0.189581	-8.11116
 292	1	6	0.141813	4.75883	0.267937	-6.75784
 293	1	6	0.143633	2.61182	-1.11974	-3.21242
 294	1	5	-0.474465	-0.145828	-1.93513	-3.59887
 295	1	5	-0.469737	-0.106215	-1.02923	-8.12512
 296	1	7	-0.37887	-1.97417	-4.20729	-6.19833
 297	1	9	0.115886	-1.0858	-4.12667	-6.83665
 298	1	9	0.123845	-2.59707	-4.9988	-6.63043
 299	1	9	0.138418	-1.64594	-4.55685	-5.20887
 300	1	6	0.21348	-5.83523	-1.45564	-5.85626
 301	1	1	0.486064	5.80298	14.1576	11.6988
 302	1	2	0.047133	7.13686	13.8152	11.4299
 303	1	3	0.001076	7.14336	13.2794	10.0632
 304	1	2	0.034038	5.00366	14.0219	10.5479
 305	1	3	0.050122	5.8799	13.3629	9.53373
 306	1	5	-0.383076	8.07992	13.6757	12.1899
 307	1	5	-0.380811	3.80453	14.2153	10.4242
 308	1	3	-0.001248	8.14802	12.5052	9.49484
 309	1	3	-0.036565	5.56077	12.6546	8.36636
 310	1	3	-0.208842	6.56273	11.8405	7.77781
 311	1	3	-0.065319	7.87122	11.7449	8.33542
 312	1	6	0.153391	9.07408	12.4112	10.0495
 313	1	6	0.155343	4.54023	12.6558	7.98926
 314	1	6	0.174191	6.28803	11.2194	6.92811
 315	1	7	-0.106637	8.90384	10.6828	7.85119
 316	1	7	0.445763	10.395	11.1704	8.04521
 317	1	8	-0.144255	10.5395	12.4653	7.6816
 318	1	8	-0.136881	11.2603	10.4606	7.28602
 319	1	8	-0.144092	10.8485	11.0644	9.31503
 320	1	7	0.367264	8.65431	9.40257	8.74029
 321	1	8	-0.12104	8.56364	9.69214	10.0581
 322	1	8	-0.122614	9.64011	8.48248	8.6331
 323	1	8	-0.112321	7.48684	8.8018	8.41444
 324	1	3	-0.021957	8.73965	10.3983	6.32793
 325	1	3	-0.054241	8.8091	9.08316	5.79373
 326	1	3	-0.111709	8.76392	8.90273	4.40947
 327	1	3	-0.087244	8.64431	11.4854	5.41443
 328	1	3	-0.118951	8.6046	11.2811	4.01675
 329	1	3	-0.044875	8.6663	9.96553	3.53892
 330	1	2	0.461883	8.73927	9.42736	2.14953
 331	1	1	-0.007433	8.90166	8.0527	2.28803
 332	1	2	0.491356	8.90539	7.65513	3.61614
 333	1	3	-0.019445	9.21514	7.17568	1.21086
 334	1	3	-0.186861	10.5617	7.1164	0.812484
 335	1	3	-0.068374	10.9595	6.28522	-0.237565
 336	1	3	-0.009193	8.24382	6.35978	0.573101
 337	1	3	0.220761	8.63731	5.55008	-0.530334
 338	1	3	-0.402098	9.99919	5.52437	-0.915516
 339	1	6	0.148422	11.3122	7.71099	1.32928
 340	1	6	0.146291	12.0101	6.23372	-0.521065
 341	1	6	0.158981	8.56013	12.12	3.32493
 342	1	6	0.141813	8.62876	12.5054	5.79198
 343	1	6	0.143633	8.93418	8.19924	6.40839
 344	1	5	-0.474465	9.0539	6.53212	4.06478
 345	1	5	-0.469737	8.74587	10.0846	1.12341
 346	1	7	-0.37887	6.80478	6.33876	1.10137
 347	1	9	0.115886	6.30932	5.37636	0.926559
 348	1	9	0.123845	6.19978	7.11821	0.61909
 349	1	9	0.138418	6.7589	6.49685	2.18536
 350	1	6	0.21348	10.3224	4.87345	-1.72585
 351	1	1	0.486064	16.037	7.47737	17.8303
 352	1	2	0.047133	15.0569	8.21882	18.5281
 353	1	3	0.001076	14.4514	9.16574	17.5416
 354	1	2	0.034038	15.9707	7.76782	16.4569
 355	1	3	0.050122	14.9481	8.83014	16.3072
 356	1	5	-0.383076	14.662	8.07695	19.6729
 357	1	5	-0.380811	16.6661	7.36502	15.5392
 358	1	3	-0.001248	13.674	10.3312	17.7222
 359	1	3	-0.036565	14.5754	9.53172	15.1648
 360	1	3	-0.208842	13.8115	10.7033	15.3235
 361	1	3	-0.065319	13.4345	11.2002	16.6092
 362	1	6	0.153391	13.3945	10.6085	18.7333
 363	1	6	0.155343	14.9534	9.23052	14.1899
 364	1	6	0.174191	13.6354	11.2597	14.413
 365	1	7	-0.106637	13.0756	12.7284	16.8239
 366	1	7	0.445763	13.2417	13.5934	15.4988
 367	1	8	-0.144255	12.9182	14.8941	15.6817
 368	1	8	-0.136881	12.4252	13.1987	14.4949
 369	1	8	-0.144092	14.5038	13.5704	15.0119
 370	1	7	0.367264	14.1489	13.2894	17.8545
 371	1	8	-0.12104	13.9108	12.8845	19.1217
 372	1	8	-0.122614	14.2253	14.6383	17.914
 373	1	8	-0.112321	15.3977	12.8668	17.5507
 374	1	3	-0.021957	11.5957	12.9859	17.2697
 375	1	3	-0.054241	10.5336	12.4484	16.4956
 376	1	3	-0.111709	9.24475	12.998	16.624
 377	1	3	-0.087244	11.2612	13.9864	18.2346
 378	1	3	-0.118951	9.95454	14.5058	18.3625
 379	1	3	-0.044875	8.963	14.0202	17.5077
 380	1	2	0.461883	7.58094	14.5281	17.2386
 381	1	1	-0.007433	7.12755	13.7797	16.1639
 382	1	2	0.491356	8.04185	12.8045	15.7754
 383	1	3	-0.019445	5.95641	14.0173	15.389
 384	1	3	-0.186861	4.79882	13.2784	15.6774
 385	1	3	-0.068374	3.83781	13.0663	14.6827
 386	1	3	-0.009193	6.10886	14.633	14.1265
 387	1	3	0.220761	5.29559	14.1836	13.049
 388	1	3	-0.402098	4.12813	13.4419	13.3633
 389	1	6	0.148422	4.67761	12.8079	16.6495
 390	1	6	0.146291	2.95071	12.4739	14.9014
 391	1	6	0.158981	9.74003	15.3271	19.0436
 392	1	6	0.141813	12.021	14.4569	18.8463
 393	1	6	0.143633	10.7259	11.7235	15.7075
 394	1	5	-0.474465	7.92498	11.9834	14.8822
 395	1	5	-0.469737	7.03459	15.4778	17.7736
 396	1	7	-0.37887	7.19535	15.7084	13.9666
 397	1	9	0.115886	8.20027	15.3155	14.1665
 398	1	9	0.123845	7.01892	16.5319	14.6716
 399	1	9	0.138418	7.21366	16.1542	12.9652
 400	1	6	0.21348	3.46726	13.0892	12.5745
 401	1	1	0.486064	12.0553	2.3717	14.4044
 402	1	2	0.047133	12.892	2.76739	15.4545
 403	1	3	0.001076	11.9796	3.14213	16.5718
 404	1	2	0.034038	10.7058	2.49615	14.7227
 405	1	3	0.050122	10.6836	2.97105	16.1296
 406	1	5	-0.383076	14.1082	2.69989	15.5165
 407	1	5	-0.380811	9.73941	2.17131	14.0526
 408	1	3	-0.001248	12.2633	3.53262	17.893
 409	1	3	-0.036565	9.59858	3.16815	16.9822
 410	1	3	-0.208842	9.86216	3.53274	18.3171
 411	1	3	-0.065319	11.1876	3.71092	18.8103
 412	1	6	0.153391	13.2998	3.67293	18.187
 413	1	6	0.155343	8.58233	3.02383	16.6216
 414	1	6	0.174191	9.0049	3.68771	18.9648
 415	1	7	-0.106637	11.415	4.15557	20.2955
 416	1	7	0.445763	10.4591	3.38176	21.2867
 417	1	8	-0.144255	10.328	2.0825	20.9327
 418	1	8	-0.136881	9.20886	3.89152	21.3578
 419	1	8	-0.144092	10.9346	3.38699	22.553
 420	1	7	0.367264	11.09	5.69848	20.3407
 421	1	8	-0.12104	9.88999	6.00512	19.7989
 422	1	8	-0.122614	11.9951	6.40393	19.625
 423	1	8	-0.112321	11.0635	6.19117	21.6
 424	1	3	-0.021957	12.8729	3.84223	20.772
 425	1	3	-0.054241	13.7038	4.81192	21.4024
 426	1	3	-0.111709	15.0285	4.48495	21.7018
 427	1	3	-0.087244	13.4085	2.53557	20.5835
 428	1	3	-0.118951	14.76	2.23912	20.8664
 429	1	3	-0.044875	15.5583	3.25922	21.3948
 430	1	2	0.461883	17.0387	3.3885	21.4567
 431	1	1	-0.007433	17.295	4.76972	21.5159
 432	1	2	0.491356	16.1567	5.38562	22.0307
 433	1	3	-0.019445	17.9563	5.40247	20.3867
 434	1	3	-0.186861	18.706	4.56853	19.5366
 435	1	3	-0.068374	18.5048	4.61331	18.1561
 436	1	3	-0.009193	17.3427	6.53985	19.7877
 437	1	3	0.220761	16.9539	6.50597	18.4153
 438	1	3	-0.402098	17.5403	5.48105	17.626
 439	1	6	0.148422	19.3147	3.76279	19.9403
 440	1	6	0.146291	19.0081	3.88955	17.516
 441	1	6	0.158981	15.1958	1.27727	20.6034
 442	1	6	0.141813	12.7926	1.7595	20.1361
 443	1	6	0.143633	13.3979	5.83644	21.5817
 444	1	5	-0.474465	16.0862	6.39044	22.7154
 445	1	5	-0.469737	17.8177	2.46909	21.2626
 446	1	7	-0.37887	17.4689	7.87204	20.5372
 447	1	9	0.115886	17.6557	8.70799	19.8531
 448	1	9	0.123845	18.3193	7.8433	21.2318
 449	1	9	0.138418	16.5886	8.12905	21.135
 450	1	6	0.21348	17.3171	5.38324	16.5672
 451	1	1	0.486064	15.7889	9.62805	3.86113
 452	1	2	0.047133	15.4392	8.35653	3.40088
 453	1	3	0.001076	15.974	7.42969	4.43847
 454	1	2	0.034038	16.2822	9.61659	5.16419
 455	1	3	0.050122	16.5045	8.18472	5.45987
 456	1	5	-0.383076	15.0671	8.04084	2.2828
 457	1	5	-0.380811	16.7156	10.5541	5.81274
 458	1	3	-0.001248	16.1808	6.04689	4.3711
 459	1	3	-0.036565	17.3393	7.61404	6.41729
 460	1	3	-0.208842	17.6172	6.23634	6.3241
 461	1	3	-0.065319	17.0408	5.40801	5.31388
 462	1	6	0.153391	15.6945	5.52396	3.55993
 463	1	6	0.155343	17.8191	8.24069	7.16627
 464	1	6	0.174191	18.3065	5.84631	7.06123
 465	1	7	-0.106637	17.2831	3.85483	5.27134
 466	1	7	0.445763	17.5514	3.37973	3.77394
 467	1	8	-0.144255	16.4945	3.52489	2.94863
 468	1	8	-0.136881	17.8722	2.072	3.65354
 469	1	8	-0.144092	18.5635	4.07861	3.21344
 470	1	7	0.367264	18.5549	3.38278	6.10937
 471	1	8	-0.12104	18.4657	3.59889	7.43968
 472	1	8	-0.122614	19.6884	3.99768	5.70371
 473	1	8	-0.112321	18.7749	2.05148	6.03594
 474	1	3	-0.021957	16.0233	3.22729	5.93326
 475	1	3	-0.054241	15.6624	3.66766	7.2341
 476	1	3	-0.111709	14.6342	3.02149	7.92264
 477	1	3	-0.087244	15.2502	2.18556	5.34474
 478	1	3	-0.118951	14.1774	1.58234	6.03824
 479	1	3	-0.044875	13.9007	2.0141	7.34138
 480	1	2	0.461883	13.014	1.4313	8.38526
 481	1	1	-0.007433	13.364	2.06631	9.57689
 482	1	2	0.491356	14.2842	3.08855	9.36506
 483	1	3	-0.019445	13.0937	1.51753	10.8717
 484	1	3	-0.186861	13.4631	0.172933	11.0736
 485	1	3	-0.068374	13.3427	-0.434071	12.3258
 486	1	3	-0.009193	12.5782	2.2743	11.9604
 487	1	3	0.220761	12.5117	1.67029	13.2478
 488	1	3	-0.402098	12.8845	0.317936	13.411
 489	1	6	0.148422	13.8568	-0.41521	10.2478
 490	1	6	0.146291	13.6267	-1.47751	12.4544
 491	1	6	0.158981	13.624	0.75194	5.60404
 492	1	6	0.141813	15.487	1.79509	4.36133
 493	1	6	0.143633	16.2222	4.44049	7.75183
 494	1	5	-0.474465	14.8643	3.76267	10.1985
 495	1	5	-0.469737	12.2706	0.477603	8.23146
 496	1	7	-0.37887	12.1039	3.71739	11.7513
 497	1	9	0.115886	12.8875	4.43517	12.0289
 498	1	9	0.123845	11.2059	3.94631	12.3385
 499	1	9	0.138418	11.83	3.9137	10.7075
 500	1	6	0.21348	12.8183	-0.151354	14.3898
 501	1	1	0.486064	26.3202	11.063	-5.03018
 502	1	2	0.047133	25.3249	10.9778	-4.05335
 503	1	3	0.001076	25.5258	12.1626	-3.18902
 504	1	2	0.034038	27.0729	12.2299	-4.94349
 505	1	3	0.050122	26.5421	12.9154	-3.74387
 506	1	5	-0.383076	24.552	10.0594	-3.83654
 507	1	5	-0.380811	28.0833	12.535	-5.5564
 508	1	3	-0.001248	24.9793	12.4563	-1.92834
 509	1	3	-0.036565	27.0248	14.0508	-3.10821
 510	1	3	-0.208842	26.4515	14.3967	-1.87356
 511	1	3	-0.065319	25.4583	13.5949	-1.23
 512	1	6	0.153391	24.2478	11.7786	-1.49814
 513	1	6	0.155343	27.8488	14.6177	-3.53766
 514	1	6	0.174191	26.8594	15.2804	-1.39681
 515	1	7	-0.106637	25.0136	13.9448	0.227567
 516	1	7	0.445763	24.5256	15.4444	0.271897
 517	1	8	-0.144255	25.5215	16.3556	0.22656
 518	1	8	-0.136881	23.8278	15.7143	1.39857
 519	1	8	-0.144092	23.7085	15.7205	-0.769816
 520	1	7	0.367264	26.2959	13.7947	1.15692
 521	1	8	-0.12104	27.3956	14.4545	0.737091
 522	1	8	-0.122614	26.6844	12.5004	1.23705
 523	1	8	-0.112321	26.0939	14.2643	2.4101
 524	1	3	-0.021957	23.7944	13.1027	0.783215
 525	1	3	-0.054241	22.5099	13.1332	0.149075
 526	1	3	-0.111709	21.3658	12.7271	0.878284
 527	1	3	-0.087244	23.8551	12.5124	2.08467
 528	1	3	-0.118951	22.7077	12.171	2.81008
 529	1	3	-0.044875	21.4762	12.3428	2.19663
 530	1	2	0.461883	20.133	12.1563	2.7763
 531	1	1	-0.007433	19.2446	12.3017	1.72268
 532	1	2	0.491356	19.8979	12.6916	0.548139
 533	1	3	-0.019445	17.847	12.0486	1.91183
 534	1	3	-0.186861	16.9265	13.1029	1.75645
 535	1	3	-0.068374	15.5975	12.9708	2.19152
 536	1	3	-0.009193	17.4073	10.8198	2.475
 537	1	3	0.220761	16.0926	10.7287	3.00725
 538	1	3	-0.402098	15.1901	11.8018	2.85281
 539	1	6	0.148422	17.2524	14.0493	1.33188
 540	1	6	0.146291	14.907	13.8058	2.08135
 541	1	6	0.158981	22.7694	11.8246	3.84015
 542	1	6	0.141813	24.7786	12.3822	2.62954
 543	1	6	0.143633	22.3849	13.5439	-0.850306
 544	1	5	-0.474465	19.3995	12.9276	-0.537826
 545	1	5	-0.469737	19.894	11.9072	3.94603
 546	1	7	-0.37887	18.3377	9.58908	2.54106
 547	1	9	0.115886	17.9696	8.79705	1.87569
 548	1	9	0.123845	18.4158	9.176	3.5537
 549	1	9	0.138418	19.3665	9.78015	2.22763
 550	1	6	0.21348	14.1897	11.7426	3.27565
 551	1	1	0.486064	27.8988	0.0342702	-7.60825
 552	1	2	0.047133	28.3299	1.04123	-8.49427
 553	1	3	0.001076	27.1467	1.37597	-9.34543
 554	1	2	0.034038	26.5519	-0.282951	-7.83869
 555	1	3	0.050122	26.1288	0.525457	-8.99981
 556	1	5	-0.383076	29.4287	1.56874	-8.57918
 557	1	5	-0.380811	25.7698	-0.882486	-7.12447
 558	1	3	-0.001248	26.951	2.37682	-10.3119
 559	1	3	-0.036565	24.9111	0.533231	-9.67605
 560	1	3	-0.208842	24.7266	1.47597	-10.706
 561	1	3	-0.065319	25.7091	2.46134	-11.0185
 562	1	6	0.153391	27.7713	3.05764	-10.482
 563	1	6	0.155343	24.1347	-0.181876	-9.41185
 564	1	6	0.174191	23.7823	1.42523	-11.2318
 565	1	7	-0.106637	25.4478	3.54755	-12.1289
 566	1	7	0.445763	23.8921	3.86228	-12.3073
 567	1	8	-0.144255	23.2795	4.07538	-11.1187
 568	1	8	-0.136881	23.1539	2.89083	-12.8868
 569	1	8	-0.144092	23.6856	4.95263	-13.082
 570	1	7	0.367264	26.0009	3.01654	-13.5105
 571	1	8	-0.12104	26.1759	4.02969	-14.3905
 572	1	8	-0.122614	27.1902	2.38977	-13.3749
 573	1	8	-0.112321	25.2176	2.10322	-14.1202
 574	1	3	-0.021957	26.2059	4.87841	-11.7626
 575	1	3	-0.054241	25.5367	5.99061	-11.1813
 576	1	3	-0.111709	26.2588	7.11994	-10.8029
 577	1	3	-0.087244	27.6158	5.00975	-11.9543
 578	1	3	-0.118951	28.3396	6.12658	-11.4967
 579	1	3	-0.044875	27.6299	7.17234	-10.9101
 580	1	2	0.461883	28.1279	8.224	-9.99107
 581	1	1	-0.007433	26.9937	8.613	-9.29125
 582	1	2	0.491356	25.816	8.17156	-9.86591
 583	1	3	-0.019445	27.0395	8.75649	-7.8876
 584	1	3	-0.186861	27.3014	7.57366	-7.16864
 585	1	3	-0.068374	27.3203	7.56965	-5.77594
 586	1	3	-0.009193	26.7137	9.95523	-7.21996
 587	1	3	0.220761	26.7049	9.93651	-5.80156
 588	1	3	-0.402098	27.0436	8.7569	-5.09791
 589	1	6	0.148422	27.4811	6.63955	-7.69641
 590	1	6	0.146291	27.5232	6.64905	-5.23112
 591	1	6	0.158981	29.4281	6.13534	-11.5062
 592	1	6	0.141813	28.2024	4.19943	-12.367
 593	1	6	0.143633	24.4845	5.9956	-10.9278
 594	1	5	-0.474465	24.6837	8.29642	-9.43255
 595	1	5	-0.469737	29.2896	8.35832	-9.64729
 596	1	7	-0.37887	26.3271	11.209	-8.01821
 597	1	9	0.115886	25.2831	11.491	-7.83321
 598	1	9	0.123845	26.4285	11.0789	-9.10155
 599	1	9	0.138418	26.9655	12.0645	-7.76688
 600	1	6	0.21348	27.0334	8.74936	-4.01
 601	1	1	0.486064	22.4833	-6.02859	-5.73976
 602	1	2	0.047133	22.9512	-6.43221	-4.47277
 603	1	3	0.001076	22.3012	-5.53399	-3.48083
 604	1	2	0.034038	21.5069	-5.01822	-5.59326
 605	1	3	0.050122	21.3936	-4.74532	-4.14191
 606	1	5	-0.383076	23.6694	-7.36835	-4.1674
 607	1	5	-0.380811	20.914	-4.37506	-6.4456
 608	1	3	-0.001248	22.6327	-5.28622	-2.14302
 609	1	3	-0.036565	20.6308	-3.78718	-3.46837
 610	1	3	-0.208842	20.9575	-3.51003	-2.12579
 611	1	3	-0.065319	22.0608	-4.15393	-1.49726
 612	1	6	0.153391	23.4682	-5.82546	-1.70384
 613	1	6	0.155343	19.8825	-3.203	-3.99995
 614	1	6	0.174191	20.4229	-2.69806	-1.64205
 615	1	7	-0.106637	22.8323	-3.51194	-0.298672
 616	1	7	0.445763	22.4082	-2.0206	-0.000697103
 617	1	8	-0.144255	22.4337	-1.25366	-1.11457
 618	1	8	-0.136881	23.2493	-1.42029	0.871228
 619	1	8	-0.144092	21.1668	-1.91634	0.527909
 620	1	7	0.367264	22.5517	-4.38639	0.978054
 621	1	8	-0.12104	21.2281	-4.61213	1.14064
 622	1	8	-0.122614	22.9893	-3.82032	2.12563
 623	1	8	-0.112321	23.1401	-5.59878	0.887406
 624	1	3	-0.021957	24.3391	-3.46825	-0.72587
 625	1	3	-0.054241	24.6584	-3.18503	-2.08039
 626	1	3	-0.111709	25.9875	-3.2387	-2.50835
 627	1	3	-0.087244	25.4272	-3.67653	0.170233
 628	1	3	-0.118951	26.7723	-3.66447	-0.277697
 629	1	3	-0.044875	27.0259	-3.46634	-1.64415
 630	1	2	0.461883	28.3003	-3.26246	-2.4034
 631	1	1	-0.007433	27.9344	-2.81693	-3.68431
 632	1	2	0.491356	26.5454	-2.89893	-3.83353
 633	1	3	-0.019445	28.7424	-1.95401	-4.52316
 634	1	3	-0.186861	29.6269	-1.05446	-3.89052
 635	1	3	-0.068374	30.0587	0.109032	-4.53131
 636	1	3	-0.009193	28.4314	-1.72369	-5.89398
 637	1	3	0.220761	28.636	-0.425938	-6.4515
 638	1	3	-0.402098	29.4809	0.47025	-5.75259
 639	1	6	0.148422	29.9521	-1.20937	-2.86693
 640	1	6	0.146291	30.7332	0.79039	-4.01512
 641	1	6	0.158981	27.5965	-3.77915	0.423111
 642	1	6	0.141813	25.2475	-3.826	1.22969