pySIMM System Object

2202 atoms
2421 bonds
4224 angles
6508 dihedrals
704 impropers

9 atom types
11 bond types
18 angle types
7 dihedral types
4 improper types

-211.575453 211.575453 xlo xhi
-211.575453 211.575453 ylo yhi
-211.575453 211.575453 zlo zhi

Masses

   1	14.01	# n
   2	12.01	# c
   3	12.01	# ca
   4	1.008	# hn
   5	16.0	# o
   6	1.008	# ha
   7	12.01	# c3
   8	19.0	# f
   9	1.008	# hc

Pair Coeffs

   1	0.17	3.249998523775958	# n
   2	0.086	3.3996695084235347	# c
   3	0.086	3.3996695084235347	# ca
   4	0.0157	1.069078461768407	# hn
   5	0.21	2.959921901149463	# o
   6	0.015	2.59964245953351	# ha
   7	0.1094	3.3996695084235347	# c3
   8	0.061	3.1181455134911875	# f
   9	0.0157	2.649532787749369	# hc

Bond Coeffs

   1	427.6	1.3789	# c,n
   2	461.1	1.3984	# ca,ca
   3	345.9	1.4906	# c,ca
   4	345.8	1.086	# ca,ha
   5	637.7	1.2183	# c,o
   6	321.0	1.5156	# c3,ca
   7	300.9	1.5375	# c3,c3
   8	356.9	1.3497	# c3,f
   9	384.2	1.4121	# ca,n
  10	330.6	1.0969	# c3,hc
  11	403.2	1.0129	# hn,n

Angle Coeffs

   1	48.18	119.88	# ca,ca,ha
   2	63.15	112.07	# c3,c3,ca
   3	70.89	107.36	# f,c3,f
   4	67.87	120.19	# ca,ca,n
   5	68.72	122.6	# ca,c,o
   6	63.56	112.24	# ca,c3,ca
   7	63.82	123.71	# c,n,ca
   8	74.22	123.05	# n,c,o
   9	48.33	117.55	# c,n,hn
  10	67.68	115.25	# ca,c,n
  11	64.28	120.33	# c,ca,ca
  12	66.11	109.24	# c3,c3,f
  13	46.8	110.47	# ca,c3,hc
  14	39.4	107.58	# hc,c3,hc
  15	66.62	120.02	# ca,ca,ca
  16	63.53	120.77	# c3,ca,ca
  17	62.86	111.51	# c3,c3,c3
  18	63.74	127.08	# c,n,c

Dihedral Coeffs

   1	1	2.5	2	180	# X,c,n,X
   2	1	0.45	2	180	# X,ca,n,X
   3	2	2.5	2	180	2.0	1	0	# hn,n,c,o
   4	1	3.625	2	180	# X,ca,ca,X
   5	1	1.0	2	180	# X,c,ca,X
   6	1	0.15555555555555556	3	0	# X,c3,c3,X
   7	1	0.0	2	0	# X,c3,ca,X

Improper Coeffs

   1	1.1	-1	2	# ca,ca,ca,c3
   2	10.5	-1	2	# c,X,X,o
   3	1.1	-1	2	# ca,X,X,ha
   4	1.1	-1	2	# n,X,X,hn

Atoms

   1	1	1	0.486064	47.3618	54.4612	7.12883
   2	1	2	0.047133	46.7484	53.5108	7.94518
   3	1	3	0.001076	47.1245	53.8885	9.33216
   4	1	2	0.034038	48.1066	55.3919	7.8511
   5	1	3	0.050122	47.9364	55.0026	9.27271
   6	1	5	-0.383076	46.0539	52.5638	7.61568
   7	1	5	-0.380811	48.7781	56.3191	7.42923
   8	1	3	-0.001248	46.7859	53.2874	10.5503
   9	1	3	-0.036565	48.4732	55.5714	10.4288
  10	1	3	-0.208842	48.1474	54.9804	11.6664
  11	1	3	-0.065319	47.2879	53.8487	11.7563
  12	1	6	0.153391	46.1536	52.4062	10.5298
  13	1	6	0.155343	49.1268	56.4387	10.3644
  14	1	6	0.174191	48.5752	55.4118	12.5693
  15	1	7	-0.106637	46.985	53.2443	13.16
  16	1	7	0.445763	45.6918	52.3446	13.1979
  17	1	8	-0.144255	44.6379	52.9665	12.6217
  18	1	8	-0.136881	45.3161	52.0627	14.4666
  19	1	8	-0.144092	45.8446	51.1584	12.5686
  20	1	7	0.367264	48.237	52.3662	13.5386
  21	1	8	-0.12104	48.5811	51.5303	12.5324
  22	1	8	-0.122614	48.0386	51.5918	14.6289
  23	1	8	-0.112321	49.3268	53.1294	13.7821
  24	1	3	-0.021957	46.7184	54.4137	14.1531
  25	1	3	-0.054241	47.2376	54.4351	15.4753
  26	1	3	-0.111709	46.9261	55.5174	16.3075
  27	1	3	-0.087244	45.8773	55.4872	13.743
  28	1	3	-0.118951	45.5753	56.5665	14.5973
  29	1	3	-0.044875	46.1213	56.5546	15.8836
  30	1	2	0.461883	45.9802	57.5253	17.0018
  31	1	1	-0.007433	46.7272	56.9963	18.0436
  32	1	2	0.491356	47.3266	55.7895	17.7131
  33	1	3	-0.019445	46.8429	57.6104	19.3172
  34	1	3	-0.186861	47.8702	58.5464	19.5361
  35	1	3	-0.068374	48.0078	59.1746	20.7828
  36	1	3	-0.009193	45.9386	57.2959	20.355
  37	1	3	0.220761	46.0846	57.931	21.6047
  38	1	3	-0.402098	47.112	58.8643	21.8175
  39	1	6	0.148422	48.564	58.7891	18.7352
  40	1	6	0.146291	48.8048	59.8987	20.9433
  41	1	6	0.158981	44.9326	57.3831	14.2743
  42	1	6	0.141813	45.4479	55.4872	12.744
  43	1	6	0.143633	47.8632	53.6433	15.8743
  44	1	5	-0.474465	48.0279	55.0796	18.4124
  45	1	5	-0.469737	45.3283	58.5553	16.9883
  46	1	7	-0.37887	44.8126	56.2867	20.1339
  47	1	9	0.115886	45.2127	55.3018	19.8601
  48	1	9	0.123845	44.1371	56.619	19.3349
  49	1	9	0.138418	44.2054	56.151	21.0383
  50	1	6	0.21348	47.2065	59.344	22.7876
  51	1	1	0.486064	39.3638	61.7379	-4.33092
  52	1	2	0.047133	38.6689	60.6524	-3.7985
  53	1	3	0.001076	39.7162	59.709	-3.33245
  54	1	2	0.034038	40.7468	61.5705	-4.27869
  55	1	3	0.050122	40.9503	60.2536	-3.62158
  56	1	5	-0.383076	37.4652	60.52	-3.65623
  57	1	5	-0.380811	41.6184	62.3532	-4.61901
  58	1	3	-0.001248	39.5847	58.494	-2.65005
  59	1	3	-0.036565	42.1301	59.6019	-3.25666
  60	1	3	-0.208842	42.0214	58.3764	-2.56649
  61	1	3	-0.065319	40.7585	57.8093	-2.23153
  62	1	6	0.153391	38.5832	58.1295	-2.44713
  63	1	6	0.155343	43.0976	60.0431	-3.48725
  64	1	6	0.174191	42.9385	57.8696	-2.27261
  65	1	7	-0.106637	40.7239	56.467	-1.43672
  66	1	7	0.445763	39.3236	56.1503	-0.787558
  67	1	8	-0.144255	39.3932	55.1091	0.0728851
  68	1	8	-0.136881	38.3727	55.8396	-1.69717
  69	1	8	-0.144092	38.8629	57.199	-0.0683441
  70	1	7	0.367264	41.0788	55.3328	-2.4721
  71	1	8	-0.12104	40.348	55.4501	-3.60445
  72	1	8	-0.122614	40.8589	54.0844	-2.00239
  73	1	8	-0.112321	42.3757	55.3894	-2.85126
  74	1	3	-0.021957	41.7345	56.5721	-0.254725
  75	1	3	-0.054241	42.5672	55.4924	0.147141
  76	1	3	-0.111709	43.4514	55.68	1.21883
  77	1	3	-0.087244	41.8066	57.7864	0.486113
  78	1	3	-0.118951	42.7116	57.9574	1.5527
  79	1	3	-0.044875	43.5341	56.8802	1.89188
  80	1	2	0.461883	44.5927	56.7659	2.93023
  81	1	1	-0.007433	45.0791	55.4669	2.82775
  82	1	2	0.491356	44.4424	54.7481	1.82136
  83	1	3	-0.019445	46.1708	54.9604	3.59519
  84	1	3	-0.186861	47.3227	54.5489	2.89879
  85	1	3	-0.068374	48.4535	54.0908	3.58298
  86	1	3	-0.009193	46.1388	54.8939	5.01308
  87	1	3	0.220761	47.3	54.4566	5.7056
  88	1	3	-0.402098	48.445	54.057	4.98197
  89	1	6	0.148422	47.3449	54.5881	1.81208
  90	1	6	0.146291	49.3385	53.783	3.02813
  91	1	6	0.158981	42.7745	58.897	2.0982
  92	1	6	0.141813	41.1588	58.6196	0.226065
  93	1	6	0.143633	42.5506	54.5257	-0.345752
  94	1	5	-0.474465	44.668	53.6091	1.45166
  95	1	5	-0.469737	44.9703	57.6597	3.66882
  96	1	7	-0.37887	44.8768	55.318	5.77959
  97	1	9	0.115886	44.7275	54.7546	6.70699
  98	1	9	0.123845	43.965	55.1488	5.19504
  99	1	9	0.138418	44.9143	56.3859	6.03473
 100	1	6	0.21348	49.3387	53.7348	5.51183
 101	1	1	0.486064	27.1145	65.0979	-12.8174
 102	1	2	0.047133	28.2525	65.0438	-13.6187
 103	1	3	0.001076	29.309	65.7274	-12.8323
 104	1	2	0.034038	27.3109	65.8173	-11.6396
 105	1	3	0.050122	28.7501	66.1825	-11.6559
 106	1	5	-0.383076	28.4103	64.4414	-14.6669
 107	1	5	-0.380811	26.5355	65.9711	-10.7106
 108	1	3	-0.001248	30.6837	65.8078	-13.0791
 109	1	3	-0.036565	29.5397	66.7506	-10.6552
 110	1	3	-0.208842	30.9312	66.8188	-10.8725
 111	1	3	-0.065319	31.534	66.3407	-12.0716
 112	1	6	0.153391	31.0531	65.4007	-14.0142
 113	1	6	0.155343	29.0924	67.0755	-9.71807
 114	1	6	0.174191	31.5519	67.2073	-10.0687
 115	1	7	-0.106637	33.0924	66.3417	-12.1783
 116	1	7	0.445763	33.6441	65.5967	-13.4521
 117	1	8	-0.144255	33.1907	64.3241	-13.5225
 118	1	8	-0.136881	34.9926	65.4962	-13.4413
 119	1	8	-0.144092	33.3022	66.2149	-14.6048
 120	1	7	0.367264	33.5464	67.8533	-12.2338
 121	1	8	-0.12104	32.7969	68.5575	-13.1123
 122	1	8	-0.122614	34.8334	68.0268	-12.6077
 123	1	8	-0.112321	33.4147	68.4695	-11.0379
 124	1	3	-0.021957	33.6497	65.5631	-10.951
 125	1	3	-0.054241	34.8688	65.9118	-10.31
 126	1	3	-0.111709	35.2994	65.1482	-9.21472
 127	1	3	-0.087244	32.9437	64.4193	-10.4775
 128	1	3	-0.118951	33.3859	63.6774	-9.36581
 129	1	3	-0.044875	34.5712	64.0757	-8.74552
 130	1	2	0.461883	35.2556	63.5252	-7.54737
 131	1	1	-0.007433	36.3901	64.3095	-7.37175
 132	1	2	0.491356	36.4946	65.3018	-8.34182
 133	1	3	-0.019445	37.2657	64.1985	-6.25042
 134	1	3	-0.186861	37.3867	65.3187	-5.40635
 135	1	3	-0.068374	38.1801	65.2724	-4.25559
 136	1	3	-0.009193	37.9669	63.003	-5.94291
 137	1	3	0.220761	38.7297	62.9437	-4.7473
 138	1	3	-0.402098	38.838	64.0838	-3.92106
 139	1	6	0.148422	36.8614	66.2403	-5.64585
 140	1	6	0.146291	38.2677	66.1513	-3.61856
 141	1	6	0.158981	32.8269	62.8202	-8.99579
 142	1	6	0.141813	32.0311	64.0956	-10.9707
 143	1	6	0.143633	35.4785	66.7491	-10.6356
 144	1	5	-0.474465	37.342	66.1722	-8.4398
 145	1	5	-0.469737	34.8391	62.6242	-6.84004
 146	1	7	-0.37887	37.903	61.7913	-6.88302
 147	1	9	0.115886	37.7023	62.0809	-7.92119
 148	1	9	0.123845	37.1074	61.0996	-6.57076
 149	1	9	0.138418	38.8455	61.2307	-6.90869
 150	1	6	0.21348	39.4388	64.0454	-3.01529
 151	1	1	0.486064	27.0849	53.4187	-4.62548
 152	1	2	0.047133	26.48	52.8752	-5.75721
 153	1	3	0.001076	26.429	53.986	-6.7415
 154	1	2	0.034038	27.4131	54.7635	-4.77867
 155	1	3	0.050122	26.9855	55.1064	-6.15854
 156	1	5	-0.383076	26.0785	51.7369	-5.92905
 157	1	5	-0.380811	27.9319	55.5138	-3.96904
 158	1	3	-0.001248	25.9641	53.9932	-8.06207
 159	1	3	-0.036565	27.1141	56.3019	-6.86697
 160	1	3	-0.208842	26.6587	56.3296	-8.20114
 161	1	3	-0.065319	26.0669	55.1911	-8.81987
 162	1	6	0.153391	25.565	53.0715	-8.47208
 163	1	6	0.155343	27.5762	57.171	-6.40297
 164	1	6	0.174191	26.7924	57.2497	-8.76576
 165	1	7	-0.106637	25.6573	55.2706	-10.3208
 166	1	7	0.445763	26.9716	54.9819	-11.1415
 167	1	8	-0.144255	27.8874	55.9646	-10.9798
 168	1	8	-0.136881	26.7489	54.8493	-12.4685
 169	1	8	-0.144092	27.5789	53.8437	-10.7346
 170	1	7	0.367264	24.553	54.2233	-10.7331
 171	1	8	-0.12104	25.0108	52.9541	-10.812
 172	1	8	-0.122614	24.0219	54.5137	-11.9427
 173	1	8	-0.112321	23.5238	54.2114	-9.85657
 174	1	3	-0.021957	25.0466	56.6793	-10.5919
 175	1	3	-0.054241	25.4593	57.5082	-11.6696
 176	1	3	-0.111709	24.8954	58.7829	-11.7987
 177	1	3	-0.087244	24.0387	57.1723	-9.7146
 178	1	3	-0.118951	23.4802	58.4581	-9.86639
 179	1	3	-0.044875	23.9404	59.2513	-10.9213
 180	1	2	0.461883	23.6351	60.665	-11.2734
 181	1	1	-0.007433	24.471	60.9671	-12.3393
 182	1	2	0.491356	25.23	59.8775	-12.7459
 183	1	3	-0.019445	24.6448	62.2816	-12.8536
 184	1	3	-0.186861	23.6583	62.8182	-13.699
 185	1	3	-0.068374	23.8037	64.1022	-14.2402
 186	1	3	-0.009193	25.7932	63.0417	-12.5241
 187	1	3	0.220761	25.9436	64.3366	-13.0857
 188	1	3	-0.402098	24.9465	64.8568	-13.9394
 189	1	6	0.148422	22.7737	62.2344	-13.9413
 190	1	6	0.146291	23.0351	64.5042	-14.8987
 191	1	6	0.158981	22.7352	58.8382	-9.16986
 192	1	6	0.141813	23.7023	56.5611	-8.88078
 193	1	6	0.143633	26.2204	57.2125	-12.3843
 194	1	5	-0.474465	26.0885	59.8386	-13.6096
 195	1	5	-0.469737	22.8935	61.4166	-10.665
 196	1	7	-0.37887	26.8605	62.4395	-11.5928
 197	1	9	0.115886	27.4823	63.1887	-11.0918
 198	1	9	0.123845	27.5311	61.7736	-12.1535
 199	1	9	0.138418	26.4077	61.8562	-10.7819
 200	1	6	0.21348	25.0643	65.8457	-14.3764
 201	1	1	0.486064	15.8405	51.5629	3.56184
 202	1	2	0.047133	16.8114	51.0069	4.40023
 203	1	3	0.001076	18.0231	51.8432	4.2039
 204	1	2	0.034038	16.3051	52.6877	2.87945
 205	1	3	0.050122	17.7244	52.8239	3.28259
 206	1	5	-0.383076	16.7542	49.9771	5.05121
 207	1	5	-0.380811	15.7268	53.3666	2.04647
 208	1	3	-0.001248	19.3181	51.6719	4.70843
 209	1	3	-0.036565	18.7124	53.6682	2.77928
 210	1	3	-0.208842	20.0326	53.4766	3.23093
 211	1	3	-0.065319	20.3665	52.493	4.20635
 212	1	6	0.153391	19.4802	50.8734	5.42414
 213	1	6	0.155343	18.4713	54.4057	2.01661
 214	1	6	0.174191	20.8088	54.0831	2.7733
 215	1	7	-0.106637	21.8722	52.2833	4.5664
 216	1	7	0.445763	22.4016	53.6263	5.21656
 217	1	8	-0.144255	23.6232	53.5165	5.78342
 218	1	8	-0.136881	21.5647	54.061	6.18584
 219	1	8	-0.144092	22.5048	54.637	4.32547
 220	1	7	0.367264	22.1367	51.1059	5.58374
 221	1	8	-0.12104	23.4569	50.8873	5.77837
 222	1	8	-0.122614	21.6522	49.923	5.14263
 223	1	8	-0.112321	21.5843	51.337	6.79572
 224	1	3	-0.021957	22.5849	51.8861	3.24361
 225	1	3	-0.054241	23.854	52.395	2.85781
 226	1	3	-0.111709	24.4075	51.9686	1.64107
 227	1	3	-0.087244	21.9458	50.9427	2.38806
 228	1	3	-0.118951	22.5219	50.5236	1.17593
 229	1	3	-0.044875	23.7603	51.061	0.8268
 230	1	2	0.461883	24.5809	50.8435	-0.389619
 231	1	1	-0.007433	25.6843	51.6683	-0.239215
 232	1	2	0.491356	25.6719	52.3651	0.962332
 233	1	3	-0.019445	26.6601	51.8339	-1.25719
 234	1	3	-0.186861	27.8694	51.1244	-1.15668
 235	1	3	-0.068374	28.8206	51.1899	-2.18243
 236	1	3	-0.009193	26.3919	52.636	-2.3918
 237	1	3	0.220761	27.3444	52.6773	-3.44028
 238	1	3	-0.402098	28.5546	51.9579	-3.3244
 239	1	6	0.148422	28.0673	50.5059	-0.284554
 240	1	6	0.146291	29.7509	50.6302	-2.09851
 241	1	6	0.158981	22.0219	49.8089	0.524966
 242	1	6	0.141813	20.984	50.5184	2.66259
 243	1	6	0.143633	24.4074	53.1053	3.46497
 244	1	5	-0.474465	26.4754	53.189	1.36114
 245	1	5	-0.469737	24.2893	50.1393	-1.34092
 246	1	7	-0.37887	25.0704	53.4147	-2.48136
 247	1	9	0.115886	24.2629	52.7684	-2.85177
 248	1	9	0.123845	25.1285	54.2902	-3.13841
 249	1	9	0.138418	24.7656	53.8075	-1.5033
 250	1	6	0.21348	29.2857	51.9884	-4.12909
 251	1	1	0.486064	2.74312	46.1596	6.97006
 252	1	2	0.047133	4.0594	46.3747	6.56006
 253	1	3	0.001076	4.83268	46.5587	7.81308
 254	1	2	0.034038	2.60772	46.1543	8.3593
 255	1	3	0.050122	3.96808	46.4376	8.88018
 256	1	5	-0.383076	4.51189	46.3774	5.42754
 257	1	5	-0.380811	1.6217	45.8892	9.02781
 258	1	3	-0.001248	6.20148	46.7772	7.99795
 259	1	3	-0.036565	4.42397	46.5384	10.1959
 260	1	3	-0.208842	5.79678	46.7859	10.4055
 261	1	3	-0.065319	6.70659	46.9218	9.31764
 262	1	6	0.153391	6.85133	46.8242	7.12706
 263	1	6	0.155343	3.73509	46.4142	11.0282
 264	1	6	0.174191	6.14054	46.8424	11.4336
 265	1	7	-0.106637	8.23455	47.1334	9.53111
 266	1	7	0.445763	8.58926	47.8659	10.8819
 267	1	8	-0.144255	9.86788	48.3073	10.886
 268	1	8	-0.136881	8.45387	47.0855	11.9775
 269	1	8	-0.144092	7.80963	48.9533	11.0789
 270	1	7	0.367264	8.87642	45.6954	9.53905
 271	1	8	-0.12104	8.24358	44.8654	10.3997
 272	1	8	-0.122614	10.1806	45.6982	9.89562
 273	1	8	-0.112321	8.78577	45.1077	8.32422
 274	1	3	-0.021957	8.77063	48.0496	8.39014
 275	1	3	-0.054241	9.94901	47.7572	7.65184
 276	1	3	-0.111709	10.3531	48.6414	6.64529
 277	1	3	-0.087244	8.07006	49.2527	8.0884
 278	1	3	-0.118951	8.49629	50.13	7.07097
 279	1	3	-0.044875	9.64834	49.7913	6.35742
 280	1	2	0.461883	10.3448	50.504	5.25353
 281	1	1	-0.007433	11.4497	49.7218	4.95222
 282	1	2	0.491356	11.528	48.5811	5.73784
 283	1	3	-0.019445	12.4095	50.0603	3.96315
 284	1	3	-0.186861	12.1235	49.7419	2.62485
 285	1	3	-0.068374	13.0446	50.0313	1.6135
 286	1	3	-0.009193	13.628	50.6922	4.31019
 287	1	3	0.220761	14.5749	50.9618	3.28615
 288	1	3	-0.402098	14.2666	50.6281	1.94621
 289	1	6	0.148422	11.179	49.2697	2.36585
 290	1	6	0.146291	12.811	49.7905	0.577412
 291	1	6	0.158981	7.95402	51.0462	6.84521
 292	1	6	0.141813	7.17559	49.5134	8.64844
 293	1	6	0.143633	10.5571	46.8767	7.83211
 294	1	5	-0.474465	12.3777	47.7082	5.71497
 295	1	5	-0.469737	10.008	51.56	4.74656
 296	1	7	-0.37887	13.8903	51.0616	5.77764
 297	1	9	0.115886	12.9827	51.4157	6.28112
 298	1	9	0.123845	14.6264	51.8643	5.8965
 299	1	9	0.138418	14.2629	50.1878	6.33171
 300	1	6	0.21348	14.9753	50.8557	1.15211
 301	1	1	0.486064	-3.7127	54.41	-4.89334
 302	1	2	0.047133	-4.68836	53.4914	-4.512
 303	1	3	0.001076	-4.15181	52.8565	-3.28028
 304	1	2	0.034038	-2.65596	54.4898	-3.98731
 305	1	3	0.050122	-2.94278	53.4448	-2.97323
 306	1	5	-0.383076	-5.68983	53.1541	-5.12148
 307	1	5	-0.380811	-1.63944	55.1593	-4.07063
 308	1	3	-0.001248	-4.61163	51.7281	-2.59614
 309	1	3	-0.036565	-2.12806	52.9378	-1.95829
 310	1	3	-0.208842	-2.56149	51.7828	-1.2731
 311	1	3	-0.065319	-3.80134	51.1517	-1.58019
 312	1	6	0.153391	-5.53135	51.2665	-2.93815
 313	1	6	0.155343	-1.15401	53.382	-1.76404
 314	1	6	0.174191	-1.88191	51.3459	-0.545915
 315	1	7	-0.106637	-4.15719	49.7605	-0.977668
 316	1	7	0.445763	-5.68974	49.6419	-0.612546
 317	1	8	-0.144255	-6.13729	50.7336	0.0450717
 318	1	8	-0.136881	-5.92109	48.5738	0.17944
 319	1	8	-0.144092	-6.50916	49.5028	-1.67649
 320	1	7	0.367264	-3.80865	48.7059	-2.09713
 321	1	8	-0.12104	-4.451	48.9338	-3.26512
 322	1	8	-0.122614	-4.12257	47.4408	-1.73724
 323	1	8	-0.112321	-2.49205	48.7475	-2.40149
 324	1	3	-0.021957	-3.35545	49.5074	0.344441
 325	1	3	-0.054241	-2.47346	48.4034	0.518662
 326	1	3	-0.111709	-1.84371	48.2137	1.75226
 327	1	3	-0.087244	-3.53604	50.3854	1.45238
 328	1	3	-0.118951	-2.91142	50.1591	2.69743
 329	1	3	-0.044875	-2.06614	49.0522	2.81864
 330	1	2	0.461883	-1.33168	48.5101	3.9932
 331	1	1	-0.007433	-0.699832	47.3511	3.54914
 332	1	2	0.491356	-0.947058	47.1184	2.20032
 333	1	3	-0.019445	0.00135586	46.4306	4.39333
 334	1	3	-0.186861	-0.43226	45.0905	4.39302
 335	1	3	-0.068374	0.156165	44.1332	5.22338
 336	1	3	-0.009193	1.09427	46.8109	5.21927
 337	1	3	0.220761	1.67665	45.8385	6.0807
 338	1	3	-0.402098	1.19396	44.5118	6.08022
 339	1	6	0.148422	-1.23987	44.7746	3.73831
 340	1	6	0.146291	-0.207362	43.1062	5.20728
 341	1	6	0.158981	-3.10272	50.8064	3.55101
 342	1	6	0.141813	-4.18696	51.2499	1.36181
 343	1	6	0.143633	-2.27119	47.6718	-0.254914
 344	1	5	-0.474465	-0.606297	46.1627	1.52535
 345	1	5	-0.469737	-1.35953	48.9648	5.1219
 346	1	7	-0.37887	1.63387	48.2488	5.17734
 347	1	9	0.115886	1.17325	48.8675	5.95788
 348	1	9	0.123845	1.43381	48.7361	4.21641
 349	1	9	0.138418	2.72069	48.3059	5.29865
 350	1	6	0.21348	1.63592	43.7693	6.74247
 351	1	1	0.486064	1.8514	48.0785	-8.3473
 352	1	2	0.047133	1.36032	48.7024	-9.4982
 353	1	3	0.001076	2.33946	49.7702	-9.81427
 354	1	2	0.034038	3.06677	48.6296	-7.92631
 355	1	3	0.050122	3.36402	49.716	-8.89644
 356	1	5	-0.383076	0.376708	48.4198	-10.1627
 357	1	5	-0.380811	3.76929	48.2948	-6.98604
 358	1	3	-0.001248	2.31906	50.7223	-10.8354
 359	1	3	-0.036565	4.4546	50.5871	-8.98222
 360	1	3	-0.208842	4.46569	51.5461	-10.0206
 361	1	3	-0.065319	3.38957	51.6492	-10.9487
 362	1	6	0.153391	1.46775	50.7446	-11.5109
 363	1	6	0.155343	5.26592	50.5219	-8.26043
 364	1	6	0.174191	5.32026	52.2137	-10.0743
 365	1	7	-0.106637	3.2972	52.7492	-12.0492
 366	1	7	0.445763	3.52362	52.0407	-13.4419
 367	1	8	-0.144255	3.55098	52.9083	-14.4783
 368	1	8	-0.136881	2.56331	51.132	-13.724
 369	1	8	-0.144092	4.68797	51.3541	-13.469
 370	1	7	0.367264	4.35889	53.9122	-11.909
 371	1	8	-0.12104	4.38859	54.4519	-10.6702
 372	1	8	-0.122614	4.07935	54.937	-12.7454
 373	1	8	-0.112321	5.62334	53.5184	-12.1803
 374	1	3	-0.021957	1.88643	53.3854	-11.8741
 375	1	3	-0.054241	1.52885	53.8448	-10.5819
 376	1	3	-0.111709	0.232176	54.3058	-10.3534
 377	1	3	-0.087244	0.903247	53.4548	-12.9049
 378	1	3	-0.118951	-0.413945	53.8963	-12.6411
 379	1	3	-0.044875	-0.728871	54.3011	-11.3383
 380	1	2	0.461883	-2.02151	54.7188	-10.7208
 381	1	1	-0.007433	-1.73881	54.9407	-9.37553
 382	1	2	0.491356	-0.388577	54.7687	-9.09258
 383	1	3	-0.019445	-2.70281	55.3008	-8.38584
 384	1	3	-0.186861	-3.46944	56.4648	-8.5806
 385	1	3	-0.068374	-4.35567	56.9164	-7.59352
 386	1	3	-0.009193	-2.85472	54.5521	-7.18991
 387	1	3	0.220761	-3.68778	55.059	-6.16007
 388	1	3	-0.402098	-4.44597	56.2293	-6.37505
 389	1	6	0.148422	-3.37713	57.0285	-9.50646
 390	1	6	0.146291	-4.94557	57.8157	-7.76469
 391	1	6	0.158981	-1.17563	53.8986	-13.4188
 392	1	6	0.141813	1.12694	53.1333	-13.9164
 393	1	6	0.143633	2.22379	53.8003	-9.7467
 394	1	5	-0.474465	0.196922	54.9335	-8.03652
 395	1	5	-0.469737	-3.09752	54.8014	-11.2872
 396	1	7	-0.37887	-2.12655	53.2108	-6.99764
 397	1	9	0.115886	-2.73564	52.4815	-6.45007
 398	1	9	0.123845	-1.18789	53.3508	-6.44308
 399	1	9	0.138418	-1.88272	52.7266	-7.95021
 400	1	6	0.21348	-5.10426	56.6039	-5.59457
 401	1	1	0.486064	-10.9367	46.038	-9.49347
 402	1	2	0.047133	-9.70671	46.4618	-8.98884
 403	1	3	0.001076	-9.78225	46.1999	-7.5304
 404	1	2	0.034038	-11.8137	45.6075	-8.49544
 405	1	3	0.050122	-11.0275	45.6849	-7.2406
 406	1	5	-0.383076	-8.69807	46.763	-9.6054
 407	1	5	-0.380811	-12.9192	45.1042	-8.61722
 408	1	3	-0.001248	-8.76042	46.2281	-6.57757
 409	1	3	-0.036565	-11.3287	45.1915	-5.97022
 410	1	3	-0.208842	-10.3008	45.1756	-5.0047
 411	1	3	-0.065319	-8.98715	45.6385	-5.30496
 412	1	6	0.153391	-7.78495	46.6112	-6.86847
 413	1	6	0.155343	-12.3093	44.7683	-5.76431
 414	1	6	0.174191	-10.5385	44.7505	-4.03602
 415	1	7	-0.106637	-7.80018	45.4855	-4.3044
 416	1	7	0.445763	-7.95007	44.2481	-3.34092
 417	1	8	-0.144255	-8.28733	43.1276	-4.01788
 418	1	8	-0.136881	-8.88405	44.4262	-2.38465
 419	1	8	-0.144092	-6.79272	43.9758	-2.69589
 420	1	7	0.367264	-7.76908	46.8071	-3.45507
 421	1	8	-0.12104	-8.98655	47.1135	-2.95345
 422	1	8	-0.122614	-7.39221	47.865	-4.20743
 423	1	8	-0.112321	-6.93822	46.7327	-2.39416
 424	1	3	-0.021957	-6.48916	45.2257	-5.11138
 425	1	3	-0.054241	-5.25068	45.8465	-4.79578
 426	1	3	-0.111709	-4.12999	45.5765	-5.59248
 427	1	3	-0.087244	-6.51376	44.296	-6.19103
 428	1	3	-0.118951	-5.38248	44.0572	-6.99559
 429	1	3	-0.044875	-4.20084	44.7309	-6.67804
 430	1	2	0.461883	-2.8649	44.6884	-7.3272
 431	1	1	-0.007433	-2.0491	45.5165	-6.5669
 432	1	2	0.491356	-2.72952	46.0715	-5.48882
 433	1	3	-0.019445	-0.65862	45.6833	-6.83922
 434	1	3	-0.186861	0.163962	44.553	-6.68682
 435	1	3	-0.068374	1.51658	44.5975	-7.03409
 436	1	3	-0.009193	-0.116655	46.8978	-7.3382
 437	1	3	0.220761	1.25192	46.9287	-7.73857
 438	1	3	-0.402098	2.05075	45.7743	-7.56905
 439	1	6	0.148422	-0.255176	43.6202	-6.31675
 440	1	6	0.146291	2.13978	43.7127	-6.91347
 441	1	6	0.158981	-5.41886	43.3683	-7.83752
 442	1	6	0.141813	-7.43323	43.7671	-6.43089
 443	1	6	0.143633	-5.13626	46.5263	-3.96188
 444	1	5	-0.474465	-2.28651	46.7836	-4.60577
 445	1	5	-0.469737	-2.56272	44.0243	-8.30368
 446	1	7	-0.37887	-1.02204	48.1333	-7.46268
 447	1	9	0.115886	-0.462111	49.071	-7.54485
 448	1	9	0.123845	-1.66609	48.2663	-6.58757
 449	1	9	0.138418	-1.66677	48.0559	-8.34898
 450	1	6	0.21348	3.10121	45.7928	-7.8537
 451	1	1	0.486064	-12.8865	55.3495	-17.6647
 452	1	2	0.047133	-13.6849	54.5435	-18.4731
 453	1	3	0.001076	-14.3562	53.6034	-17.5431
 454	1	2	0.034038	-12.9748	55.0175	-16.3132
 455	1	3	0.050122	-13.9307	53.8801	-16.2601
 456	1	5	-0.383076	-13.8101	54.5725	-19.6858
 457	1	5	-0.380811	-12.4198	55.5478	-15.3651
 458	1	3	-0.001248	-15.2676	52.5789	-17.8182
 459	1	3	-0.036565	-14.4018	53.1435	-15.1709
 460	1	3	-0.208842	-15.3341	52.1142	-15.4236
 461	1	3	-0.065319	-15.7678	51.7949	-16.7443
 462	1	6	0.153391	-15.5587	52.4197	-18.8505
 463	1	6	0.155343	-14.0548	53.365	-14.1634
 464	1	6	0.174191	-15.7078	51.5461	-14.5747
 465	1	7	-0.106637	-16.78	50.6257	-16.9598
 466	1	7	0.445763	-18.2061	51.2066	-16.6342
 467	1	8	-0.144255	-18.3425	51.4592	-15.3134
 468	1	8	-0.136881	-19.2208	50.3875	-16.9903
 469	1	8	-0.144092	-18.4254	52.3749	-17.2758
 470	1	7	0.367264	-16.777	50.0499	-18.4258
 471	1	8	-0.12104	-15.5212	49.7769	-18.8462
 472	1	8	-0.122614	-17.3324	50.8854	-19.3316
 473	1	8	-0.112321	-17.4633	48.8869	-18.5082
 474	1	3	-0.021957	-16.3674	49.442	-16.0379
 475	1	3	-0.054241	-14.9881	49.1499	-15.8808
 476	1	3	-0.111709	-14.6053	48.1195	-15.0199
 477	1	3	-0.087244	-17.3132	48.6101	-15.3702
 478	1	3	-0.118951	-16.9047	47.5526	-14.5322
 479	1	3	-0.044875	-15.5337	47.3438	-14.3601
 480	1	2	0.461883	-14.8029	46.3745	-13.5035
 481	1	1	-0.007433	-13.4585	46.6687	-13.6824
 482	1	2	0.491356	-13.2493	47.6827	-14.6034
 483	1	3	-0.019445	-12.4215	46.0548	-12.9367
 484	1	3	-0.186861	-11.7307	44.9749	-13.5117
 485	1	3	-0.068374	-10.7447	44.2957	-12.7877
 486	1	3	-0.009193	-12.117	46.4854	-11.6234
 487	1	3	0.220761	-11.1613	45.7607	-10.8723
 488	1	3	-0.402098	-10.4754	44.677	-11.4671
 489	1	6	0.148422	-11.9637	44.6568	-14.5247
 490	1	6	0.146291	-10.2132	43.4609	-13.2416
 491	1	6	0.158981	-17.6297	46.9206	-14.0223
 492	1	6	0.141813	-18.3795	48.7619	-15.4895
 493	1	6	0.143633	-14.2196	49.7308	-16.3864
 494	1	5	-0.474465	-12.1925	48.1659	-14.9689
 495	1	5	-0.469737	-15.3033	45.5247	-12.7874
 496	1	7	-0.37887	-12.8151	47.7056	-11.0138
 497	1	9	0.115886	-13.2788	48.3643	-11.756
 498	1	9	0.123845	-12.1094	48.3383	-10.4604
 499	1	9	0.138418	-13.5989	47.3937	-10.3157
 500	1	6	0.21348	-9.72955	44.1292	-10.8959
 501	1	1	0.486064	-17.6782	69.4043	-17.4967
 502	1	2	0.047133	-16.5621	69.5217	-18.3228
 503	1	3	0.001076	-15.7063	68.3559	-17.9859
 504	1	2	0.034038	-17.6143	68.2962	-16.6538
 505	1	3	0.050122	-16.3369	67.6268	-16.9984
 506	1	5	-0.383076	-16.3328	70.3667	-19.1714
 507	1	5	-0.380811	-18.425	67.9271	-15.8204
 508	1	3	-0.001248	-14.4754	67.962	-18.5231
 509	1	3	-0.036565	-15.7764	66.4537	-16.4927
 510	1	3	-0.208842	-14.5449	66.0299	-17.0303
 511	1	3	-0.065319	-13.8758	66.7631	-18.0512
 512	1	6	0.153391	-14.0265	68.5847	-19.2897
 513	1	6	0.155343	-16.2857	65.8895	-15.7142
 514	1	6	0.174191	-14.1066	65.1124	-16.643
 515	1	7	-0.106637	-12.5174	66.2223	-18.5846
 516	1	7	0.445763	-11.4421	66.5391	-17.4749
 517	1	8	-0.144255	-10.176	66.2797	-17.8712
 518	1	8	-0.136881	-11.6525	65.8284	-16.3438
 519	1	8	-0.144092	-11.4763	67.8401	-17.1063
 520	1	7	0.367264	-12.0513	66.8804	-19.9407
 521	1	8	-0.12104	-11.6711	68.1706	-19.806
 522	1	8	-0.122614	-13.0253	66.8567	-20.8784
 523	1	8	-0.112321	-11.0016	66.2193	-20.4792
 524	1	3	-0.021957	-12.7058	64.7037	-18.8725
 525	1	3	-0.054241	-11.7972	63.7065	-18.4264
 526	1	3	-0.111709	-12.0685	62.3642	-18.7244
 527	1	3	-0.087244	-13.8419	64.2907	-19.6255
 528	1	3	-0.118951	-14.083	62.9373	-19.9325
 529	1	3	-0.044875	-13.1719	61.9898	-19.4615
 530	1	2	0.461883	-13.1608	60.5109	-19.6087
 531	1	1	-0.007433	-12.0424	60.0756	-18.908
 532	1	2	0.491356	-11.3225	61.1307	-18.3601
 533	1	3	-0.019445	-11.6517	58.7092	-18.8026
 534	1	3	-0.186861	-10.4192	58.334	-19.3687
 535	1	3	-0.068374	-9.99431	57.001	-19.3462
 536	1	3	-0.009193	-12.4729	57.7342	-18.1786
 537	1	3	0.220761	-12.0519	56.3788	-18.1854
 538	1	3	-0.402098	-10.8145	56.0252	-18.7673
 539	1	6	0.148422	-9.78333	59.0833	-19.8349
 540	1	6	0.146291	-9.04094	56.7258	-19.7945
 541	1	6	0.158981	-14.9524	62.6317	-20.5115
 542	1	6	0.141813	-14.5557	65.0299	-19.9795
 543	1	6	0.143633	-10.9024	63.9384	-17.857
 544	1	5	-0.474465	-10.2941	61.0833	-17.7086
 545	1	5	-0.469737	-13.9769	59.8443	-20.2216
 546	1	7	-0.37887	-13.8078	58.1336	-17.5306
 547	1	9	0.115886	-14.0429	57.5354	-16.6422
 548	1	9	0.123845	-14.6364	58.0214	-18.2439
 549	1	9	0.138418	-13.8082	59.1737	-17.1852
 550	1	6	0.21348	-10.4961	54.9855	-18.7832
 551	1	1	0.486064	-26.424	62.2722	-16.3441
 552	1	2	0.047133	-27.2252	63.3249	-15.9014
 553	1	3	0.001076	-27.1688	64.3399	-16.9849
 554	1	2	0.034038	-25.8909	62.498	-17.6126
 555	1	3	0.050122	-26.3688	63.8479	-17.9954
 556	1	5	-0.383076	-27.8374	63.4222	-14.851
 557	1	5	-0.380811	-25.1882	61.7632	-18.2863
 558	1	3	-0.001248	-27.7547	65.6094	-17.0591
 559	1	3	-0.036565	-26.0985	64.5993	-19.1386
 560	1	3	-0.208842	-26.6588	65.8889	-19.2241
 561	1	3	-0.065319	-27.4881	66.4212	-18.1959
 562	1	6	0.153391	-28.3757	65.9355	-16.2313
 563	1	6	0.155343	-25.4592	64.1994	-19.9228
 564	1	6	0.174191	-26.4285	66.4877	-20.1024
 565	1	7	-0.106637	-28.0302	67.8729	-18.3615
 566	1	7	0.445763	-28.6766	68.4711	-17.0535
 567	1	8	-0.144255	-27.8498	68.3702	-15.9882
 568	1	8	-0.136881	-29.837	67.866	-16.7134
 569	1	8	-0.144092	-28.9446	69.7901	-17.1854
 570	1	7	0.367264	-29.1301	67.8227	-19.4915
 571	1	8	-0.12104	-29.8404	68.9676	-19.6033
 572	1	8	-0.122614	-28.6014	67.5771	-20.7114
 573	1	8	-0.112321	-30.025	66.8343	-19.2646
 574	1	3	-0.021957	-26.8096	68.7761	-18.7007
 575	1	3	-0.054241	-25.6201	68.6082	-17.9462
 576	1	3	-0.111709	-24.5106	69.4078	-18.2322
 577	1	3	-0.087244	-26.8299	69.7816	-19.7102
 578	1	3	-0.118951	-25.6948	70.5759	-19.9844
 579	1	3	-0.044875	-24.5386	70.3612	-19.2262
 580	1	2	0.461883	-23.2104	71.0351	-19.2589
 581	1	1	-0.007433	-22.4595	70.4272	-18.2592
 582	1	2	0.491356	-23.174	69.4418	-17.5896
 583	1	3	-0.019445	-21.1329	70.8092	-17.908
 584	1	3	-0.186861	-20.9284	72.1106	-17.4143
 585	1	3	-0.068374	-19.6618	72.5264	-16.9878
 586	1	3	-0.009193	-20.0449	69.9047	-17.9949
 587	1	3	0.220761	-18.7734	70.3133	-17.5151
 588	1	3	-0.402098	-18.5903	71.6256	-17.0264
 589	1	6	0.148422	-21.7609	72.8081	-17.3596
 590	1	6	0.146291	-19.5187	73.5389	-16.6131
 591	1	6	0.158981	-25.7143	71.3425	-20.7567
 592	1	6	0.141813	-27.7236	69.9679	-20.2958
 593	1	6	0.143633	-25.5514	67.8727	-17.1476
 594	1	5	-0.474465	-22.8128	68.7449	-16.6573
 595	1	5	-0.469737	-22.8785	71.9406	-20.0042
 596	1	7	-0.37887	-20.2442	68.5038	-18.5941
 597	1	9	0.115886	-19.3471	68.1304	-19.1023
 598	1	9	0.123845	-21.0394	68.4868	-19.3487
 599	1	9	0.138418	-20.512	67.7814	-17.8091
 600	1	6	0.21348	-17.6099	71.9467	-16.6802
 601	1	1	0.486064	-17.2492	50.5599	-10.9955
 602	1	2	0.047133	-16.4599	51.5906	-11.5158
 603	1	3	0.001076	-17.4127	52.5267	-12.1732
 604	1	2	0.034038	-18.5993	50.7181	-11.3087
 605	1	3	0.050122	-18.68	51.9936	-12.0625
 606	1	5	-0.383076	-15.2451	51.6965	-11.502
 607	1	5	-0.380811	-19.5312	49.9744	-11.0502
 608	1	3	-0.001248	-17.1841	53.7553	-12.8111
 609	1	3	-0.036565	-19.7874	52.6329	-12.6218
 610	1	3	-0.208842	-19.5769	53.8598	-13.2825
 611	1	3	-0.065319	-18.2889	54.4628	-13.3617
 612	1	6	0.153391	-16.1688	54.1331	-12.8567
 613	1	6	0.155343	-20.7774	52.1877	-12.5478
 614	1	6	0.174191	-20.4378	54.3499	-13.7328
 615	1	7	-0.106637	-18.147	55.844	-14.0748
 616	1	7	0.445763	-16.8717	56.6582	-13.6307
 617	1	8	-0.144255	-16.7475	56.6966	-12.2852
 618	1	8	-0.136881	-16.9335	57.9435	-14.0466
 619	1	8	-0.144092	-15.7136	56.1536	-14.112
 620	1	7	0.367264	-18.0478	55.5456	-15.6173
 621	1	8	-0.12104	-17.7722	56.6453	-16.3544
 622	1	8	-0.122614	-19.1917	55.0083	-16.0976
 623	1	8	-0.112321	-17.0765	54.6519	-15.8913
 624	1	3	-0.021957	-19.3884	56.7092	-13.6932
 625	1	3	-0.054241	-20.2093	57.3581	-14.6557
 626	1	3	-0.111709	-21.3694	58.0136	-14.2266
 627	1	3	-0.087244	-19.7577	56.8125	-12.3213
 628	1	3	-0.118951	-20.926	57.4868	-11.9106
 629	1	3	-0.044875	-21.7268	58.0692	-12.897
 630	1	2	0.461883	-23.057	58.7293	-12.7971
 631	1	1	-0.007433	-23.4295	59.0138	-14.1053
 632	1	2	0.491356	-22.455	58.6413	-15.0236
 633	1	3	-0.019445	-24.7187	59.4902	-14.4802
 634	1	3	-0.186861	-25.8263	58.6639	-14.2154
 635	1	3	-0.068374	-27.1138	59.0375	-14.6153
 636	1	3	-0.009193	-24.8992	60.7263	-15.1485
 637	1	3	0.220761	-26.2005	61.0811	-15.5951
 638	1	3	-0.402098	-27.2972	60.2366	-15.3134
 639	1	6	0.148422	-25.6884	57.7209	-13.6923
 640	1	6	0.146291	-27.9617	58.3906	-14.3963
 641	1	6	0.158981	-21.2219	57.5231	-10.8638
 642	1	6	0.141813	-19.1542	56.3233	-11.561
 643	1	6	0.143633	-20.0062	57.333	-15.7214
 644	1	5	-0.474465	-22.4975	58.7075	-16.2395
 645	1	5	-0.469737	-23.7138	58.8675	-11.7794
 646	1	7	-0.37887	-23.6975	61.654	-15.3814