pySIMM System Object

952 atoms
1046 bonds
1824 angles
2808 dihedrals
304 impropers

9 atom types
11 bond types
18 angle types
7 dihedral types
4 improper types

-158.270496 158.270496 xlo xhi
-158.270496 158.270496 ylo yhi
-158.270496 158.270496 zlo zhi

Masses

   1	14.01	# n
   2	12.01	# c
   3	12.01	# ca
   4	1.008	# hn
   5	16.0	# o
   6	1.008	# ha
   7	12.01	# c3
   8	19.0	# f
   9	1.008	# hc

Pair Coeffs

   1	0.17	3.249998523775958	# n
   2	0.086	3.3996695084235347	# c
   3	0.086	3.3996695084235347	# ca
   4	0.0157	1.069078461768407	# hn
   5	0.21	2.959921901149463	# o
   6	0.015	2.59964245953351	# ha
   7	0.1094	3.3996695084235347	# c3
   8	0.061	3.1181455134911875	# f
   9	0.0157	2.649532787749369	# hc

Bond Coeffs

   1	427.6	1.3789	# c,n
   2	461.1	1.3984	# ca,ca
   3	345.9	1.4906	# c,ca
   4	345.8	1.086	# ca,ha
   5	637.7	1.2183	# c,o
   6	321.0	1.5156	# c3,ca
   7	300.9	1.5375	# c3,c3
   8	356.9	1.3497	# c3,f
   9	384.2	1.4121	# ca,n
  10	330.6	1.0969	# c3,hc
  11	403.2	1.0129	# hn,n

Angle Coeffs

   1	48.18	119.88	# ca,ca,ha
   2	63.15	112.07	# c3,c3,ca
   3	70.89	107.36	# f,c3,f
   4	67.87	120.19	# ca,ca,n
   5	68.72	122.6	# ca,c,o
   6	63.56	112.24	# ca,c3,ca
   7	63.82	123.71	# c,n,ca
   8	74.22	123.05	# n,c,o
   9	48.33	117.55	# c,n,hn
  10	67.68	115.25	# ca,c,n
  11	64.28	120.33	# c,ca,ca
  12	66.11	109.24	# c3,c3,f
  13	46.8	110.47	# ca,c3,hc
  14	39.4	107.58	# hc,c3,hc
  15	66.62	120.02	# ca,ca,ca
  16	63.53	120.77	# c3,ca,ca
  17	62.86	111.51	# c3,c3,c3
  18	63.74	127.08	# c,n,c

Dihedral Coeffs

   1	1	2.5	2	180	# X,c,n,X
   2	1	0.45	2	180	# X,ca,n,X
   3	2	2.5	2	180	2.0	1	0	# hn,n,c,o
   4	1	3.625	2	180	# X,ca,ca,X
   5	1	1.0	2	180	# X,c,ca,X
   6	1	0.15555555555555556	3	0	# X,c3,c3,X
   7	1	0.0	2	0	# X,c3,ca,X

Improper Coeffs

   1	1.1	-1	2	# ca,ca,ca,c3
   2	10.5	-1	2	# c,X,X,o
   3	1.1	-1	2	# ca,X,X,ha
   4	1.1	-1	2	# n,X,X,hn

Atoms

   1	1	1	0.486064	18.7687	-69.2378	-0.0689089
   2	1	2	0.047133	18.323	-69.6019	-1.34546
   3	1	3	0.001076	18.0597	-71.0622	-1.27767
   4	1	2	0.034038	18.8182	-70.3374	0.796841
   5	1	3	0.050122	18.3892	-71.5039	-0.016407
   6	1	5	-0.383076	18.2642	-68.9228	-2.35625
   7	1	5	-0.380811	19.1826	-70.377	1.9611
   8	1	3	-0.001248	17.6238	-71.9415	-2.27618
   9	1	3	-0.036565	18.3776	-72.8657	0.294911
  10	1	3	-0.208842	17.9821	-73.774	-0.710712
  11	1	3	-0.065319	17.5426	-73.3332	-1.99302
  12	1	6	0.153391	17.3957	-71.5312	-3.25378
  13	1	6	0.155343	18.6983	-73.2073	1.27669
  14	1	6	0.174191	18.0251	-74.8358	-0.479343
  15	1	7	-0.106637	17.0942	-74.3636	-3.08072
  16	1	7	0.445763	15.9327	-73.8128	-3.99275
  17	1	8	-0.144255	14.9533	-73.2527	-3.24742
  18	1	8	-0.136881	15.3513	-74.7978	-4.71553
  19	1	8	-0.144092	16.3321	-72.8794	-4.88377
  20	1	7	0.367264	18.3657	-74.6502	-3.96644
  21	1	8	-0.12104	18.9816	-73.5127	-4.36093
  22	1	8	-0.122614	18.0879	-75.3325	-5.10017
  23	1	8	-0.112321	19.2891	-75.3563	-3.27581
  24	1	3	-0.021957	16.5098	-75.6486	-2.40933
  25	1	3	-0.054241	16.7762	-76.9562	-2.89873
  26	1	3	-0.111709	16.1829	-78.0545	-2.26615
  27	1	3	-0.087244	15.6034	-75.5206	-1.31659
  28	1	3	-0.118951	15.0438	-76.6439	-0.671905
  29	1	3	-0.044875	15.3626	-77.9108	-1.16938
  30	1	2	0.461883	14.9423	-79.2661	-0.718697
  31	1	1	-0.007433	15.5163	-80.156	-1.6227
  32	1	2	0.491356	16.2811	-79.5018	-2.58222
  33	1	3	-0.019445	15.403	-81.5772	-1.55283
  34	1	3	-0.186861	16.5868	-82.34	-1.48144
  35	1	3	-0.068374	16.544	-83.7406	-1.43575
  36	1	3	-0.009193	14.1512	-82.2401	-1.59165
  37	1	3	0.220761	14.1192	-83.6484	-1.52903
  38	1	3	-0.402098	15.3049	-84.3948	-1.45254
  39	1	6	0.148422	17.5545	-81.8439	-1.47867
  40	1	6	0.146291	17.4694	-84.3123	-1.39144
  41	1	6	0.158981	14.3732	-76.5353	0.178291
  42	1	6	0.141813	15.3399	-74.5326	-0.947407
  43	1	6	0.143633	17.4148	-77.1481	-3.75368
  44	1	5	-0.474465	16.9301	-79.989	-3.49174
  45	1	5	-0.469737	14.2898	-79.5132	0.281187
  46	1	7	-0.37887	12.8305	-81.4807	-1.71481
  47	1	9	0.115886	12.908	-80.6294	-2.40132
  48	1	9	0.123845	12.5048	-81.1055	-0.735724
  49	1	9	0.138418	12.0303	-82.1281	-2.09472
  50	1	6	0.21348	15.2563	-85.4796	-1.41536
  51	1	1	0.486064	15.147	-53.6749	-4.078
  52	1	2	0.047133	14.5371	-54.8772	-4.42512
  53	1	3	0.001076	15.3879	-55.9338	-3.82975
  54	1	2	0.034038	16.3217	-53.8634	-3.34283
  55	1	3	0.050122	16.4556	-55.343	-3.19242
  56	1	5	-0.383076	13.4854	-55.05	-5.01821
  57	1	5	-0.380811	17.0545	-53.0146	-2.86262
  58	1	3	-0.001248	15.21	-57.3167	-3.84796
  59	1	3	-0.036565	17.4201	-56.1277	-2.54516
  60	1	3	-0.208842	17.2737	-57.5378	-2.57565
  61	1	3	-0.065319	16.1616	-58.16	-3.21228
  62	1	6	0.153391	14.3577	-57.7015	-4.39522
  63	1	6	0.155343	18.2666	-55.6554	-2.05098
  64	1	6	0.174191	18.0482	-58.1474	-2.11564
  65	1	7	-0.106637	16.0425	-59.7131	-3.34246
  66	1	7	0.445763	14.5397	-60.1895	-3.22767
  67	1	8	-0.144255	14.4454	-61.5165	-2.9814
  68	1	8	-0.136881	13.8034	-59.9709	-4.33907
  69	1	8	-0.144092	13.9066	-59.5646	-2.20827
  70	1	7	0.367264	16.5941	-60.0702	-4.77689
  71	1	8	-0.12104	16.0878	-59.2756	-5.74659
  72	1	8	-0.122614	16.3059	-61.3351	-5.15877
  73	1	8	-0.112321	17.9361	-59.9107	-4.83159
  74	1	3	-0.021957	16.7883	-60.4835	-2.20054
  75	1	3	-0.054241	17.524	-61.6743	-2.45669
  76	1	3	-0.111709	17.919	-62.4849	-1.3888
  77	1	3	-0.087244	16.5492	-60.1388	-0.838828
  78	1	3	-0.118951	16.975	-60.9648	0.228881
  79	1	3	-0.044875	17.6413	-62.158	-0.080712
  80	1	2	0.461883	18.0992	-63.2888	0.782451
  81	1	1	-0.007433	18.6146	-64.2421	-0.0899295
  82	1	2	0.491356	18.5623	-63.8231	-1.41182
  83	1	3	-0.019445	19.1927	-65.4858	0.303184
  84	1	3	-0.186861	20.4571	-65.4514	0.913757
  85	1	3	-0.068374	21.1321	-66.6357	1.22178
  86	1	3	-0.009193	18.5701	-66.7299	0.0160861
  87	1	3	0.220761	19.2791	-67.9401	0.278085
  88	1	3	-0.402098	20.5555	-67.8664	0.886289
  89	1	6	0.148422	20.9259	-64.4974	1.1421
  90	1	6	0.146291	22.1108	-66.5969	1.69775
  91	1	6	0.158981	16.7421	-60.7166	1.26268
  92	1	6	0.141813	15.9672	-59.2505	-0.605084
  93	1	6	0.143633	17.7357	-62.0397	-3.45443
  94	1	5	-0.474465	18.953	-64.4119	-2.40441
  95	1	5	-0.469737	18.0117	-63.3542	1.99643
  96	1	7	-0.37887	17.1499	-66.724	-0.566233
  97	1	9	0.115886	17.1776	-66.5405	-1.64972
  98	1	9	0.123845	16.5279	-65.9439	-0.110365
  99	1	9	0.138418	16.6137	-67.6662	-0.408107
 100	1	6	0.21348	21.103	-68.7792	1.11555
 101	1	1	0.486064	10.3722	-40.131	-10.8591
 102	1	2	0.047133	11.7417	-40.0457	-10.6031
 103	1	3	0.001076	12.2104	-41.4542	-10.5231
 104	1	2	0.034038	9.94047	-41.4487	-11.0261
 105	1	3	0.050122	11.139	-42.2845	-10.7653
 106	1	5	-0.383076	12.3986	-39.0558	-10.3289
 107	1	5	-0.380811	8.80292	-41.8576	-11.1928
 108	1	3	-0.001248	13.4597	-41.9595	-10.1475
 109	1	3	-0.036565	11.2551	-43.6687	-10.6282
 110	1	3	-0.208842	12.5007	-44.1979	-10.2267
 111	1	3	-0.065319	13.6297	-43.3627	-9.97576
 112	1	6	0.153391	14.2577	-41.247	-9.97387
 113	1	6	0.155343	10.3908	-44.3093	-10.7904
 114	1	6	0.174191	12.5537	-45.2727	-10.0966
 115	1	7	-0.106637	15.0091	-43.9503	-9.53011
 116	1	7	0.445763	16.0325	-43.7617	-10.7226
 117	1	8	-0.144255	15.5535	-44.2263	-11.8964
 118	1	8	-0.136881	17.1997	-44.3971	-10.4788
 119	1	8	-0.144092	16.3314	-42.4727	-10.9964
 120	1	7	0.367264	15.5623	-43.1387	-8.27854
 121	1	8	-0.12104	15.9798	-41.8802	-8.53203
 122	1	8	-0.122614	16.631	-43.7456	-7.71304
 123	1	8	-0.112321	14.6085	-42.9906	-7.33057
 124	1	3	-0.021957	14.8767	-45.4845	-9.15635
 125	1	3	-0.054241	14.8023	-45.9349	-7.80398
 126	1	3	-0.111709	14.6935	-47.3018	-7.52018
 127	1	3	-0.087244	14.785	-46.4982	-10.1625
 128	1	3	-0.118951	14.639	-47.8697	-9.85517
 129	1	3	-0.044875	14.6017	-48.2488	-8.51127
 130	1	2	0.461883	14.4127	-49.5832	-7.87004
 131	1	1	-0.007433	14.4246	-49.3461	-6.49724
 132	1	2	0.491356	14.6009	-47.9959	-6.20981
 133	1	3	-0.019445	14.1289	-50.321	-5.49204
 134	1	3	-0.186861	13.0153	-50.0663	-4.66794
 135	1	3	-0.068374	12.6403	-50.9585	-3.66023
 136	1	3	-0.009193	14.8964	-51.5028	-5.29453
 137	1	3	0.220761	14.4992	-52.4193	-4.28059
 138	1	3	-0.402098	13.3755	-52.1325	-3.47473
 139	1	6	0.148422	12.4318	-49.1587	-4.80471
 140	1	6	0.146291	11.7737	-50.7445	-3.03665
 141	1	6	0.158981	14.5464	-48.6171	-10.641
 142	1	6	0.141813	14.7774	-46.2439	-11.2136
 143	1	6	0.143633	14.8281	-45.2676	-6.95148
 144	1	5	-0.474465	14.6094	-47.4526	-5.11887
 145	1	5	-0.469737	14.1999	-50.6325	-8.45304
 146	1	7	-0.37887	16.1178	-51.789	-6.17692
 147	1	9	0.115886	15.8195	-52.3037	-7.10056
 148	1	9	0.123845	16.8717	-52.4083	-5.67702
 149	1	9	0.138418	16.6369	-50.8669	-6.46449
 150	1	6	0.21348	13.0576	-52.841	-2.71299
 151	1	1	0.486064	4.85506	-24.4134	-11.1583
 152	1	2	0.047133	4.58117	-25.528	-10.3678
 153	1	3	0.001076	5.36487	-26.6346	-10.9707
 154	1	2	0.034038	5.63975	-24.7265	-12.2719
 155	1	3	0.050122	5.98169	-26.1681	-12.1116
 156	1	5	-0.383076	4.00267	-25.5652	-9.29482
 157	1	5	-0.380811	6.13694	-23.9585	-13.0788
 158	1	3	-0.001248	5.69674	-27.8699	-10.4074
 159	1	3	-0.036565	6.92066	-26.9531	-12.7912
 160	1	3	-0.208842	7.26102	-28.2124	-12.2452
 161	1	3	-0.065319	6.69331	-28.6749	-11.0257
 162	1	6	0.153391	5.2512	-28.1119	-9.44989
 163	1	6	0.155343	7.43546	-26.558	-13.6645
 164	1	6	0.174191	8.05062	-28.7882	-12.7244
 165	1	7	-0.106637	7.34988	-29.8855	-10.2904
 166	1	7	0.445763	8.6957	-29.3276	-9.68073
 167	1	8	-0.144255	9.6401	-29.1675	-10.6353
 168	1	8	-0.136881	9.23127	-30.1146	-8.72093
 169	1	8	-0.144092	8.52098	-28.1143	-9.10739
 170	1	7	0.367264	6.45765	-30.4547	-9.1185
 171	1	8	-0.12104	6.38351	-29.6294	-8.0503
 172	1	8	-0.122614	6.92173	-31.6336	-8.64385
 173	1	8	-0.112321	5.19375	-30.6945	-9.53667
 174	1	3	-0.021957	7.56959	-31.0919	-11.2525
 175	1	3	-0.054241	8.62238	-32.0198	-11.0315
 176	1	3	-0.111709	8.57059	-33.2753	-11.6451
 177	1	3	-0.087244	6.55421	-31.4431	-12.1845
 178	1	3	-0.118951	6.52163	-32.7159	-12.7975
 179	1	3	-0.044875	7.52865	-33.6346	-12.473
 180	1	2	0.461883	7.54477	-35.1206	-12.6156
 181	1	1	-0.007433	8.56906	-35.5562	-11.7808
 182	1	2	0.491356	9.30681	-34.5049	-11.257
 183	1	3	-0.019445	8.56492	-36.8278	-11.1403
 184	1	3	-0.186861	7.67862	-36.9656	-10.0565
 185	1	3	-0.068374	7.67245	-38.1218	-9.27475
 186	1	3	-0.009193	9.46826	-37.8705	-11.4635
 187	1	3	0.220761	9.46576	-39.0468	-10.6611
 188	1	3	-0.402098	8.56679	-39.1522	-9.57467
 189	1	6	0.148422	7.00133	-36.1543	-9.80031
 190	1	6	0.146291	6.99033	-38.2081	-8.43048
 191	1	6	0.158981	5.67197	-33.0233	-13.4042
 192	1	6	0.141813	5.71299	-30.7732	-12.3434
 193	1	6	0.143633	9.38686	-31.8646	-10.2786
 194	1	5	-0.474465	10.1901	-34.5623	-10.4197
 195	1	5	-0.469737	6.66101	-35.7942	-13.1168
 196	1	7	-0.37887	10.4269	-37.6831	-12.6435
 197	1	9	0.115886	11.2125	-36.9592	-12.3873
 198	1	9	0.123845	9.89599	-37.3055	-13.527
 199	1	9	0.138418	10.9277	-38.6076	-12.9519
 200	1	6	0.21348	8.56347	-40.0471	-8.95582
 201	1	1	0.486064	-2.36564	-9.72573	-8.25631
 202	1	2	0.047133	-1.1613	-10.0762	-8.86485
 203	1	3	0.001076	-1.28524	-11.5182	-9.19673
 204	1	2	0.034038	-3.23308	-10.814	-8.13165
 205	1	3	0.050122	-2.51647	-11.9605	-8.76565
 206	1	5	-0.383076	-0.193465	-9.36847	-9.0852
 207	1	5	-0.380811	-4.34232	-10.8412	-7.62499
 208	1	3	-0.001248	-0.391676	-12.3533	-9.87688
 209	1	3	-0.036565	-2.91676	-13.2819	-8.99514
 210	1	3	-0.208842	-2.03438	-14.1395	-9.69556
 211	1	3	-0.065319	-0.756345	-13.7038	-10.1507
 212	1	6	0.153391	0.542536	-11.9106	-10.2009
 213	1	6	0.155343	-3.89718	-13.6212	-8.66808
 214	1	6	0.174191	-2.36343	-15.1542	-9.91017
 215	1	7	-0.106637	0.119633	-14.6558	-11.0427
 216	1	7	0.445763	-0.592096	-14.6994	-12.4498
 217	1	8	-0.144255	0.183991	-15.1747	-13.4484
 218	1	8	-0.136881	-0.992915	-13.4693	-12.8452
 219	1	8	-0.144092	-1.69876	-15.4753	-12.4127
 220	1	7	0.367264	1.59414	-14.1185	-11.2228
 221	1	8	-0.12104	2.41124	-14.9978	-11.8442
 222	1	8	-0.122614	2.16579	-13.8711	-10.0221
 223	1	8	-0.112321	1.6604	-12.9844	-11.956
 224	1	3	-0.021957	0.256955	-16.0879	-10.4255
 225	1	3	-0.054241	0.693703	-17.1869	-11.2197
 226	1	3	-0.111709	1.02594	-18.4021	-10.6059
 227	1	3	-0.087244	0.139631	-16.296	-9.02211
 228	1	3	-0.118951	0.44788	-17.5384	-8.42484
 229	1	3	-0.044875	0.90906	-18.5759	-9.24452
 230	1	2	0.461883	1.59869	-19.8449	-8.87682
 231	1	1	-0.007433	2.18265	-20.3065	-10.0539
 232	1	2	0.491356	1.80182	-19.5502	-11.1556
 233	1	3	-0.019445	3.35384	-21.1246	-10.0597
 234	1	3	-0.186861	4.49537	-20.5556	-9.46341
 235	1	3	-0.068374	5.72279	-21.2205	-9.46583
 236	1	3	-0.009193	3.43845	-22.4058	-10.6695
 237	1	3	0.220761	4.68837	-23.0868	-10.6587
 238	1	3	-0.402098	5.81671	-22.4797	-10.0633
 239	1	6	0.148422	4.43411	-19.5756	-8.99609
 240	1	6	0.146291	6.59392	-20.7597	-9.00292
 241	1	6	0.158981	0.42749	-17.6614	-7.34368
 242	1	6	0.141813	-0.121689	-15.4701	-8.36681
 243	1	6	0.143633	0.904378	-17.0853	-12.2789
 244	1	5	-0.474465	2.21044	-19.6473	-12.2996
 245	1	5	-0.469737	1.81262	-20.229	-7.73976
 246	1	7	-0.37887	2.21562	-23.032	-11.347
 247	1	9	0.115886	1.27467	-22.5944	-10.9944
 248	1	9	0.123845	2.14052	-24.1093	-11.1521
 249	1	9	0.138418	2.25759	-22.8818	-12.4348
 250	1	6	0.21348	6.77381	-22.9966	-10.0569
 251	1	1	0.486064	-2.94113	5.17671	-13.2955
 252	1	2	0.047133	-2.41274	4.14521	-12.5155
 253	1	3	0.001076	-2.70475	2.8905	-13.2687
 254	1	2	0.034038	-3.54776	4.71386	-14.458
 255	1	3	0.050122	-3.38315	3.24058	-14.4177
 256	1	5	-0.383076	-1.83494	4.23192	-11.4458
 257	1	5	-0.380811	-4.10533	5.36089	-15.329
 258	1	3	-0.001248	-2.35724	1.55452	-13.0013
 259	1	3	-0.036565	-3.78025	2.28011	-15.3442
 260	1	3	-0.208842	-3.4232	0.938521	-15.1059
 261	1	3	-0.065319	-2.67915	0.541716	-13.9521
 262	1	6	0.153391	-1.80292	1.32774	-12.0943
 263	1	6	0.155343	-4.31617	2.57556	-16.2437
 264	1	6	0.174191	-3.71304	0.232618	-15.8754
 265	1	7	-0.106637	-2.09671	-0.909983	-13.7799
 266	1	7	0.445763	-2.5374	-1.89074	-14.9384
 267	1	8	-0.144255	-2.09045	-3.15528	-14.768
 268	1	8	-0.136881	-2.09171	-1.49936	-16.1546
 269	1	8	-0.144092	-3.88458	-2.00123	-15.0019
 270	1	7	0.367264	-0.522974	-0.751267	-13.8266
 271	1	8	-0.12104	-0.141434	0.112348	-14.7965
 272	1	8	-0.122614	0.14974	-1.89713	-14.068
 273	1	8	-0.112321	-0.0354845	-0.26851	-12.6622
 274	1	3	-0.021957	-2.58245	-1.57488	-12.4525
 275	1	3	-0.054241	-1.90107	-2.69553	-11.899
 276	1	3	-0.111709	-2.45278	-3.365	-10.7965
 277	1	3	-0.087244	-3.80388	-1.17479	-11.8397
 278	1	3	-0.118951	-4.3299	-1.84893	-10.7134
 279	1	3	-0.044875	-3.63297	-2.95695	-10.2147
 280	1	2	0.461883	-3.96578	-3.91121	-9.11397
 281	1	1	-0.007433	-2.96135	-4.87479	-9.12918
 282	1	2	0.491356	-1.99597	-4.59509	-10.093
 283	1	3	-0.019445	-2.90006	-5.99814	-8.24011
 284	1	3	-0.186861	-2.82049	-5.7499	-6.85663
 285	1	3	-0.068374	-2.67965	-6.80222	-5.94177
 286	1	3	-0.009193	-2.86591	-7.3393	-8.71069
 287	1	3	0.220761	-2.63164	-8.39871	-7.79179
 288	1	3	-0.402098	-2.56005	-8.11844	-6.40918
 289	1	6	0.148422	-2.871	-4.72831	-6.48691
 290	1	6	0.146291	-2.62814	-6.59082	-4.87476
 291	1	6	0.158981	-5.27125	-1.54095	-10.2616
 292	1	6	0.141813	-4.38055	-0.3534	-12.255
 293	1	6	0.143633	-0.990449	-3.09229	-12.3374
 294	1	5	-0.474465	-0.98345	-5.22252	-10.3446
 295	1	5	-0.469737	-4.93539	-3.85538	-8.37627
 296	1	7	-0.37887	-3.08815	-7.64883	-10.196
 297	1	9	0.115886	-3.63798	-8.5871	-10.3425
 298	1	9	0.123845	-2.1303	-7.72475	-10.729
 299	1	9	0.138418	-3.68608	-6.87607	-10.6935
 300	1	6	0.21348	-2.40176	-8.9262	-5.69813
 301	1	1	0.486064	-6.90913	2.21646	-5.91715
 302	1	2	0.047133	-7.38955	3.27153	-5.14016
 303	1	3	0.001076	-7.74235	4.33658	-6.11376
 304	1	2	0.034038	-6.92825	2.48548	-7.28078
 305	1	3	0.050122	-7.47015	3.85837	-7.38124
 306	1	5	-0.383076	-7.51244	3.32524	-3.92793
 307	1	5	-0.380811	-6.60145	1.76148	-8.2082
 308	1	3	-0.001248	-8.27889	5.61538	-5.90473
 309	1	3	-0.036565	-7.73564	4.61445	-8.51803
 310	1	3	-0.208842	-8.29882	5.88804	-8.3346
 311	1	3	-0.065319	-8.56003	6.42366	-7.03888
 312	1	6	0.153391	-8.47418	5.94209	-4.88829
 313	1	6	0.155343	-7.52633	4.2158	-9.50768
 314	1	6	0.174191	-8.53061	6.46643	-9.22558
 315	1	7	-0.106637	-9.17714	7.84998	-6.94852
 316	1	7	0.445763	-10.7197	7.66455	-7.21691
 317	1	8	-0.144255	-10.9664	7.19934	-8.46289
 318	1	8	-0.136881	-11.4264	8.80787	-7.07386
 319	1	8	-0.144092	-11.2658	6.75701	-6.37526
 320	1	7	0.367264	-8.98258	8.56815	-5.56383
 321	1	8	-0.12104	-9.72398	8.04054	-4.56441
 322	1	8	-0.122614	-9.3263	9.87022	-5.65985
 323	1	8	-0.112321	-7.69832	8.53703	-5.14708
 324	1	3	-0.021957	-8.43156	8.70648	-8.01551
 325	1	3	-0.054241	-7.01553	8.61923	-8.05571
 326	1	3	-0.111709	-6.339	9.07647	-9.18809
 327	1	3	-0.087244	-9.09629	9.39898	-9.06782
 328	1	3	-0.118951	-8.39256	9.85127	-10.2043
 329	1	3	-0.044875	-7.01131	9.63213	-10.2565
 330	1	2	0.461883	-6.08378	9.66188	-11.4221
 331	1	1	-0.007433	-4.92124	9.04788	-10.9723
 332	1	2	0.491356	-4.95318	8.76764	-9.61498
 333	1	3	-0.019445	-3.93764	8.48923	-11.833
 334	1	3	-0.186861	-2.93026	9.31659	-12.3556
 335	1	3	-0.068374	-1.92669	8.78058	-13.1729
 336	1	3	-0.009193	-3.96315	7.10512	-12.1419
 337	1	3	0.220761	-2.92855	6.55832	-12.943
 338	1	3	-0.402098	-1.92098	7.40636	-13.4574
 339	1	6	0.148422	-2.92763	10.3802	-12.1299
 340	1	6	0.146291	-1.15628	9.43189	-13.5836
 341	1	6	0.158981	-8.91943	10.2626	-11.0635
 342	1	6	0.141813	-10.1758	9.50549	-9.07562
 343	1	6	0.143633	-6.45971	8.05604	-7.30777
 344	1	5	-0.474465	-4.10981	8.19171	-8.95042
 345	1	5	-0.469737	-6.38911	9.92988	-12.5712
 346	1	7	-0.37887	-5.11243	6.2285	-11.6136
 347	1	9	0.115886	-4.96627	5.99336	-10.5504
 348	1	9	0.123845	-5.22286	5.27708	-12.1453
 349	1	9	0.138418	-6.07961	6.7348	-11.7221
 350	1	6	0.21348	-1.14183	6.99924	-14.098
 351	1	1	0.486064	4.98959	-3.60278	-8.26263
 352	1	2	0.047133	5.42916	-2.81483	-7.19447
 353	1	3	0.001076	4.32316	-2.84837	-6.21066
 354	1	2	0.034038	3.79075	-4.25672	-7.98524
 355	1	3	0.050122	3.36824	-3.73509	-6.65981
 356	1	5	-0.383076	6.45024	-2.15356	-7.09903
 357	1	5	-0.380811	3.15136	-5.00153	-8.70805
 358	1	3	-0.001248	4.12659	-2.06376	-5.07044
 359	1	3	-0.036565	2.19654	-3.95794	-5.93527
 360	1	3	-0.208842	1.99879	-3.21241	-4.7532
 361	1	3	-0.065319	2.92179	-2.20887	-4.33368
 362	1	6	0.153391	4.89456	-1.34723	-4.79629
 363	1	6	0.155343	1.45656	-4.67095	-6.29408
 364	1	6	0.174191	1.0916	-3.40322	-4.18619
 365	1	7	-0.106637	2.63174	-1.31822	-3.08695
 366	1	7	0.445763	3.08171	0.182132	-3.30564
 367	1	8	-0.144255	2.48457	1.01517	-2.42255
 368	1	8	-0.136881	2.75359	0.630412	-4.53879
 369	1	8	-0.144092	4.41061	0.386676	-3.17284
 370	1	7	0.367264	3.4475	-1.93482	-1.89068
 371	1	8	-0.12104	3.00024	-3.1726	-1.57972
 372	1	8	-0.122614	3.38696	-1.17437	-0.773785
 373	1	8	-0.112321	4.75981	-2.08654	-2.17947
 374	1	3	-0.021957	1.09178	-1.27059	-2.82876
 375	1	3	-0.054241	0.236705	-0.878624	-3.893
 376	1	3	-0.111709	-1.1448	-0.833313	-3.68003
 377	1	3	-0.087244	0.492901	-1.58636	-1.57233
 378	1	3	-0.118951	-0.902041	-1.52817	-1.37866
 379	1	3	-0.044875	-1.69977	-1.14214	-2.45739
 380	1	2	0.461883	-3.1749	-0.99887	-2.56188
 381	1	1	-0.007433	-3.41532	-0.612904	-3.87341
 382	1	2	0.491356	-2.24765	-0.501327	-4.61784
 383	1	3	-0.019445	-4.71819	-0.408249	-4.40159
 384	1	3	-0.186861	-5.58063	-1.51722	-4.46884
 385	1	3	-0.068374	-6.87028	-1.3937	-4.99602
 386	1	3	-0.009193	-5.15149	0.860912	-4.85736
 387	1	3	0.220761	-6.45893	0.979186	-5.39055
 388	1	3	-0.402098	-7.30772	-0.147283	-5.45888
 389	1	6	0.148422	-5.24724	-2.48858	-4.11268
 390	1	6	0.146291	-7.5199	-2.26551	-5.05378
 391	1	6	0.158981	-1.35272	-1.77774	-0.419746
 392	1	6	0.141813	1.08839	-1.88433	-0.717699
 393	1	6	0.143633	0.629095	-0.638376	-4.87858
 394	1	5	-0.474465	-2.12755	-0.242065	-5.80222
 395	1	5	-0.469737	-3.98388	-1.21474	-1.67581
 396	1	7	-0.37887	-4.21273	2.07833	-4.81335
 397	1	9	0.115886	-4.73862	3.01503	-4.59325
 398	1	9	0.123845	-3.69389	2.20296	-5.7746
 399	1	9	0.138418	-3.44518	1.99341	-4.03684
 400	1	6	0.21348	-8.30393	-0.0583665	-5.88629
 401	1	1	0.486064	2.05533	5.52004	-7.21189
 402	1	2	0.047133	2.20543	4.53156	-8.18518
 403	1	3	0.001076	3.34735	4.9825	-9.02463
 404	1	2	0.034038	3.05155	6.49657	-7.2863
 405	1	3	0.050122	3.83953	6.15456	-8.49593
 406	1	5	-0.383076	1.51529	3.54417	-8.37554
 407	1	5	-0.380811	3.22609	7.46425	-6.56431
 408	1	3	-0.001248	3.84152	4.45644	-10.2228
 409	1	3	-0.036565	4.851	6.86832	-9.14029
 410	1	3	-0.208842	5.3134	6.39138	-10.3858
 411	1	3	-0.065319	4.80457	5.19221	-10.9693
 412	1	6	0.153391	3.42757	3.51783	-10.574
 413	1	6	0.155343	5.22265	7.7977	-8.71334
 414	1	6	0.174191	6.05306	7.00191	-10.8904
 415	1	7	-0.106637	5.22774	4.68265	-12.3888
 416	1	7	0.445763	6.20949	5.65551	-13.1642
 417	1	8	-0.144255	7.36253	5.89861	-12.5016
 418	1	8	-0.136881	5.6543	6.86077	-13.4221
 419	1	8	-0.144092	6.60738	5.13721	-14.3478
 420	1	7	0.367264	3.91027	4.55939	-13.2697
 421	1	8	-0.12104	3.19521	5.70688	-13.2435
 422	1	8	-0.122614	3.06121	3.59514	-12.8541
 423	1	8	-0.112321	4.14803	4.28005	-14.5702
 424	1	3	-0.021957	5.99729	3.34819	-12.1849
 425	1	3	-0.054241	5.6646	2.13824	-12.8514
 426	1	3	-0.111709	6.41113	0.984266	-12.5716
 427	1	3	-0.087244	7.08217	3.3314	-11.2636
 428	1	3	-0.118951	7.84092	2.17195	-11.024
 429	1	3	-0.044875	7.48154	1.00618	-11.7009
 430	1	2	0.461883	7.90185	-0.389151	-11.4299
 431	1	1	-0.007433	6.93428	-1.17399	-12.041
 432	1	2	0.491356	6.08672	-0.439441	-12.8628
 433	1	3	-0.019445	6.55567	-2.41334	-11.4577
 434	1	3	-0.186861	6.9806	-3.63032	-12.0161
 435	1	3	-0.068374	6.69022	-4.84111	-11.3709
 436	1	3	-0.009193	5.81946	-2.39629	-10.2475
 437	1	3	0.220761	5.61618	-3.6128	-9.54556
 438	1	3	-0.402098	6.02912	-4.83034	-10.1323
 439	1	6	0.148422	7.53616	-3.63849	-12.9503
 440	1	6	0.146291	7.00292	-5.78353	-11.8182
 441	1	6	0.158981	8.63281	2.15718	-10.2773
 442	1	6	0.141813	7.33212	4.22565	-10.6992
 443	1	6	0.143633	4.81745	2.05312	-13.5243
 444	1	5	-0.474465	5.07316	-0.82757	-13.4158
 445	1	5	-0.469737	8.73184	-0.732044	-10.6049
 446	1	7	-0.37887	5.26944	-1.05609	-9.71577
 447	1	9	0.115886	6.05758	-0.487886	-9.20219
 448	1	9	0.123845	4.43749	-1.17099	-9.01334
 449	1	9	0.138418	4.86218	-0.428059	-10.515
 450	1	6	0.21348	5.82035	-5.7724	-9.62831
 451	1	1	0.486064	-8.94533	8.79099	-0.760316
 452	1	2	0.047133	-7.61324	9.04747	-1.089
 453	1	3	0.001076	-7.65911	10.1534	-2.07438
 454	1	2	0.034038	-9.83647	9.61455	-1.4473
 455	1	3	0.050122	-8.97823	10.4947	-2.28258
 456	1	5	-0.383076	-6.60803	8.48432	-0.68869
 457	1	5	-0.380811	-11.0559	9.60484	-1.41918
 458	1	3	-0.001248	-6.61236	10.789	-2.75018
 459	1	3	-0.036565	-9.32313	11.514	-3.17071
 460	1	3	-0.208842	-8.28543	12.1456	-3.88944
 461	1	3	-0.065319	-6.91732	11.7809	-3.72073
 462	1	6	0.153391	-5.59425	10.487	-2.5223
 463	1	6	0.155343	-10.3661	11.7848	-3.32001
 464	1	6	0.174191	-8.57059	12.9277	-4.58582
 465	1	7	-0.106637	-5.78921	12.4832	-4.53932
 466	1	7	0.445763	-6.16948	12.6113	-6.06741
 467	1	8	-0.144255	-6.68506	11.4609	-6.5527
 468	1	8	-0.136881	-5.08674	12.9002	-6.82464
 469	1	8	-0.144092	-7.08093	13.5711	-6.33967
 470	1	7	0.367264	-5.61633	13.9314	-3.93468
 471	1	8	-0.12104	-5.21008	13.8776	-2.64573
 472	1	8	-0.122614	-6.76427	14.645	-3.91548
 473	1	8	-0.112321	-4.72736	14.6822	-4.62526
 474	1	3	-0.021957	-4.46926	11.6344	-4.48456
 475	1	3	-0.054241	-4.48134	10.2771	-4.92157
 476	1	3	-0.111709	-3.29546	9.52477	-4.8868
 477	1	3	-0.087244	-3.22457	12.1696	-4.0343
 478	1	3	-0.118951	-2.04544	11.4028	-4.01409
 479	1	3	-0.044875	-2.11297	10.0803	-4.44918
 480	1	2	0.461883	-1.04517	9.05635	-4.53399
 481	1	1	-0.007433	-1.65676	7.91523	-5.02943
 482	1	2	0.491356	-3.01843	8.10319	-5.26142
 483	1	3	-0.019445	-0.914935	6.71641	-5.2392
 484	1	3	-0.186861	-1.02124	5.68074	-4.29382
 485	1	3	-0.068374	-0.160654	4.57576	-4.3449
 486	1	3	-0.009193	0.0584381	6.64196	-6.26629
 487	1	3	0.220761	0.978171	5.5579	-6.27426
 488	1	3	-0.402098	0.846936	4.52477	-5.31886
 489	1	6	0.148422	-1.75809	5.74666	-3.49707
 490	1	6	0.146291	-0.249995	3.78225	-3.60453
 491	1	6	0.158981	-1.10198	11.8231	-3.67039
 492	1	6	0.141813	-3.12876	13.1915	-3.69037
 493	1	6	0.143633	-5.39425	9.80264	-5.26826
 494	1	5	-0.474465	-3.84575	7.28306	-5.622
 495	1	5	-0.469737	0.121828	9.20799	-4.21466
 496	1	7	-0.37887	0.117756	7.74649	-7.33291
 497	1	9	0.115886	-0.870731	8.18023	-7.53058
 498	1	9	0.123845	0.469978	7.37443	-8.3024
 499	1	9	0.138418	0.786074	8.56076	-7.01894
 500	1	6	0.21348	1.53076	3.67839	-5.33752
 501	1	1	0.486064	-0.958787	7.127	9.79959
 502	1	2	0.047133	-2.01007	7.7146	9.09097
 503	1	3	0.001076	-3.25266	7.16101	9.69352
 504	1	2	0.034038	-1.40935	6.25341	10.7903
 505	1	3	0.050122	-2.89073	6.29983	10.7067
 506	1	5	-0.383076	-1.94951	8.47135	8.13667
 507	1	5	-0.380811	-0.751186	5.53825	11.5277
 508	1	3	-0.001248	-4.59544	7.35614	9.34194
 509	1	3	-0.036565	-3.85152	5.60248	11.4396
 510	1	3	-0.208842	-5.20999	5.79506	11.1119
 511	1	3	-0.065319	-5.61429	6.65936	10.0511
 512	1	6	0.153391	-4.82972	8.01146	8.50708
 513	1	6	0.155343	-3.54875	4.92143	12.2325
 514	1	6	0.174191	-5.93225	5.23817	11.6983
 515	1	7	-0.106637	-7.10894	6.83914	9.61277
 516	1	7	0.445763	-7.49918	8.33362	9.9404
 517	1	8	-0.144255	-8.82733	8.58024	9.90351
 518	1	8	-0.136881	-6.92803	9.20021	9.07457
 519	1	8	-0.144092	-7.0815	8.69105	11.1761
 520	1	7	0.367264	-8.10836	5.87565	10.3582
 521	1	8	-0.12104	-8.1839	6.12661	11.6853
 522	1	8	-0.122614	-7.7576	4.57867	10.2022
 523	1	8	-0.112321	-9.36853	5.96577	9.87617
 524	1	3	-0.021957	-7.22283	6.50507	8.09471
 525	1	3	-0.054241	-8.21633	7.08347	7.25409
 526	1	3	-0.111709	-8.23255	6.74857	5.88982
 527	1	3	-0.087244	-6.33672	5.54694	7.52428
 528	1	3	-0.118951	-6.35014	5.24843	6.15014
 529	1	3	-0.044875	-7.30173	5.88458	5.35268
 530	1	2	0.461883	-7.5445	5.77201	3.89445
 531	1	1	-0.007433	-8.65359	6.56255	3.63533
 532	1	2	0.491356	-9.13821	7.18117	4.78353
 533	1	3	-0.019445	-9.20922	6.67629	2.32822
 534	1	3	-0.186861	-9.89735	5.5666	1.8045
 535	1	3	-0.068374	-10.3387	5.55645	0.476123
 536	1	3	-0.009193	-8.95303	7.80293	1.50988
 537	1	3	0.220761	-9.33967	7.76195	0.143113
 538	1	3	-0.402098	-10.0501	6.6464	-0.354867
 539	1	6	0.148422	-10.0683	4.69104	2.42562
 540	1	6	0.146291	-10.8635	4.6866	0.0831534
 541	1	6	0.158981	-5.6482	4.53961	5.71579
 542	1	6	0.141813	-5.6125	5.02613	8.14427
 543	1	6	0.143633	-8.96404	7.77474	7.63095
 544	1	5	-0.474465	-10.1101	7.90869	4.89151
 545	1	5	-0.469737	-6.8856	5.11634	3.10654
 546	1	7	-0.37887	-8.23129	9.01976	2.10699
 547	1	9	0.115886	-8.66008	9.30011	3.07685
 548	1	9	0.123845	-8.30815	9.92057	1.48784
 549	1	9	0.138418	-7.16339	8.8089	2.25075
 550	1	6	0.21348	-10.3605	6.61715	-1.39748
 551	1	1	0.486064	10.2726	3.50388	10.1004
 552	1	2	0.047133	10.8068	4.61764	10.7417
 553	1	3	0.001076	10.0308	4.74246	11.9932
 554	1	2	0.034038	9.34333	2.81736	10.882
 555	1	3	0.050122	9.19252	3.65782	12.1033
 556	1	5	-0.383076	11.5873	5.44313	10.2977
 557	1	5	-0.380811	8.64873	1.86631	10.5646
 558	1	3	-0.001248	9.91611	5.85593	12.8253
 559	1	3	-0.036565	8.27684	3.58194	13.1525
 560	1	3	-0.208842	8.1938	4.67199	14.0494
 561	1	3	-0.065319	8.94986	5.87476	13.8707
 562	1	6	0.153391	10.5304	6.70102	12.5566
 563	1	6	0.155343	7.60263	2.7312	13.2303
 564	1	6	0.174191	7.44588	4.58011	14.8248
 565	1	7	-0.106637	8.60355	7.22072	14.6242
 566	1	7	0.445763	9.92771	8.0815	14.8458
 567	1	8	-0.144255	10.4567	8.59262	13.7133
 568	1	8	-0.136881	10.9038	7.33762	15.4125
 569	1	8	-0.144092	9.7625	9.16783	15.6319
 570	1	7	0.367264	7.98108	6.98457	16.0668
 571	1	8	-0.12104	7.70849	8.13586	16.7195
 572	1	8	-0.122614	6.78825	6.35366	16.0665
 573	1	8	-0.112321	8.80299	6.25542	16.8537
 574	1	3	-0.021957	7.53309	7.93437	13.7339
 575	1	3	-0.054241	6.38542	7.19767	13.3423
 576	1	3	-0.111709	5.46288	7.75696	12.4596
 577	1	3	-0.087244	7.65581	9.26494	13.2292
 578	1	3	-0.118951	6.72073	9.80539	12.3134
 579	1	3	-0.044875	5.62863	9.01575	11.9312
 580	1	2	0.461883	4.53819	9.2392	10.934
 581	1	1	-0.007433	3.78968	8.06672	10.9342
 582	1	2	0.491356	4.26534	7.13777	11.8463
 583	1	3	-0.019445	2.75531	7.75803	10.0062
 584	1	3	-0.186861	3.13923	7.34508	8.71893
 585	1	3	-0.068374	2.18312	6.92212	7.79038
 586	1	3	-0.009193	1.39009	7.74675	10.385
 587	1	3	0.220761	0.419743	7.27901	9.45356
 588	1	3	-0.402098	0.832871	6.88585	8.15943
 589	1	6	0.148422	4.19092	7.33379	8.44267
 590	1	6	0.146291	2.4932	6.59676	6.79839
 591	1	6	0.158981	6.85476	10.8006	11.8935
 592	1	6	0.141813	8.48849	9.89952	13.5111
 593	1	6	0.143633	6.2038	6.18551	13.6818
 594	1	5	-0.474465	3.8607	6.00737	12.0547
 595	1	5	-0.469737	4.40872	10.2063	10.2039
 596	1	7	-0.37887	1.01794	8.2326	11.7926
 597	1	9	0.115886	1.42036	9.23677	11.9793
 598	1	9	0.123845	1.42649	7.55715	12.5568
 599	1	9	0.138418	-0.0601634	8.29404	11.9743
 600	1	6	0.21348	0.0964	6.53978	7.43601
 601	1	1	0.486064	2.52426	10.7988	4.37276
 602	1	2	0.047133	3.90903	10.6392	4.37059
 603	1	3	0.001076	4.17367	9.58097	3.36876
 604	1	2	0.034038	1.8721	9.88457	3.54496
 605	1	3	0.050122	2.96657	9.14149	2.86721
 606	1	5	-0.383076	4.75077	11.2932	4.96341
 607	1	5	-0.380811	0.677179	9.78214	3.31923
 608	1	3	-0.001248	5.3934	9.15381	2.83822
 609	1	3	-0.036565	2.91668	8.24597	1.79648
 610	1	3	-0.208842	4.13653	7.82297	1.22494
 611	1	3	-0.065319	5.39228	8.27434	1.72566
 612	1	6	0.153391	6.31554	9.5704	3.2362
 613	1	6	0.155343	1.95893	7.94056	1.3803
 614	1	6	0.174191	4.0753	7.17854	0.3538
 615	1	7	-0.106637	6.74486	7.97932	1.01805
 616	1	7	0.445763	6.69266	6.76845	0.0023777
 617	1	8	-0.144255	6.11722	5.66858	0.537644
 618	1	8	-0.136881	7.93422	6.39319	-0.381546
 619	1	8	-0.144092	6.008	7.0381	-1.13179
 620	1	7	0.367264	7.10408	9.2851	0.202261
 621	1	8	-0.12104	8.20692	9.14095	-0.567051
 622	1	8	-0.122614	7.31836	10.3525	1.00482
 623	1	8	-0.112321	6.09907	9.65905	-0.621813
 624	1	3	-0.021957	7.79439	7.60867	2.11258
 625	1	3	-0.054241	7.52685	6.51422	2.97899
 626	1	3	-0.111709	8.50757	6.10681	3.89426
 627	1	3	-0.087244	9.04195	8.28536	2.2574
 628	1	3	-0.118951	9.99773	7.88497	3.21241
 629	1	3	-0.044875	9.7085	6.77403	4.00769
 630	1	2	0.461883	10.5429	6.07366	5.0184
 631	1	1	-0.007433	9.78416	4.99137	5.44191
 632	1	2	0.491356	8.53765	4.94716	4.82927
 633	1	3	-0.019445	10.25	4.05596	6.40845
 634	1	3	-0.186861	11.1863	3.08784	6.00148
 635	1	3	-0.068374	11.7567	2.204	6.92735
 636	1	3	-0.009193	9.86884	4.14479	7.76833
 637	1	3	0.220761	10.4928	3.28519	8.71262