pySIMM System Object

1502 atoms
1651 bonds
2880 angles
4436 dihedrals
480 impropers

9 atom types
11 bond types
18 angle types
7 dihedral types
4 improper types

-185.541812 185.541812 xlo xhi
-185.541812 185.541812 ylo yhi
-185.541812 185.541812 zlo zhi

Masses

   1	14.01	# n
   2	12.01	# c
   3	12.01	# ca
   4	1.008	# hn
   5	16.0	# o
   6	1.008	# ha
   7	12.01	# c3
   8	19.0	# f
   9	1.008	# hc

Pair Coeffs

   1	0.17	3.249998523775958	# n
   2	0.086	3.3996695084235347	# c
   3	0.086	3.3996695084235347	# ca
   4	0.0157	1.069078461768407	# hn
   5	0.21	2.959921901149463	# o
   6	0.015	2.59964245953351	# ha
   7	0.1094	3.3996695084235347	# c3
   8	0.061	3.1181455134911875	# f
   9	0.0157	2.649532787749369	# hc

Bond Coeffs

   1	427.6	1.3789	# c,n
   2	461.1	1.3984	# ca,ca
   3	345.9	1.4906	# c,ca
   4	345.8	1.086	# ca,ha
   5	637.7	1.2183	# c,o
   6	321.0	1.5156	# c3,ca
   7	300.9	1.5375	# c3,c3
   8	356.9	1.3497	# c3,f
   9	384.2	1.4121	# ca,n
  10	330.6	1.0969	# c3,hc
  11	403.2	1.0129	# hn,n

Angle Coeffs

   1	48.18	119.88	# ca,ca,ha
   2	63.15	112.07	# c3,c3,ca
   3	70.89	107.36	# f,c3,f
   4	67.87	120.19	# ca,ca,n
   5	68.72	122.6	# ca,c,o
   6	63.56	112.24	# ca,c3,ca
   7	63.82	123.71	# c,n,ca
   8	74.22	123.05	# n,c,o
   9	48.33	117.55	# c,n,hn
  10	67.68	115.25	# ca,c,n
  11	64.28	120.33	# c,ca,ca
  12	66.11	109.24	# c3,c3,f
  13	46.8	110.47	# ca,c3,hc
  14	39.4	107.58	# hc,c3,hc
  15	66.62	120.02	# ca,ca,ca
  16	63.53	120.77	# c3,ca,ca
  17	62.86	111.51	# c3,c3,c3
  18	63.74	127.08	# c,n,c

Dihedral Coeffs

   1	1	2.5	2	180	# X,c,n,X
   2	1	0.45	2	180	# X,ca,n,X
   3	2	2.5	2	180	2.0	1	0	# hn,n,c,o
   4	1	3.625	2	180	# X,ca,ca,X
   5	1	1.0	2	180	# X,c,ca,X
   6	1	0.15555555555555556	3	0	# X,c3,c3,X
   7	1	0.0	2	0	# X,c3,ca,X

Improper Coeffs

   1	1.1	-1	2	# ca,ca,ca,c3
   2	10.5	-1	2	# c,X,X,o
   3	1.1	-1	2	# ca,X,X,ha
   4	1.1	-1	2	# n,X,X,hn

Atoms

   1	1	1	0.486064	-40.3983	35.7472	41.8063
   2	1	2	0.047133	-39.7901	36.7699	41.0815
   3	1	3	0.001076	-39.2084	37.6777	42.1036
   4	1	2	0.034038	-40.2409	35.8924	43.1835
   5	1	3	0.050122	-39.4763	37.1552	43.3522
   6	1	5	-0.383076	-39.777	36.9366	39.8736
   7	1	5	-0.380811	-40.6764	35.1816	44.0739
   8	1	3	-0.001248	-38.5622	38.9087	41.9421
   9	1	3	-0.036565	-39.108	37.8366	44.5146
  10	1	3	-0.208842	-38.4561	39.0803	44.3748
  11	1	3	-0.065319	-38.1655	39.637	43.097
  12	1	6	0.153391	-38.4216	39.2828	40.9338
  13	1	6	0.155343	-39.352	37.4277	45.4928
  14	1	6	0.174191	-38.2049	39.6322	45.2784
  15	1	7	-0.106637	-37.546	41.0647	43.0127
  16	1	7	0.445763	-36.8199	41.3561	41.6441
  17	1	8	-0.144255	-35.985	40.3484	41.303
  18	1	8	-0.136881	-36.061	42.4742	41.709
  19	1	8	-0.144092	-37.6702	41.5322	40.6081
  20	1	7	0.367264	-38.7515	42.0659	43.1784
  21	1	8	-0.12104	-39.7812	41.751	42.3594
  22	1	8	-0.122614	-38.4237	43.3488	42.9038
  23	1	8	-0.112321	-39.2527	42.0369	44.4345
  24	1	3	-0.021957	-36.4552	41.2181	44.1155
  25	1	3	-0.054241	-36.3345	42.3826	44.9207
  26	1	3	-0.111709	-35.2988	42.455	45.8595
  27	1	3	-0.087244	-35.4949	40.1812	44.2888
  28	1	3	-0.118951	-34.4548	40.277	45.237
  29	1	3	-0.044875	-34.3829	41.4359	46.0159
  30	1	2	0.461883	-33.4191	41.8333	47.0788
  31	1	1	-0.007433	-33.8335	43.089	47.5022
  32	1	2	0.491356	-34.9536	43.5377	46.8177
  33	1	3	-0.019445	-33.1935	43.835	48.5288
  34	1	3	-0.186861	-33.7854	43.886	49.8049
  35	1	3	-0.068374	-33.1898	44.6205	50.841
  36	1	3	-0.009193	-31.9921	44.5358	48.2817
  37	1	3	0.220761	-31.3993	45.2701	49.329
  38	1	3	-0.402098	-31.9931	45.3117	50.6004
  39	1	6	0.148422	-34.7158	43.3572	49.9943
  40	1	6	0.146291	-33.6573	44.6539	51.8236
  41	1	6	0.158981	-33.7228	39.4813	45.3596
  42	1	6	0.141813	-35.5498	39.2865	43.6735
  43	1	6	0.143633	-37.0067	43.2299	44.8373
  44	1	5	-0.474465	-35.5548	44.5874	46.9646
  45	1	5	-0.469737	-32.475	41.1756	47.4815
  46	1	7	-0.37887	-31.335	44.5107	46.9032
  47	1	9	0.115886	-32.0499	44.7773	46.1147
  48	1	9	0.123845	-30.9316	43.5137	46.6819
  49	1	9	0.138418	-30.5025	45.2232	46.8402
  50	1	6	0.21348	-31.5223	45.8848	51.394
  51	1	1	0.486064	-39.5184	20.5819	35.7879
  52	1	2	0.047133	-38.3914	21.3884	35.9496
  53	1	3	0.001076	-38.9155	22.735	36.2815
  54	1	2	0.034038	-40.7093	21.2811	36.006
  55	1	3	0.050122	-40.2919	22.6781	36.2962
  56	1	5	-0.383076	-37.2152	21.0821	35.8449
  57	1	5	-0.380811	-41.8542	20.8599	35.9943
  58	1	3	-0.001248	-38.2218	23.9224	36.5301
  59	1	3	-0.036565	-41.0566	23.8261	36.5195
  60	1	3	-0.208842	-40.3764	25.0434	36.7457
  61	1	3	-0.065319	-38.9539	25.1119	36.7934
  62	1	6	0.153391	-37.139	23.8956	36.4869
  63	1	6	0.155343	-42.1432	23.7748	36.4957
  64	1	6	0.174191	-40.9708	25.9447	36.8792
  65	1	7	-0.106637	-38.2364	26.479	37.0216
  66	1	7	0.445763	-36.8364	26.3196	37.7294
  67	1	8	-0.144255	-36.3768	27.4997	38.2045
  68	1	8	-0.136881	-35.8672	25.839	36.9195
  69	1	8	-0.144092	-36.9172	25.4846	38.7903
  70	1	7	0.367264	-38.0309	27.1037	35.5905
  71	1	8	-0.12104	-37.5065	26.2126	34.7183
  72	1	8	-0.122614	-37.1967	28.1677	35.586
  73	1	8	-0.112321	-39.2085	27.5016	35.058
  74	1	3	-0.021957	-39.0833	27.3838	37.972
  75	1	3	-0.054241	-39.2297	28.7831	37.7659
  76	1	3	-0.111709	-39.9491	29.5394	38.6989
  77	1	3	-0.087244	-39.6601	26.8193	39.1459
  78	1	3	-0.118951	-40.3957	27.597	40.0656
  79	1	3	-0.044875	-40.5252	28.9663	39.8124
  80	1	2	0.461883	-41.2033	30.0402	40.591
  81	1	1	-0.007433	-40.9728	31.213	39.8843
  82	1	2	0.491356	-40.2254	31.0002	38.7346
  83	1	3	-0.019445	-41.4705	32.4876	40.274
  84	1	3	-0.186861	-42.8205	32.7775	40.0076
  85	1	3	-0.068374	-43.3616	34.027	40.3317
  86	1	3	-0.009193	-40.6393	33.4586	40.8864
  87	1	3	0.220761	-41.1897	34.7262	41.2087
  88	1	3	-0.402098	-42.5472	34.9982	40.9278
  89	1	6	0.148422	-43.455	32.0298	39.5381
  90	1	6	0.146291	-44.4069	34.2415	40.1138
  91	1	6	0.158981	-40.8366	27.1546	40.9569
  92	1	6	0.141813	-39.5346	25.7591	39.3522
  93	1	6	0.143633	-38.7914	29.3029	36.9211
  94	1	5	-0.474465	-39.8556	31.823	37.9157
  95	1	5	-0.469737	-41.8305	29.897	41.6261
  96	1	7	-0.37887	-39.1629	33.1424	41.1622
  97	1	9	0.115886	-38.7565	33.705	42.0109
  98	1	9	0.123845	-38.5484	33.3701	40.2801
  99	1	9	0.138418	-39.0092	32.0855	41.4115
 100	1	6	0.21348	-42.9687	35.9716	41.1694
 101	1	1	0.486064	-43.6033	8.03191	26.7913
 102	1	2	0.047133	-44.325	9.19061	26.5105
 103	1	3	0.001076	-44.0351	10.1115	27.6389
 104	1	2	0.034038	-42.8925	8.1118	27.9871
 105	1	3	0.050122	-43.1819	9.46849	28.5131
 106	1	5	-0.383076	-45.0496	9.41925	25.5567
 107	1	5	-0.380811	-42.1756	7.26947	28.5021
 108	1	3	-0.001248	-44.501	11.4094	27.8812
 109	1	3	-0.036565	-42.7435	10.0866	29.6843
 110	1	3	-0.208842	-43.1977	11.3943	29.9471
 111	1	3	-0.065319	-44.0676	12.0838	29.0544
 112	1	6	0.153391	-45.187	11.8534	27.1671
 113	1	6	0.155343	-42.0817	9.56288	30.3709
 114	1	6	0.174191	-42.8731	11.8706	30.8698
 115	1	7	-0.106637	-44.5527	13.5129	29.435
 116	1	7	0.445763	-45.0673	14.3623	28.2086
 117	1	8	-0.144255	-44.2053	14.3185	27.1679
 118	1	8	-0.136881	-45.2049	15.6678	28.5342
 119	1	8	-0.144092	-46.2652	13.9555	27.7321
 120	1	7	0.367264	-45.7412	13.3159	30.4512
 121	1	8	-0.12104	-46.6897	12.4861	29.9597
 122	1	8	-0.122614	-46.362	14.4743	30.7681
 123	1	8	-0.112321	-45.327	12.7508	31.6083
 124	1	3	-0.021957	-43.334	14.2814	30.0304
 125	1	3	-0.054241	-43.3712	14.9486	31.2843
 126	1	3	-0.111709	-42.2031	15.5548	31.763
 127	1	3	-0.087244	-42.1112	14.2939	29.2999
 128	1	3	-0.118951	-40.9513	14.9245	29.7936
 129	1	3	-0.044875	-41.0263	15.5443	31.0435
 130	1	2	0.461883	-39.9786	16.2309	31.8473
 131	1	1	-0.007433	-40.6056	16.6009	33.0281
 132	1	2	0.491356	-41.9467	16.2453	33.0538
 133	1	3	-0.019445	-39.9426	17.232	34.1146
 134	1	3	-0.186861	-39.1777	16.4289	34.9775
 135	1	3	-0.068374	-38.5334	16.9879	36.0855
 136	1	3	-0.009193	-40.0594	18.6243	34.3432
 137	1	3	0.220761	-39.433	19.1875	35.4889
 138	1	3	-0.402098	-38.671	18.3572	36.3436
 139	1	6	0.148422	-39.0785	15.3633	34.786
 140	1	6	0.146291	-37.9318	16.36	36.741
 141	1	6	0.158981	-40.0183	14.9145	29.2333
 142	1	6	0.141813	-42.0487	13.7862	28.3409
 143	1	6	0.143633	-44.2612	14.991	31.9041
 144	1	5	-0.474465	-42.7502	16.4053	33.9554
 145	1	5	-0.469737	-38.8123	16.3918	31.532
 146	1	7	-0.37887	-40.8535	19.4808	33.3464
 147	1	9	0.115886	-40.7385	19.1269	32.3148
 148	1	9	0.123845	-40.537	20.5296	33.3343
 149	1	9	0.138418	-41.9253	19.46	33.5911
 150	1	6	0.21348	-38.1574	18.7869	37.2015
 151	1	1	0.486064	-31.7771	2.40088	18.7361
 152	1	2	0.047133	-32.8333	2.56316	17.8425
 153	1	3	0.001076	-33.8792	3.28049	18.6083
 154	1	2	0.034038	-32.0294	2.96464	19.9852
 155	1	3	0.050122	-33.4012	3.52486	19.8793
 156	1	5	-0.383076	-32.9201	2.17587	16.6895
 157	1	5	-0.380811	-31.316	2.96664	20.9747
 158	1	3	-0.001248	-35.1635	3.66306	18.2119
 159	1	3	-0.036565	-34.181	4.19069	20.8269
 160	1	3	-0.208842	-35.4783	4.59366	20.4463
 161	1	3	-0.065319	-36.0035	4.3172	19.1509
 162	1	6	0.153391	-35.4729	3.441	17.1964
 163	1	6	0.155343	-33.7911	4.38639	21.8236
 164	1	6	0.174191	-36.0854	5.12387	21.1774
 165	1	7	-0.106637	-37.4481	4.78054	18.7988
 166	1	7	0.445763	-37.3376	6.30746	18.4283
 167	1	8	-0.144255	-37.0445	7.06118	19.5124
 168	1	8	-0.136881	-38.4677	6.81018	17.8824
 169	1	8	-0.144092	-36.3466	6.53232	17.5354
 170	1	7	0.367264	-38.0872	3.99811	17.5894
 171	1	8	-0.12104	-37.5525	4.32743	16.3923
 172	1	8	-0.122614	-39.416	4.23037	17.4919
 173	1	8	-0.112321	-37.9473	2.66072	17.7337
 174	1	3	-0.021957	-38.3645	4.49832	20.0253
 175	1	3	-0.054241	-39.3423	5.42122	20.4822
 176	1	3	-0.111709	-40.1118	5.08987	21.6034
 177	1	3	-0.087244	-38.2469	3.25111	20.7034
 178	1	3	-0.118951	-39.0283	2.9408	21.8342
 179	1	3	-0.044875	-39.9521	3.894	22.2702
 180	1	2	0.461883	-40.9018	3.86563	23.4137
 181	1	1	-0.007433	-41.5891	5.07148	23.3576
 182	1	2	0.491356	-41.1836	5.85924	22.286
 183	1	3	-0.019445	-42.6235	5.42807	24.27
 184	1	3	-0.186861	-43.7611	4.60156	24.3252
 185	1	3	-0.068374	-44.8239	4.8966	25.1856
 186	1	3	-0.009193	-42.5334	6.56998	25.1066
 187	1	3	0.220761	-43.6236	6.87621	25.9627
 188	1	3	-0.402098	-44.7579	6.03605	25.9957
 189	1	6	0.148422	-43.8211	3.71639	23.6961
 190	1	6	0.146291	-45.6969	4.24646	25.2156
 191	1	6	0.158981	-38.9222	1.99102	22.3549
 192	1	6	0.141813	-37.5283	2.51223	20.3572
 193	1	6	0.143633	-39.519	6.37762	20.001
 194	1	5	-0.474465	-41.6026	6.95316	21.9493
 195	1	5	-0.469737	-41.0368	2.95647	24.2145
 196	1	7	-0.37887	-41.2849	7.46614	25.0669
 197	1	9	0.115886	-40.3806	6.90077	24.814
 198	1	9	0.123845	-41.0628	7.94271	26.028
 199	1	9	0.138418	-41.3997	8.25982	24.3154
 200	1	6	0.21348	-45.5937	6.27388	26.6503
 201	1	1	0.486064	-30.4463	-12.4578	14.21
 202	1	2	0.047133	-29.2295	-11.7976	14.3845
 203	1	3	0.001076	-29.4901	-10.7545	15.3992
 204	1	2	0.034038	-31.4679	-11.9104	14.9882
 205	1	3	0.050122	-30.8216	-10.8053	15.7497
 206	1	5	-0.383076	-28.1713	-11.9802	13.8067
 207	1	5	-0.380811	-32.6411	-12.2406	15.041
 208	1	3	-0.001248	-28.6039	-9.83089	15.9573
 209	1	3	-0.036565	-31.3507	-9.89821	16.6714
 210	1	3	-0.208842	-30.4786	-8.93725	17.2316
 211	1	3	-0.065319	-29.0932	-8.88744	16.8993
 212	1	6	0.153391	-27.569	-9.87298	15.6363
 213	1	6	0.155343	-32.405	-9.93571	16.9371
 214	1	6	0.174191	-30.8934	-8.21766	17.9339
 215	1	7	-0.106637	-28.1829	-7.80847	17.5696
 216	1	7	0.445763	-28.0984	-8.17636	19.1029
 217	1	8	-0.144255	-27.1134	-7.53791	19.7722
 218	1	8	-0.136881	-27.8749	-9.49903	19.2777
 219	1	8	-0.144092	-29.2479	-7.88834	19.753
 220	1	7	0.367264	-26.7233	-7.75672	16.9757
 221	1	8	-0.12104	-25.9978	-6.72996	17.4742
 222	1	8	-0.122614	-26.7401	-7.56615	15.6364
 223	1	8	-0.112321	-26.0182	-8.8838	17.2226
 224	1	3	-0.021957	-28.7907	-6.4029	17.303
 225	1	3	-0.054241	-28.5632	-5.30942	18.1806
 226	1	3	-0.111709	-29.0235	-4.03897	17.812
 227	1	3	-0.087244	-29.4777	-6.15461	16.0798
 228	1	3	-0.118951	-29.9477	-4.8723	15.7373
 229	1	3	-0.044875	-29.698	-3.82627	16.6277
 230	1	2	0.461883	-29.9808	-2.37358	16.5015
 231	1	1	-0.007433	-29.4301	-1.7915	17.6342
 232	1	2	0.491356	-28.8457	-2.72269	18.4813
 233	1	3	-0.019445	-29.4389	-0.391725	17.8762
 234	1	3	-0.186861	-28.2512	0.330426	17.6627
 235	1	3	-0.068374	-28.2185	1.71999	17.8324
 236	1	3	-0.009193	-30.6184	0.277848	18.2768
 237	1	3	0.220761	-30.59	1.6888	18.4145
 238	1	3	-0.402098	-29.3879	2.39846	18.2008
 239	1	6	0.148422	-27.3462	-0.189172	17.3571
 240	1	6	0.146291	-27.2923	2.26717	17.6632
 241	1	6	0.158981	-30.4517	-4.68726	14.7907
 242	1	6	0.141813	-29.6226	-6.95371	15.3582
 243	1	6	0.143633	-27.9986	-5.41028	19.1022
 244	1	5	-0.474465	-28.2817	-2.52301	19.5425
 245	1	5	-0.469737	-30.5545	-1.82835	15.5748
 246	1	7	-0.37887	-31.9074	-0.517998	18.5326
 247	1	9	0.115886	-32.4952	-0.604983	17.6078
 248	1	9	0.123845	-32.5455	-0.0568033	19.2958
 249	1	9	0.138418	-31.705	-1.53265	18.895
 250	1	6	0.21348	-29.3644	3.47974	18.3187
 251	1	1	0.486064	-21.8423	-24.0424	10.2968
 252	1	2	0.047133	-22.5447	-22.845	10.1679
 253	1	3	0.001076	-22.6365	-22.3008	11.5477
 254	1	2	0.034038	-21.4896	-24.3255	11.6135
 255	1	3	0.050122	-22.0081	-23.1827	12.4027
 256	1	5	-0.383076	-22.9852	-22.3304	9.15401
 257	1	5	-0.380811	-20.8619	-25.2787	12.0436
 258	1	3	-0.001248	-23.18	-21.0959	12.0082
 259	1	3	-0.036565	-21.8917	-22.9143	13.7664
 260	1	3	-0.208842	-22.4184	-21.6996	14.2493
 261	1	3	-0.065319	-23.0659	-20.769	13.3853
 262	1	6	0.153391	-23.6422	-20.4147	11.2978
 263	1	6	0.155343	-21.3783	-23.6142	14.4225
 264	1	6	0.174191	-22.28	-21.4927	15.3051
 265	1	7	-0.106637	-23.5499	-19.3704	13.8666
 266	1	7	0.445763	-23.6502	-19.232	15.4352
 267	1	8	-0.144255	-24.2878	-18.0957	15.7992
 268	1	8	-0.136881	-22.4456	-19.2085	16.0495
 269	1	8	-0.144092	-24.3596	-20.2439	15.9857
 270	1	7	0.367264	-22.4844	-18.3327	13.3371
 271	1	8	-0.12104	-21.2218	-18.7391	13.6021
 272	1	8	-0.122614	-22.6088	-17.1016	13.8819
 273	1	8	-0.112321	-22.5553	-18.1796	11.9954
 274	1	3	-0.021957	-24.9888	-19.1209	13.3298
 275	1	3	-0.054241	-25.4053	-17.8518	12.8529
 276	1	3	-0.111709	-26.7581	-17.6463	12.5672
 277	1	3	-0.087244	-25.9705	-20.1446	13.4587
 278	1	3	-0.118951	-27.3348	-19.9089	13.1791
 279	1	3	-0.044875	-27.7065	-18.6301	12.7495
 280	1	2	0.461883	-29.0548	-18.016	12.5666
 281	1	1	-0.007433	-28.8118	-16.6696	12.3235
 282	1	2	0.491356	-27.4561	-16.3846	12.2314
 283	1	3	-0.019445	-29.7948	-15.6401	12.3481
 284	1	3	-0.186861	-30.6638	-15.4817	11.2548
 285	1	3	-0.068374	-31.5308	-14.3819	11.1896
 286	1	3	-0.009193	-29.8109	-14.704	13.4106
 287	1	3	0.220761	-30.6076	-13.5367	13.2905
 288	1	3	-0.402098	-31.482	-13.3987	12.1894
 289	1	6	0.148422	-30.6557	-16.2053	10.4435
 290	1	6	0.146291	-32.2009	-14.268	10.3387
 291	1	6	0.158981	-28.0877	-20.6757	13.35
 292	1	6	0.141813	-25.6855	-21.1193	13.8475
 293	1	6	0.143633	-24.7326	-17.0047	12.7691
 294	1	5	-0.474465	-26.922	-15.3065	12.0394
 295	1	5	-0.469737	-30.1288	-18.5645	12.7434
 296	1	7	-0.37887	-28.9498	-14.9517	14.6602
 297	1	9	0.115886	-29.3602	-14.4728	15.5571
 298	1	9	0.123845	-27.9283	-14.5725	14.5164
 299	1	9	0.138418	-28.8807	-16.0192	14.9032
 300	1	6	0.21348	-32.1153	-12.5176	12.1053
 301	1	1	0.486064	-28.7504	-29.3867	-0.4725
 302	1	2	0.047133	-28.2516	-30.6389	-0.0933549
 303	1	3	0.001076	-27.7661	-30.4689	1.29971
 304	1	2	0.034038	-28.6314	-28.4444	0.555783
 305	1	3	0.050122	-28.0255	-29.1765	1.69583
 306	1	5	-0.383076	-28.2976	-31.6961	-0.700082
 307	1	5	-0.380811	-29.0005	-27.281	0.571928
 308	1	3	-0.001248	-27.1991	-31.4065	2.16989
 309	1	3	-0.036565	-27.8072	-28.7697	3.01377
 310	1	3	-0.208842	-27.278	-29.7132	3.92002
 311	1	3	-0.065319	-26.9046	-31.0258	3.50879
 312	1	6	0.153391	-27.035	-32.4109	1.79647
 313	1	6	0.155343	-28.0712	-27.7622	3.32847
 314	1	6	0.174191	-27.1564	-29.4077	4.95666
 315	1	7	-0.106637	-26.3004	-32.0381	4.53661
 316	1	7	0.445763	-27.5274	-32.816	5.14738
 317	1	8	-0.144255	-28.2349	-32.024	5.9848
 318	1	8	-0.136881	-27.1767	-33.9269	5.83363
 319	1	8	-0.144092	-28.3941	-33.2288	4.19479
 320	1	7	0.367264	-25.3091	-33.0599	3.86259
 321	1	8	-0.12104	-25.9248	-34.009	3.12361
 322	1	8	-0.122614	-24.5691	-33.7241	4.78018
 323	1	8	-0.112321	-24.433	-32.4233	3.0531
 324	1	3	-0.021957	-25.4531	-31.2898	5.61795
 325	1	3	-0.054241	-24.6455	-30.1814	5.24424
 326	1	3	-0.111709	-23.9198	-29.4992	6.23029
 327	1	3	-0.087244	-25.4046	-31.7175	6.97833
 328	1	3	-0.118951	-24.6275	-31.0475	7.9442
 329	1	3	-0.044875	-23.9012	-29.9261	7.54
 330	1	2	0.461883	-23.0571	-28.9924	8.32974
 331	1	1	-0.007433	-22.6714	-27.9965	7.43904
 332	1	2	0.491356	-23.1158	-28.2504	6.14554
 333	1	3	-0.019445	-21.9097	-26.8489	7.81088
 334	1	3	-0.186861	-20.6719	-26.6392	7.17453
 335	1	3	-0.068374	-19.8517	-25.5623	7.53217
 336	1	3	-0.009193	-22.3516	-25.9427	8.81059
 337	1	3	0.220761	-21.4937	-24.8858	9.20599
 338	1	3	-0.402098	-20.2548	-24.6971	8.55711
 339	1	6	0.148422	-20.3392	-27.3196	6.39413
 340	1	6	0.146291	-18.8958	-25.4168	7.03106
 341	1	6	0.158981	-24.6049	-31.3776	8.98131
 342	1	6	0.141813	-25.9624	-32.5813	7.31816
 343	1	6	0.143633	-24.6099	-29.8265	4.21656
 344	1	5	-0.474465	-22.9507	-27.5744	5.14509
 345	1	5	-0.469737	-22.7965	-29.0919	9.51655
 346	1	7	-0.37887	-23.7298	-26.0976	9.47168
 347	1	9	0.115886	-23.646	-26.641	10.4233
 348	1	9	0.123845	-24.4386	-26.6447	8.84034
 349	1	9	0.138418	-24.2075	-25.1305	9.67233
 350	1	6	0.21348	-19.5977	-23.8843	8.8582
 351	1	1	0.486064	-26.4825	-24.6474	-13.8741
 352	1	2	0.047133	-26.3174	-26.0139	-14.1404
 353	1	3	0.001076	-26.9537	-26.7234	-13.0047
 354	1	2	0.034038	-27.1957	-24.4374	-12.6852
 355	1	3	0.050122	-27.5302	-25.7912	-12.1762
 356	1	5	-0.383076	-25.901	-26.5544	-15.1517
 357	1	5	-0.380811	-27.5335	-23.3841	-12.169
 358	1	3	-0.001248	-27.0675	-28.0952	-12.7634
 359	1	3	-0.036565	-28.3647	-26.1851	-11.1282
 360	1	3	-0.208842	-28.5608	-27.5679	-10.917
 361	1	3	-0.065319	-27.8638	-28.5538	-11.6773
 362	1	6	0.153391	-26.5658	-28.7726	-13.4467
 363	1	6	0.155343	-28.8761	-25.4384	-10.5243
 364	1	6	0.174191	-29.2691	-27.8547	-10.1455
 365	1	7	-0.106637	-28.0129	-30.0876	-11.3936
 366	1	7	0.445763	-26.6008	-30.79	-11.3623
 367	1	8	-0.144255	-26.6673	-32.0248	-10.8141
 368	1	8	-0.136881	-25.719	-30.0835	-10.6197
 369	1	8	-0.144092	-26.0367	-30.9466	-12.5799
 370	1	7	0.367264	-28.8725	-30.6977	-12.5713
 371	1	8	-0.12104	-30.1487	-30.2536	-12.5184
 372	1	8	-0.122614	-28.8965	-32.05	-12.5637
 373	1	8	-0.112321	-28.4241	-30.3604	-13.8002
 374	1	3	-0.021957	-28.6501	-30.357	-9.98424
 375	1	3	-0.054241	-28.1419	-29.6872	-8.83491
 376	1	3	-0.111709	-28.7466	-29.9027	-7.58656
 377	1	3	-0.087244	-29.7094	-31.2942	-9.7837
 378	1	3	-0.118951	-30.2711	-31.5305	-8.5153
 379	1	3	-0.044875	-29.7718	-30.8096	-7.43166
 380	1	2	0.461883	-30.2363	-30.7688	-6.02348
 381	1	1	-0.007433	-29.4834	-29.7756	-5.41083
 382	1	2	0.491356	-28.5468	-29.2175	-6.27734
 383	1	3	-0.019445	-29.8071	-29.286	-4.11053
 384	1	3	-0.186861	-31.0652	-28.6743	-3.96532
 385	1	3	-0.068374	-31.5313	-28.2799	-2.7105
 386	1	3	-0.009193	-28.9756	-29.4875	-2.97731
 387	1	3	0.220761	-29.4706	-29.1304	-1.68704
 388	1	3	-0.402098	-30.7463	-28.5259	-1.58082
 389	1	6	0.148422	-31.7056	-28.5303	-4.83228
 390	1	6	0.146291	-32.5109	-27.8142	-2.61309
 391	1	6	0.158981	-31.0941	-32.2309	-8.38247
 392	1	6	0.141813	-30.1378	-31.8595	-10.6012
 393	1	6	0.143633	-27.3336	-28.9637	-8.91619
 394	1	5	-0.474465	-27.8033	-28.2735	-6.07402
 395	1	5	-0.469737	-31.1738	-31.3968	-5.56132
 396	1	7	-0.37887	-27.5838	-30.1035	-3.17469
 397	1	9	0.115886	-27.6539	-31.19	-3.31868
 398	1	9	0.123845	-26.9099	-29.9258	-2.32988
 399	1	9	0.138418	-27.0673	-29.6817	-4.04358
 400	1	6	0.21348	-31.1326	-28.2347	-0.605661
 401	1	1	0.486064	-19.6593	-26.0777	-25.3336
 402	1	2	0.047133	-19.6472	-26.1133	-23.941
 403	1	3	0.001076	-18.9269	-24.8806	-23.5343
 404	1	2	0.034038	-18.9437	-25.0031	-25.8576
 405	1	3	0.050122	-18.5101	-24.2227	-24.6725
 406	1	5	-0.383076	-20.2453	-26.8752	-23.2006
 407	1	5	-0.380811	-18.854	-24.6536	-27.0227
 408	1	3	-0.001248	-18.8363	-24.2878	-22.2716
 409	1	3	-0.036565	-17.9463	-22.9474	-24.6055
 410	1	3	-0.208842	-17.8617	-22.3235	-23.3433
 411	1	3	-0.065319	-18.3478	-22.9573	-22.1621
 412	1	6	0.153391	-19.2572	-24.8108	-21.4162
 413	1	6	0.155343	-17.652	-22.4286	-25.516
 414	1	6	0.174191	-17.4652	-21.3138	-23.3238
 415	1	7	-0.106637	-18.4833	-22.2229	-20.7883
 416	1	7	0.445763	-18.2003	-20.6755	-20.8633
 417	1	8	-0.144255	-18.9864	-20.0753	-21.7864
 418	1	8	-0.136881	-16.914	-20.3907	-21.1675
 419	1	8	-0.144092	-18.4679	-20.0455	-19.697
 420	1	7	0.367264	-17.4453	-22.9006	-19.8142
 421	1	8	-0.12104	-16.2392	-23.0482	-20.4081
 422	1	8	-0.122614	-17.847	-24.1358	-19.4401
 423	1	8	-0.112321	-17.224	-22.2082	-18.6754
 424	1	3	-0.021957	-19.9575	-22.3681	-20.2999
 425	1	3	-0.054241	-20.3076	-22.2955	-18.9236
 426	1	3	-0.111709	-21.6531	-22.445	-18.5566
 427	1	3	-0.087244	-21.0108	-22.5091	-21.2514
 428	1	3	-0.118951	-22.3461	-22.7086	-20.8594
 429	1	3	-0.044875	-22.6321	-22.6901	-19.4949
 430	1	2	0.461883	-23.9319	-22.8244	-18.7983
 431	1	1	-0.007433	-23.6646	-22.602	-17.4532
 432	1	2	0.491356	-22.3138	-22.3507	-17.2235
 433	1	3	-0.019445	-24.7182	-22.5459	-16.4925
 434	1	3	-0.186861	-25.6987	-21.5587	-16.6962
 435	1	3	-0.068374	-26.8832	-21.563	-15.9597
 436	1	3	-0.009193	-24.898	-23.5362	-15.4898
 437	1	3	0.220761	-26.1407	-23.5889	-14.7867
 438	1	3	-0.402098	-27.1125	-22.5891	-15.0391
 439	1	6	0.148422	-25.5645	-20.8074	-17.4709
 440	1	6	0.146291	-27.642	-20.8037	-16.1427
 441	1	6	0.158981	-23.1395	-22.8498	-21.5909
 442	1	6	0.141813	-20.8046	-22.4778	-22.3175
 443	1	6	0.143633	-19.5722	-22.108	-18.1476
 444	1	5	-0.474465	-21.7729	-22.0209	-16.1824
 445	1	5	-0.469737	-25.0089	-23.0299	-19.3325
 446	1	7	-0.37887	-23.7611	-24.5315	-15.2137
 447	1	9	0.115886	-23.8556	-25.0333	-14.245
 448	1	9	0.123845	-22.7842	-24.0411	-15.1721
 449	1	9	0.138418	-23.7178	-25.3082	-15.9888
 450	1	6	0.21348	-28.0646	-22.6034	-14.5122
 451	1	1	0.486064	-24.5359	-38.4443	-28.3393
 452	1	2	0.047133	-24.5321	-37.9208	-29.6312
 453	1	3	0.001076	-23.2394	-37.2054	-29.7581
 454	1	2	0.034038	-23.3808	-38.1228	-27.624
 455	1	3	0.050122	-22.5518	-37.3324	-28.5696
 456	1	5	-0.383076	-25.3985	-38.0017	-30.4858
 457	1	5	-0.380811	-23.1009	-38.3903	-26.4667
 458	1	3	-0.001248	-22.7262	-36.4787	-30.8366
 459	1	3	-0.036565	-21.2903	-36.7583	-28.4013
 460	1	3	-0.208842	-20.7507	-36.0238	-29.4782
 461	1	3	-0.065319	-21.4613	-35.845	-30.7001
 462	1	6	0.153391	-23.3289	-36.414	-31.7357
 463	1	6	0.155343	-20.7548	-36.8709	-27.4612
 464	1	6	0.174191	-19.7735	-35.5639	-29.3462
 465	1	7	-0.106637	-20.8265	-34.9641	-31.8213
 466	1	7	0.445763	-19.6496	-35.8093	-32.4414
 467	1	8	-0.144255	-18.5907	-35.8752	-31.6029
 468	1	8	-0.136881	-19.1865	-35.3256	-33.6158
 469	1	8	-0.144092	-20.0317	-37.0842	-32.6822
 470	1	7	0.367264	-21.8403	-34.5718	-32.9613
 471	1	8	-0.12104	-22.9624	-34.0123	-32.4537
 472	1	8	-0.122614	-22.2158	-35.6263	-33.7197
 473	1	8	-0.112321	-21.3239	-33.6534	-33.8095
 474	1	3	-0.021957	-20.3548	-33.6207	-31.1912
 475	1	3	-0.054241	-21.1013	-33.0512	-30.1267
 476	1	3	-0.111709	-20.7022	-31.8218	-29.5944
 477	1	3	-0.087244	-19.2487	-32.8829	-31.7041
 478	1	3	-0.118951	-18.8867	-31.6259	-31.1753
 479	1	3	-0.044875	-19.6375	-31.1181	-30.1107
 480	1	2	0.461883	-19.5557	-29.8117	-29.4032
 481	1	1	-0.007433	-20.5902	-29.8245	-28.4711
 482	1	2	0.491356	-21.3173	-31.0098	-28.5163
 483	1	3	-0.019445	-20.9741	-28.7018	-27.6778
 484	1	3	-0.186861	-22.3001	-28.2437	-27.8096
 485	1	3	-0.068374	-22.7565	-27.1313	-27.0978
 486	1	3	-0.009193	-20.0794	-28.0291	-26.8037
 487	1	3	0.220761	-20.5334	-26.8701	-26.1257
 488	1	3	-0.402098	-21.87	-26.4397	-26.2679
 489	1	6	0.148422	-22.9939	-28.7604	-28.4687
 490	1	6	0.146291	-23.7877	-26.7992	-27.2075
 491	1	6	0.158981	-18.0624	-31.0518	-31.5945
 492	1	6	0.141813	-18.6736	-33.2538	-32.5451
 493	1	6	0.143633	-21.9874	-33.5362	-29.7237
 494	1	5	-0.474465	-22.3063	-31.3186	-27.8741
 495	1	5	-0.469737	-18.7886	-28.9032	-29.6722
 496	1	7	-0.37887	-18.6446	-28.5284	-26.5914
 497	1	9	0.115886	-18.5491	-29.6048	-26.7749
 498	1	9	0.123845	-18.2946	-28.3702	-25.5638
 499	1	9	0.138418	-17.9503	-28.0136	-27.2708
 500	1	6	0.21348	-22.2191	-25.5583	-25.735
 501	1	1	0.486064	-21.6754	-52.1062	-23.9751
 502	1	2	0.047133	-23.0688	-52.1474	-23.8964
 503	1	3	0.001076	-23.5013	-50.7243	-23.8827
 504	1	2	0.034038	-21.179	-50.8017	-23.993
 505	1	3	0.050122	-22.3749	-49.9318	-23.9582
 506	1	5	-0.383076	-23.7975	-53.124	-23.8425
 507	1	5	-0.380811	-20.0193	-50.4231	-23.988
 508	1	3	-0.001248	-24.7836	-50.169	-23.7838
 509	1	3	-0.036565	-22.459	-48.5406	-23.9734
 510	1	3	-0.208842	-23.7396	-47.9616	-23.9012
 511	1	3	-0.065319	-24.9178	-48.7533	-23.7955
 512	1	6	0.153391	-25.6311	-50.84	-23.689
 513	1	6	0.155343	-21.5578	-47.9337	-24.0298
 514	1	6	0.174191	-23.8084	-46.8758	-23.9022
 515	1	7	-0.106637	-26.2813	-48.0231	-23.6382
 516	1	7	0.445763	-26.3393	-47.5071	-22.147
 517	1	8	-0.144255	-27.5318	-46.9579	-21.825
 518	1	8	-0.136881	-25.3934	-46.5757	-21.888
 519	1	8	-0.144092	-26.1144	-48.5055	-21.2626
 520	1	7	0.367264	-27.5392	-48.9408	-23.8978
 521	1	8	-0.12104	-27.7496	-49.8541	-22.9239
 522	1	8	-0.122614	-27.4396	-49.633	-25.0547
 523	1	8	-0.112321	-28.6723	-48.2092	-23.9956
 524	1	3	-0.021957	-26.3236	-46.8886	-24.7053
 525	1	3	-0.054241	-26.5835	-45.5288	-24.3863
 526	1	3	-0.111709	-26.5671	-44.5784	-25.4143
 527	1	3	-0.087244	-26.0689	-47.2209	-26.0668
 528	1	3	-0.118951	-26.0933	-46.2527	-27.0908
 529	1	3	-0.044875	-26.3496	-44.9278	-26.7301
 530	1	2	0.461883	-26.396	-43.6925	-27.5575
 531	1	1	-0.007433	-26.5787	-42.6509	-26.6557
 532	1	2	0.491356	-26.7232	-43.1026	-25.3506
 533	1	3	-0.019445	-26.6289	-41.274	-27.0134
 534	1	3	-0.186861	-27.8519	-40.6026	-26.8322
 535	1	3	-0.068374	-27.9798	-39.2445	-27.1403
 536	1	3	-0.009193	-25.4969	-40.571	-27.5046
 537	1	3	0.220761	-25.6309	-39.1909	-27.8132
 538	1	3	-0.402098	-26.8734	-38.5434	-27.633
 539	1	6	0.148422	-28.7135	-41.1383	-26.4411
 540	1	6	0.146291	-28.9352	-38.7414	-26.9984
 541	1	6	0.158981	-25.9008	-46.5183	-28.1285
 542	1	6	0.141813	-25.841	-48.2475	-26.3405
 543	1	6	0.143633	-26.7786	-45.1856	-23.3753
 544	1	5	-0.474465	-26.903	-42.444	-24.3413
 545	1	5	-0.469737	-26.2462	-43.6273	-28.7657
 546	1	7	-0.37887	-24.138	-41.2666	-27.6936
 547	1	9	0.115886	-23.7227	-41.0672	-28.6898
 548	1	9	0.123845	-24.1734	-42.3544	-27.5992
 549	1	9	0.138418	-23.4115	-40.9194	-26.9471
 550	1	6	0.21348	-26.9819	-37.4917	-27.8893
 551	1	1	0.486064	-12.4703	-47.3204	-29.5583
 552	1	2	0.047133	-11.6597	-48.2855	-28.9623
 553	1	3	0.001076	-12.4012	-49.564	-29.1123
 554	1	2	0.034038	-13.6537	-47.8506	-30.0708
 555	1	3	0.050122	-13.5848	-49.3033	-29.7721
 556	1	5	-0.383076	-10.5535	-48.145	-28.4682
 557	1	5	-0.380811	-14.5498	-47.2727	-30.6641
 558	1	3	-0.001248	-12.0361	-50.862	-28.7354
 559	1	3	-0.036565	-14.4725	-50.33	-30.0983
 560	1	3	-0.208842	-14.1236	-51.6457	-29.7302
 561	1	3	-0.065319	-12.9149	-51.9383	-29.036
 562	1	6	0.153391	-11.0811	-51.0024	-28.2403
 563	1	6	0.155343	-15.3923	-50.1124	-30.6368
 564	1	6	0.174191	-14.8024	-52.4507	-30.0042
 565	1	7	-0.106637	-12.5751	-53.4231	-28.7059
 566	1	7	0.445763	-11.5174	-53.5882	-27.5479
 567	1	8	-0.144255	-11.8318	-52.831	-26.4726
 568	1	8	-0.136881	-10.2608	-53.2489	-27.9133
 569	1	8	-0.144092	-11.4579	-54.8659	-27.1079
 570	1	7	0.367264	-11.9891	-54.0428	-30.0295
 571	1	8	-0.12104	-11.4607	-55.275	-29.8535
 572	1	8	-0.122614	-12.9318	-54.1445	-30.994
 573	1	8	-0.112321	-11.0061	-53.2728	-30.5497
 574	1	3	-0.021957	-13.8752	-54.1217	-28.2076
 575	1	3	-0.054241	-14.6595	-53.4608	-27.2293
 576	1	3	-0.111709	-15.8265	-54.0728	-26.7637
 577	1	3	-0.087244	-14.3044	-55.4053	-28.6574
 578	1	3	-0.118951	-15.4907	-56.0013	-28.1766
 579	1	3	-0.044875	-16.2412	-55.3033	-27.2252
 580	1	2	0.461883	-17.5149	-55.655	-26.5354
 581	1	1	-0.007433	-17.7836	-54.5848	-25.6922
 582	1	2	0.491356	-16.8065	-53.5996	-25.7585
 583	1	3	-0.019445	-18.9096	-54.4925	-24.8277
 584	1	3	-0.186861	-18.9966	-55.3778	-23.7393
 585	1	3	-0.068374	-20.0095	-55.2347	-22.7835
 586	1	3	-0.009193	-19.8676	-53.4628	-24.9872
 587	1	3	0.220761	-20.8332	-53.2582	-23.9665
 588	1	3	-0.402098	-20.9065	-54.1626	-22.8832
 589	1	6	0.148422	-18.2669	-56.1765	-23.6272
 590	1	6	0.146291	-20.0696	-55.9281	-21.946
 591	1	6	0.158981	-15.8152	-56.9791	-28.5276
 592	1	6	0.141813	-13.7291	-55.9664	-29.3851
 593	1	6	0.143633	-14.3759	-52.4865	-26.8366
 594	1	5	-0.474465	-16.7403	-52.5558	-25.1336
 595	1	5	-0.469737	-18.1712	-56.6691	-26.6969
 596	1	7	-0.37887	-19.8369	-52.5873	-26.2498
 597	1	9	0.115886	-20.8203	-52.1721	-26.4999
 598	1	9	0.123845	-19.5218	-53.1585	-27.1317
 599	1	9	0.138418	-19.1394	-51.7465	-26.1274
 600	1	6	0.21348	-21.6638	-54.0279	-22.1131
 601	1	1	0.486064	-15.3173	-33.432	-21.7507
 602	1	2	0.047133	-16.3113	-34.134	-22.4303
 603	1	3	0.001076	-15.5885	-34.9867	-23.4067
 604	1	2	0.034038	-14.0343	-33.7487	-22.1966
 605	1	3	0.050122	-14.2359	-34.7545	-23.2738
 606	1	5	-0.383076	-17.5206	-34.0663	-22.2877
 607	1	5	-0.380811	-12.9684	-33.2894	-21.8211
 608	1	3	-0.001248	-16.0973	-35.8672	-24.3662
 609	1	3	-0.036565	-13.312	-35.3883	-24.1094
 610	1	3	-0.208842	-13.805	-36.2736	-25.0937
 611	1	3	-0.065319	-15.1965	-36.5436	-25.2343
 612	1	6	0.153391	-17.1738	-35.9804	-24.4248
 613	1	6	0.155343	-12.2484	-35.1809	-24.0103
 614	1	6	0.174191	-13.0906	-36.7449	-25.7663
 615	1	7	-0.106637	-15.6865	-37.4726	-26.39
 616	1	7	0.445763	-17.1424	-38.0306	-26.1623
 617	1	8	-0.144255	-17.271	-38.5663	-24.9274
 618	1	8	-0.136881	-17.4511	-39.0164	-27.0354
 619	1	8	-0.144092	-18.1056	-37.091	-26.3016
 620	1	7	0.367264	-15.67	-36.5812	-27.6898
 621	1	8	-0.12104	-16.3473	-37.12	-28.7282
 622	1	8	-0.122614	-14.4066	-36.3496	-28.112
 623	1	8	-0.112321	-16.2288	-35.3683	-27.4714
 624	1	3	-0.021957	-14.7669	-38.7286	-26.4978
 625	1	3	-0.054241	-14.5114	-39.3699	-27.7406
 626	1	3	-0.111709	-13.7615	-40.5524	-27.758
 627	1	3	-0.087244	-14.2541	-39.3368	-25.3161
 628	1	3	-0.118951	-13.4819	-40.5176	-25.3588
 629	1	3	-0.044875	-13.2519	-41.1089	-26.605
 630	1	2	0.461883	-12.5438	-42.3685	-26.9672
 631	1	1	-0.007433	-12.7053	-42.5058	-28.3421
 632	1	2	0.491356	-13.4119	-41.4448	-28.8944
 633	1	3	-0.019445	-12.197	-43.594	-29.1116
 634	1	3	-0.186861	-11.2283	-43.3092	-30.0921