pySIMM System Object

1852 atoms
2036 bonds
3552 angles
5472 dihedrals
592 impropers

9 atom types
11 bond types
18 angle types
7 dihedral types
4 improper types

-199.408329 199.408329 xlo xhi
-199.408329 199.408329 ylo yhi
-199.408329 199.408329 zlo zhi

Masses

   1	14.01	# n
   2	12.01	# c
   3	12.01	# ca
   4	1.008	# hn
   5	16.0	# o
   6	1.008	# ha
   7	12.01	# c3
   8	19.0	# f
   9	1.008	# hc

Pair Coeffs

   1	0.17	3.249998523775958	# n
   2	0.086	3.3996695084235347	# c
   3	0.086	3.3996695084235347	# ca
   4	0.0157	1.069078461768407	# hn
   5	0.21	2.959921901149463	# o
   6	0.015	2.59964245953351	# ha
   7	0.1094	3.3996695084235347	# c3
   8	0.061	3.1181455134911875	# f
   9	0.0157	2.649532787749369	# hc

Bond Coeffs

   1	427.6	1.3789	# c,n
   2	461.1	1.3984	# ca,ca
   3	345.9	1.4906	# c,ca
   4	345.8	1.086	# ca,ha
   5	637.7	1.2183	# c,o
   6	321.0	1.5156	# c3,ca
   7	300.9	1.5375	# c3,c3
   8	356.9	1.3497	# c3,f
   9	384.2	1.4121	# ca,n
  10	330.6	1.0969	# c3,hc
  11	403.2	1.0129	# hn,n

Angle Coeffs

   1	48.18	119.88	# ca,ca,ha
   2	63.15	112.07	# c3,c3,ca
   3	70.89	107.36	# f,c3,f
   4	67.87	120.19	# ca,ca,n
   5	68.72	122.6	# ca,c,o
   6	63.56	112.24	# ca,c3,ca
   7	63.82	123.71	# c,n,ca
   8	74.22	123.05	# n,c,o
   9	48.33	117.55	# c,n,hn
  10	67.68	115.25	# ca,c,n
  11	64.28	120.33	# c,ca,ca
  12	66.11	109.24	# c3,c3,f
  13	46.8	110.47	# ca,c3,hc
  14	39.4	107.58	# hc,c3,hc
  15	66.62	120.02	# ca,ca,ca
  16	63.53	120.77	# c3,ca,ca
  17	62.86	111.51	# c3,c3,c3
  18	63.74	127.08	# c,n,c

Dihedral Coeffs

   1	1	2.5	2	180	# X,c,n,X
   2	1	0.45	2	180	# X,ca,n,X
   3	2	2.5	2	180	2.0	1	0	# hn,n,c,o
   4	1	3.625	2	180	# X,ca,ca,X
   5	1	1.0	2	180	# X,c,ca,X
   6	1	0.15555555555555556	3	0	# X,c3,c3,X
   7	1	0.0	2	0	# X,c3,ca,X

Improper Coeffs

   1	1.1	-1	2	# ca,ca,ca,c3
   2	10.5	-1	2	# c,X,X,o
   3	1.1	-1	2	# ca,X,X,ha
   4	1.1	-1	2	# n,X,X,hn

Atoms

   1	1	1	0.486064	57.9312	3.69345	11.9561
   2	1	2	0.047133	57.1724	4.86106	12.0321
   3	1	3	0.001076	57.7778	5.78492	11.0393
   4	1	2	0.034038	58.9689	3.78525	11.0282
   5	1	3	0.050122	58.8414	5.14192	10.4409
   6	1	5	-0.383076	56.2101	5.09571	12.7436
   7	1	5	-0.380811	59.8134	2.95155	10.7457
   8	1	3	-0.001248	57.4154	7.09181	10.6932
   9	1	3	-0.036565	59.6037	5.76769	9.45339
  10	1	3	-0.208842	59.2476	7.07935	9.07894
  11	1	3	-0.065319	58.1531	7.76354	9.6801
  12	1	6	0.153391	56.5779	7.54457	11.2134
  13	1	6	0.155343	60.4428	5.24987	8.99351
  14	1	6	0.174191	59.8378	7.57081	8.30822
  15	1	7	-0.106637	57.8394	9.2191	9.2194
  16	1	7	0.445763	56.4245	9.74128	9.67664
  17	1	8	-0.144255	55.4418	8.87158	9.34921
  18	1	8	-0.136881	56.1026	10.9099	9.07667
  19	1	8	-0.144092	56.3408	9.95229	11.0095
  20	1	7	0.367264	58.9523	10.1355	9.85885
  21	1	8	-0.12104	59.1001	9.8862	11.1804
  22	1	8	-0.122614	58.6927	11.4572	9.74502
  23	1	8	-0.112321	60.1646	9.92431	9.2982
  24	1	3	-0.021957	57.8249	9.24044	7.66267
  25	1	3	-0.054241	58.4005	10.2918	6.89926
  26	1	3	-0.111709	58.3166	10.2365	5.50149
  27	1	3	-0.087244	57.1651	8.18679	6.96786
  28	1	3	-0.118951	57.0922	8.15183	5.56125
  29	1	3	-0.044875	57.6838	9.19868	4.85027
  30	1	2	0.461883	57.7707	9.43938	3.3855
  31	1	1	-0.007433	58.4639	10.6334	3.24688
  32	1	2	0.491356	58.8308	11.1781	4.47146
  33	1	3	-0.019445	58.7891	11.2095	1.98809
  34	1	3	-0.186861	59.743	10.567	1.17602
  35	1	3	-0.068374	60.0937	11.0971	-0.0743622
  36	1	3	-0.009193	58.1662	12.3956	1.53593
  37	1	3	0.220761	58.5293	12.9241	0.280638
  38	1	3	-0.402098	59.4869	12.2809	-0.519013
  39	1	6	0.148422	60.2112	9.64625	1.51476
  40	1	6	0.146291	60.8313	10.5895	-0.693796
  41	1	6	0.158981	56.5884	7.34123	5.03816
  42	1	6	0.141813	56.6966	7.37952	7.5252
  43	1	6	0.143633	58.9005	11.1413	7.3541
  44	1	5	-0.474465	59.4637	12.1974	4.685
  45	1	5	-0.469737	57.3356	8.71279	2.50857
  46	1	7	-0.37887	57.1046	13.1046	2.37467
  47	1	9	0.115886	57.5534	13.5752	3.25895
  48	1	9	0.123845	56.3277	12.4072	2.71087
  49	1	9	0.138418	56.6032	13.8968	1.80395
  50	1	6	0.21348	59.7489	12.7031	-1.48417
  51	1	1	0.486064	56.2426	-12.0532	9.59551
  52	1	2	0.047133	55.3418	-11.1611	9.01789
  53	1	3	0.001076	55.4292	-9.9321	9.84579
  54	1	2	0.034038	56.9191	-11.5119	10.6864
  55	1	3	0.050122	56.3676	-10.1405	10.8358
  56	1	5	-0.383076	54.5967	-11.3436	8.07018
  57	1	5	-0.380811	57.7316	-12.0539	11.417
  58	1	3	-0.001248	54.6951	-8.74404	9.76055
  59	1	3	-0.036565	56.6262	-9.16591	11.8016
  60	1	3	-0.208842	55.9008	-7.95783	11.7316
  61	1	3	-0.065319	54.9343	-7.71688	10.7139
  62	1	6	0.153391	53.9519	-8.65984	8.975
  63	1	6	0.155343	57.3524	-9.35133	12.5902
  64	1	6	0.174191	56.0854	-7.20322	12.4936
  65	1	7	-0.106637	54.135	-6.37773	10.7329
  66	1	7	0.445763	53.43	-6.04402	9.3638
  67	1	8	-0.144255	52.9616	-4.77546	9.3354
  68	1	8	-0.136881	52.3776	-6.84878	9.09425
  69	1	8	-0.144092	54.2913	-6.15098	8.32656
  70	1	7	0.367264	53.0373	-6.5393	11.8523
  71	1	8	-0.12104	52.3752	-7.71294	11.7325
  72	1	8	-0.122614	52.0968	-5.56848	11.8315
  73	1	8	-0.112321	53.5837	-6.53893	13.0893
  74	1	3	-0.021957	55.1257	-5.20557	10.9985
  75	1	3	-0.054241	54.7956	-4.09267	11.8185
  76	1	3	-0.111709	55.7265	-3.05539	11.9611
  77	1	3	-0.087244	56.3867	-5.20246	10.3371
  78	1	3	-0.118951	57.312	-4.15213	10.501
  79	1	3	-0.044875	56.9504	-3.08439	11.3267
  80	1	2	0.461883	57.6824	-1.83387	11.6618
  81	1	1	-0.007433	56.8242	-1.10801	12.4783
  82	1	2	0.491356	55.6319	-1.77878	12.719
  83	1	3	-0.019445	57.1369	0.174613	13.0124
  84	1	3	-0.186861	57.307	0.29277	14.4035
  85	1	3	-0.068374	57.6502	1.52056	14.9815
  86	1	3	-0.009193	57.294	1.3096	12.178
  87	1	3	0.220761	57.6879	2.5429	12.7613
  88	1	3	-0.402098	57.8514	2.63797	14.1613
  89	1	6	0.148422	57.1661	-0.574151	15.0445
  90	1	6	0.146291	57.7688	1.60004	16.061
  91	1	6	0.158981	58.2724	-4.15674	9.98909
  92	1	6	0.141813	56.6539	-6.02258	9.67541
  93	1	6	0.143633	53.8411	-4.00158	12.3266
  94	1	5	-0.474465	54.6886	-1.41502	13.3989
  95	1	5	-0.469737	58.799	-1.52969	11.279
  96	1	7	-0.37887	57.0368	1.19502	10.6679
  97	1	9	0.115886	56.6908	2.13525	10.223
  98	1	9	0.123845	56.2615	0.455532	10.4351
  99	1	9	0.138418	57.9549	0.893176	10.1431
 100	1	6	0.21348	58.1239	3.58953	14.6138
 101	1	1	0.486064	47.1704	-24.6315	10.0213
 102	1	2	0.047133	47.5582	-24.1428	11.2676
 103	1	3	0.001076	48.9238	-23.5978	11.06
 104	1	2	0.034038	48.1616	-24.4973	9.05169
 105	1	3	0.050122	49.2795	-23.8107	9.74347
 106	1	5	-0.383076	46.9054	-24.0852	12.2958
 107	1	5	-0.380811	48.1063	-24.7818	7.86675
 108	1	3	-0.001248	49.7537	-22.9013	11.9463
 109	1	3	-0.036565	50.4936	-23.3474	9.23639
 110	1	3	-0.208842	51.3402	-22.6349	10.1083
 111	1	3	-0.065319	50.9862	-22.3827	11.4645
 112	1	6	0.153391	49.4081	-22.7546	12.9644
 113	1	6	0.155343	50.7554	-23.5126	8.1934
 114	1	6	0.174191	52.2769	-22.2504	9.71023
 115	1	7	-0.106637	51.9528	-21.5265	12.336
 116	1	7	0.445763	51.3152	-21.0038	13.6796
 117	1	8	-0.144255	50.1354	-20.3778	13.4668
 118	1	8	-0.136881	52.1099	-20.0969	14.2924
 119	1	8	-0.144092	51.0834	-21.9899	14.5747
 120	1	7	0.367264	53.1844	-22.4484	12.6808
 121	1	8	-0.12104	52.7841	-23.6454	13.1668
 122	1	8	-0.122614	54.0139	-21.9148	13.6051
 123	1	8	-0.112321	53.9367	-22.7182	11.5902
 124	1	3	-0.021957	52.3197	-20.2608	11.5085
 125	1	3	-0.054241	53.6383	-19.7377	11.433
 126	1	3	-0.111709	53.8647	-18.5895	10.6616
 127	1	3	-0.087244	51.28	-19.5738	10.8184
 128	1	3	-0.118951	51.5292	-18.4204	10.0511
 129	1	3	-0.044875	52.8428	-17.9522	9.98831
 130	1	2	0.461883	53.403	-16.765	9.29396
 131	1	1	-0.007433	54.7534	-16.7522	9.61591
 132	1	2	0.491356	55.1179	-17.8248	10.4198
 133	1	3	-0.019445	55.6467	-15.7282	9.19676
 134	1	3	-0.186861	56.6377	-16.0451	8.25046
 135	1	3	-0.068374	57.5051	-15.058	7.76541
 136	1	3	-0.009193	55.528	-14.405	9.68714
 137	1	3	0.220761	56.3871	-13.4027	9.17085
 138	1	3	-0.402098	57.3733	-13.7375	8.21697
 139	1	6	0.148422	56.7333	-17.0645	7.88404
 140	1	6	0.146291	58.2662	-15.3168	7.03082
 141	1	6	0.158981	50.7278	-17.9006	9.52931
 142	1	6	0.141813	50.2569	-19.9366	10.8762
 143	1	6	0.143633	54.4778	-20.1875	11.9541
 144	1	5	-0.474465	56.222	-18.0968	10.8573
 145	1	5	-0.469737	52.7797	-15.9694	8.61221
 146	1	7	-0.37887	54.4685	-14.0591	10.7457
 147	1	9	0.115886	54.2084	-14.9187	11.3742
 148	1	9	0.123845	53.5443	-13.7053	10.2674
 149	1	9	0.138418	54.8065	-13.2857	11.4458
 150	1	6	0.21348	58.0357	-12.9697	7.82422
 151	1	1	0.486064	39.1078	-14.7887	2.76165
 152	1	2	0.047133	38.0902	-15.5667	3.3163
 153	1	3	0.001076	38.7864	-16.6851	4.00626
 154	1	2	0.034038	40.3756	-15.3267	2.98231
 155	1	3	0.050122	40.1435	-16.5368	3.80887
 156	1	5	-0.383076	36.8928	-15.3374	3.34628
 157	1	5	-0.380811	41.4608	-14.8615	2.67472
 158	1	3	-0.001248	38.2698	-17.6802	4.84585
 159	1	3	-0.036565	41.0641	-17.3704	4.44626
 160	1	3	-0.208842	40.5659	-18.3695	5.30709
 161	1	3	-0.065319	39.1689	-18.5558	5.51504
 162	1	6	0.153391	37.1975	-17.7104	5.0064
 163	1	6	0.155343	42.1326	-17.2106	4.31725
 164	1	6	0.174191	41.2874	-18.9768	5.84912
 165	1	7	-0.106637	38.681	-19.5957	6.56948
 166	1	7	0.445763	38.6321	-18.8236	7.94281
 167	1	8	-0.144255	39.8721	-18.4752	8.35696
 168	1	8	-0.136881	38.0547	-19.54	8.93357
 169	1	8	-0.144092	37.937	-17.6669	7.85201
 170	1	7	0.367264	37.2517	-20.1804	6.25294
 171	1	8	-0.12104	36.2415	-19.3176	6.5
 172	1	8	-0.122614	36.9941	-21.2855	6.9892
 173	1	8	-0.112321	37.1429	-20.5467	4.95628
 174	1	3	-0.021957	39.657	-20.8138	6.57984
 175	1	3	-0.054241	40.2059	-21.3545	7.7742
 176	1	3	-0.111709	41.1013	-22.4261	7.68633
 177	1	3	-0.087244	40.0172	-21.4228	5.34353
 178	1	3	-0.118951	40.9234	-22.5022	5.2777
 179	1	3	-0.044875	41.4606	-22.9808	6.47644
 180	1	2	0.461883	42.4724	-24.0431	6.73272
 181	1	1	-0.007433	42.664	-24.0446	8.1075
 182	1	2	0.491356	41.8611	-23.1193	8.75792
 183	1	3	-0.019445	43.6424	-24.8312	8.77374
 184	1	3	-0.186861	43.3107	-26.1407	9.16175
 185	1	3	-0.068374	44.2391	-26.9397	9.84092
 186	1	3	-0.009193	44.923	-24.3026	9.05982
 187	1	3	0.220761	45.8654	-25.1188	9.73799
 188	1	3	-0.402098	45.5122	-26.4291	10.1292
 189	1	6	0.148422	42.3243	-26.5406	8.94024
 190	1	6	0.146291	43.9693	-27.9509	10.1419
 191	1	6	0.158981	41.2116	-22.9436	4.32551
 192	1	6	0.141813	39.6081	-21.0367	4.41328
 193	1	6	0.143633	39.9798	-20.9626	8.76022
 194	1	5	-0.474465	41.8414	-22.8456	9.94496
 195	1	5	-0.469737	43.0586	-24.7019	5.89165
 196	1	7	-0.37887	45.2561	-22.8683	8.61632
 197	1	9	0.115886	46.2021	-22.4849	9.01246
 198	1	9	0.123845	44.4866	-22.1604	8.94921
 199	1	9	0.138418	45.3202	-22.8116	7.52102
 200	1	6	0.21348	46.2294	-27.051	10.6602
 201	1	1	0.486064	31.2685	-9.30147	-10.062
 202	1	2	0.047133	32.2821	-8.42491	-9.68144
 203	1	3	0.001076	33.1115	-9.1888	-8.71404
 204	1	2	0.034038	31.3721	-10.5485	-9.44788
 205	1	3	0.050122	32.5745	-10.4524	-8.58196
 206	1	5	-0.383076	32.457	-7.27094	-10.0347
 207	1	5	-0.380811	30.6239	-11.5068	-9.54507
 208	1	3	-0.001248	34.2449	-8.7916	-7.99679
 209	1	3	-0.036565	33.1545	-11.4006	-7.73633
 210	1	3	-0.208842	34.3047	-11.024	-7.01072
 211	1	3	-0.065319	34.8572	-9.71519	-7.1053
 212	1	6	0.153391	34.6193	-7.78629	-8.15408
 213	1	6	0.155343	32.7272	-12.3977	-7.65318
 214	1	6	0.174191	34.7726	-11.7661	-6.36668
 215	1	7	-0.106637	36.146	-9.37174	-6.29799
 216	1	7	0.445763	37.3492	-9.94022	-7.14119
 217	1	8	-0.144255	38.5569	-9.50147	-6.72129
 218	1	8	-0.136881	37.253	-9.59353	-8.44535
 219	1	8	-0.144092	37.3779	-11.2919	-7.10904
 220	1	7	0.367264	36.3496	-7.82404	-6.08058
 221	1	8	-0.12104	37.3082	-7.56775	-5.16137
 222	1	8	-0.122614	35.2201	-7.23919	-5.62087
 223	1	8	-0.112321	36.7148	-7.16512	-7.20312
 224	1	3	-0.021957	36.046	-9.98829	-4.86844
 225	1	3	-0.054241	37.1688	-10.5437	-4.19718
 226	1	3	-0.111709	37.0224	-10.9878	-2.8771
 227	1	3	-0.087244	34.817	-9.89956	-4.1541
 228	1	3	-0.118951	34.6898	-10.3578	-2.82571
 229	1	3	-0.044875	35.8207	-10.8996	-2.20657
 230	1	2	0.461883	36.0326	-11.3574	-0.80467
 231	1	1	-0.007433	37.3823	-11.6711	-0.718756
 232	1	2	0.491356	38.0437	-11.5016	-1.92712
 233	1	3	-0.019445	38.0512	-11.966	0.501107
 234	1	3	-0.186861	38.5638	-10.8772	1.22852
 235	1	3	-0.068374	39.2476	-11.0772	2.43124
 236	1	3	-0.009193	38.2232	-13.2899	0.977997
 237	1	3	0.220761	38.9071	-13.4898	2.20751
 238	1	3	-0.402098	39.4155	-12.3782	2.91749
 239	1	6	0.148422	38.4362	-9.86425	0.854606
 240	1	6	0.146291	39.6469	-10.2257	2.98025
 241	1	6	0.158981	33.7534	-10.2598	-2.27986
 242	1	6	0.141813	33.9502	-9.44288	-4.62531
 243	1	6	0.143633	38.1532	-10.6015	-4.64945
 244	1	5	-0.474465	39.2282	-11.6614	-2.16349
 245	1	5	-0.469737	35.2018	-11.3632	0.0868979
 246	1	7	-0.37887	37.6681	-14.4757	0.178869
 247	1	9	0.115886	36.6524	-14.7244	0.516734
 248	1	9	0.123845	38.285	-15.3763	0.283173
 249	1	9	0.138418	37.6192	-14.2705	-0.896899
 250	1	6	0.21348	39.9577	-12.5291	3.84878
 251	1	1	0.486064	23.2579	-13.6899	-20.883
 252	1	2	0.047133	23.7395	-12.7486	-19.9731
 253	1	3	0.001076	24.8753	-12.0854	-20.6654
 254	1	2	0.034038	23.9392	-13.664	-22.0982
 255	1	3	0.050122	24.9956	-12.6345	-21.9253
 256	1	5	-0.383076	23.36	-12.5338	-18.8343
 257	1	5	-0.380811	23.729	-14.3303	-23.0984
 258	1	3	-0.001248	25.7528	-11.0941	-20.2103
 259	1	3	-0.036565	26.0014	-12.2208	-22.8013
 260	1	3	-0.208842	26.9074	-11.2346	-22.3563
 261	1	3	-0.065319	26.8152	-10.6672	-21.0523
 262	1	6	0.153391	25.6154	-10.6819	-19.2134
 263	1	6	0.155343	26.0811	-12.6597	-23.7937
 264	1	6	0.174191	27.6792	-10.923	-23.0524
 265	1	7	-0.106637	27.8024	-9.57427	-20.537
 266	1	7	0.445763	29.1812	-9.54792	-21.3009
 267	1	8	-0.144255	30.0936	-8.784	-20.6575
 268	1	8	-0.136881	29.0946	-9.05864	-22.5583
 269	1	8	-0.144092	29.7226	-10.7841	-21.3906
 270	1	7	0.367264	27.0712	-8.19484	-20.7446
 271	1	8	-0.12104	26.5735	-8.07712	-21.9969
 272	1	8	-0.122614	27.8757	-7.12585	-20.5506
 273	1	8	-0.112321	26.0182	-8.06385	-19.9066
 274	1	3	-0.021957	28.1489	-9.88173	-19.0485
 275	1	3	-0.054241	28.2479	-8.87208	-18.0523
 276	1	3	-0.111709	28.581	-9.24205	-16.7417
 277	1	3	-0.087244	28.4294	-11.2262	-18.6715
 278	1	3	-0.118951	28.7455	-11.578	-17.3443
 279	1	3	-0.044875	28.8096	-10.556	-16.394
 280	1	2	0.461883	29.0871	-10.6154	-14.9346
 281	1	1	-0.007433	29.0181	-9.30118	-14.4852
 282	1	2	0.491356	28.7232	-8.41249	-15.5144
 283	1	3	-0.019445	29.104	-8.93139	-13.1093
 284	1	3	-0.186861	27.9784	-8.31806	-12.527
 285	1	3	-0.068374	27.953	-8.00101	-11.1645
 286	1	3	-0.009193	30.2442	-9.21364	-12.3121
 287	1	3	0.220761	30.1937	-8.93848	-10.9213
 288	1	3	-0.402098	29.0518	-8.32633	-10.3609
 289	1	6	0.148422	27.1081	-8.08654	-13.1367
 290	1	6	0.146291	27.0732	-7.52655	-10.7325
 291	1	6	0.158981	28.9368	-12.611	-17.0604
 292	1	6	0.141813	28.3949	-12.0171	-19.4166
 293	1	6	0.143633	28.0751	-7.82173	-18.263
 294	1	5	-0.474465	28.5482	-7.20857	-15.4436
 295	1	5	-0.469737	29.2739	-11.6288	-14.2831
 296	1	7	-0.37887	31.5127	-9.81436	-12.9332
 297	1	9	0.115886	31.5207	-10.9077	-12.8236
 298	1	9	0.123845	32.4281	-9.41936	-12.475
 299	1	9	0.138418	31.5993	-9.58826	-14.0024
 300	1	6	0.21348	29.0177	-8.1067	-9.29645
 301	1	1	0.486064	24.4052	-25.7425	-11.2915
 302	1	2	0.047133	23.4991	-26.0923	-12.2973
 303	1	3	0.001076	23.092	-24.8062	-12.9267
 304	1	2	0.034038	24.6685	-24.3717	-11.2699
 305	1	3	0.050122	23.811	-23.7904	-12.332
 306	1	5	-0.383076	23.1465	-27.2062	-12.648
 307	1	5	-0.380811	25.4422	-23.7581	-10.5521
 308	1	3	-0.001248	22.1232	-24.5447	-13.9061
 309	1	3	-0.036565	23.6524	-22.4605	-12.7261
 310	1	3	-0.208842	22.697	-22.1771	-13.7231
 311	1	3	-0.065319	21.8966	-23.1983	-14.3073
 312	1	6	0.153391	21.5469	-25.3777	-14.2952
 313	1	6	0.155343	24.2308	-21.6719	-12.2493
 314	1	6	0.174191	22.5432	-21.1375	-14.0067
 315	1	7	-0.106637	20.7298	-22.7752	-15.2482
 316	1	7	0.445763	20.1279	-23.9568	-16.1044
 317	1	8	-0.144255	21.0912	-24.6665	-16.7341
 318	1	8	-0.136881	19.3027	-23.4927	-17.0693
 319	1	8	-0.144092	19.413	-24.8403	-15.3717
 320	1	7	0.367264	19.596	-22.2212	-14.2995
 321	1	8	-0.12104	19.3153	-23.0857	-13.297
 322	1	8	-0.122614	18.4299	-21.9858	-14.9393
 323	1	8	-0.112321	19.9541	-21.0653	-13.6954
 324	1	3	-0.021957	21.2643	-21.7253	-16.2692
 325	1	3	-0.054241	20.6031	-20.4958	-16.5341
 326	1	3	-0.111709	21.1201	-19.6446	-17.5188
 327	1	3	-0.087244	22.4296	-22.0341	-17.0264
 328	1	3	-0.118951	22.9054	-21.1831	-18.0462
 329	1	3	-0.044875	22.2191	-19.987	-18.2765
 330	1	2	0.461883	22.4263	-18.928	-19.3046
 331	1	1	-0.007433	21.4657	-17.954	-19.0416
 332	1	2	0.491356	20.6216	-18.332	-18.0019
 333	1	3	-0.019445	21.3308	-16.7177	-19.7522
 334	1	3	-0.186861	20.0687	-16.4037	-20.294
 335	1	3	-0.068374	19.8437	-15.1911	-20.955
 336	1	3	-0.009193	22.3994	-15.7882	-19.8849
 337	1	3	0.220761	22.1851	-14.5896	-20.6173
 338	1	3	-0.402098	20.9034	-14.2928	-21.1285
 339	1	6	0.148422	19.2381	-17.0937	-20.1707
 340	1	6	0.146291	18.8521	-14.959	-21.3411
 341	1	6	0.158981	23.7662	-21.4537	-18.6537
 342	1	6	0.141813	22.9553	-22.9686	-16.8503
 343	1	6	0.143633	19.6948	-20.1947	-16.0239
 344	1	5	-0.474465	19.6561	-17.7307	-17.5615
 345	1	5	-0.469737	23.2547	-18.9451	-20.2004
 346	1	7	-0.37887	23.7693	-16.0618	-19.2444
 347	1	9	0.115886	24.4517	-16.5322	-19.9657
 348	1	9	0.123845	23.6996	-16.7252	-18.3751
 349	1	9	0.138418	24.2508	-15.154	-18.8627
 350	1	6	0.21348	20.7351	-13.3576	-21.6573
 351	1	1	0.486064	18.8823	-26.3291	0.0958806
 352	1	2	0.047133	18.6578	-27.6808	-0.174674
 353	1	3	0.001076	19.9406	-28.1886	-0.717229
 354	1	2	0.034038	20.2033	-25.9494	-0.154947
 355	1	3	0.050122	20.8678	-27.1712	-0.67877
 356	1	5	-0.383076	17.6454	-28.3381	0.00224214
 357	1	5	-0.380811	20.7222	-24.8558	-0.00093755
 358	1	3	-0.001248	20.2498	-29.4521	-1.22617
 359	1	3	-0.036565	22.1864	-27.3851	-1.08818
 360	1	3	-0.208842	22.5295	-28.666	-1.57437
 361	1	3	-0.065319	21.5644	-29.7064	-1.70658
 362	1	6	0.153391	19.4578	-30.1914	-1.23509
 363	1	6	0.155343	22.918	-26.582	-1.02923
 364	1	6	0.174191	23.5591	-28.8403	-1.88074
 365	1	7	-0.106637	21.9946	-31.0959	-2.28317
 366	1	7	0.445763	20.7638	-31.9896	-2.70236
 367	1	8	-0.144255	21.128	-33.1013	-3.38043
 368	1	8	-0.136881	19.9319	-31.3096	-3.52355
 369	1	8	-0.144092	20.0407	-32.4262	-1.64672
 370	1	7	0.367264	22.7872	-31.808	-1.12093
 371	1	8	-0.12104	24.0279	-31.2879	-0.98587
 372	1	8	-0.122614	22.9356	-33.1405	-1.29023
 373	1	8	-0.112321	22.1701	-31.6531	0.0731996
 374	1	3	-0.021957	22.8643	-30.9255	-3.57267
 375	1	3	-0.054241	22.7884	-29.7509	-4.37314
 376	1	3	-0.111709	23.5769	-29.6565	-5.53025
 377	1	3	-0.087244	23.7055	-31.9827	-4.02893
 378	1	3	-0.118951	24.4392	-31.8919	-5.22744
 379	1	3	-0.044875	24.3517	-30.7085	-5.96193
 380	1	2	0.461883	25.0161	-30.3177	-7.23077
 381	1	1	-0.007433	24.641	-28.9971	-7.46998
 382	1	2	0.491356	23.7806	-28.5241	-6.47651
 383	1	3	-0.019445	25.2011	-28.2108	-8.53286
 384	1	3	-0.186861	26.6044	-28.2321	-8.66633
 385	1	3	-0.068374	27.2526	-27.5105	-9.67075
 386	1	3	-0.009193	24.4241	-27.4302	-9.43797
 387	1	3	0.220761	25.0922	-26.6614	-10.4371
 388	1	3	-0.402098	26.4991	-26.7245	-10.5452
 389	1	6	0.148422	27.2107	-28.826	-7.98603
 390	1	6	0.146291	28.338	-27.545	-9.75325
 391	1	6	0.158981	25.0626	-32.7144	-5.57345
 392	1	6	0.141813	23.7763	-32.9141	-3.47945
 393	1	6	0.143633	22.1411	-28.9174	-4.11379
 394	1	5	-0.474465	23.3531	-27.3936	-6.3201
 395	1	5	-0.469737	25.7731	-31.0221	-7.87746
 396	1	7	-0.37887	22.8934	-27.3891	-9.31293
 397	1	9	0.115886	22.381	-27.3522	-10.2778
 398	1	9	0.123845	22.5707	-26.5169	-8.72868
 399	1	9	0.138418	22.4886	-28.2813	-8.8236
 400	1	6	0.21348	27.0151	-26.1253	-11.2923
 401	1	1	0.486064	8.33263	-29.2789	-4.3441
 402	1	2	0.047133	9.45746	-28.4984	-4.08778
 403	1	3	0.001076	9.0218	-27.1043	-4.34627
 404	1	2	0.034038	7.23336	-28.5278	-4.76063
 405	1	3	0.050122	7.70097	-27.12	-4.74023
 406	1	5	-0.383076	10.544	-28.8484	-3.65823
 407	1	5	-0.380811	6.10223	-28.9108	-5.00935
 408	1	3	-0.001248	9.72042	-25.9081	-4.17587
 409	1	3	-0.036565	7.00653	-25.9349	-4.99445
 410	1	3	-0.208842	7.6875	-24.7125	-4.80812
 411	1	3	-0.065319	9.04223	-24.6751	-4.36928
 412	1	6	0.153391	10.7589	-25.9477	-3.85594
 413	1	6	0.155343	5.96375	-25.9657	-5.30361
 414	1	6	0.174191	7.13389	-23.799	-5.00032
 415	1	7	-0.106637	9.8113	-23.3481	-4.09792
 416	1	7	0.445763	8.87894	-22.1114	-3.81207
 417	1	8	-0.144255	7.93377	-22.399	-2.88868
 418	1	8	-0.136881	8.23357	-21.6562	-4.90945
 419	1	8	-0.144092	9.58272	-21.0667	-3.32007
 420	1	7	0.367264	10.6638	-23.0691	-5.39254
 421	1	8	-0.12104	9.90543	-23.1232	-6.51114
 422	1	8	-0.122614	11.6357	-23.9952	-5.55838
 423	1	8	-0.112321	11.2594	-21.8556	-5.38796
 424	1	3	-0.021957	10.6684	-23.5628	-2.81375
 425	1	3	-0.054241	12.0396	-23.2024	-2.72904
 426	1	3	-0.111709	12.7639	-23.5685	-1.5876
 427	1	3	-0.087244	10.0692	-24.1999	-1.68858
 428	1	3	-0.118951	10.8203	-24.5726	-0.556564
 429	1	3	-0.044875	12.1827	-24.2638	-0.548101
 430	1	2	0.461883	13.2459	-24.624	0.427053
 431	1	1	-0.007433	14.4252	-24.1241	-0.108702
 432	1	2	0.491356	14.2127	-23.4229	-1.2897
 433	1	3	-0.019445	15.7018	-24.3371	0.485326
 434	1	3	-0.186861	15.9697	-23.6948	1.70689
 435	1	3	-0.068374	17.1831	-23.8982	2.37159
 436	1	3	-0.009193	16.6619	-25.2112	-0.0894427
 437	1	3	0.220761	17.8866	-25.4363	0.601628
 438	1	3	-0.402098	18.1339	-24.7661	1.82121
 439	1	6	0.148422	15.2248	-23.0392	2.15138
 440	1	6	0.146291	17.3788	-23.3911	3.31516
 441	1	6	0.158981	10.3688	-25.1171	0.270639
 442	1	6	0.141813	9.01514	-24.4661	-1.7139
 443	1	6	0.143633	12.5659	-22.6986	-3.53329
 444	1	5	-0.474465	15.0343	-22.8536	-1.98729
 445	1	5	-0.469737	13.0981	-25.2722	1.4488
 446	1	7	-0.37887	16.3503	-25.9267	-1.41632
 447	1	9	0.115886	17.2494	-26.2382	-1.95853
 448	1	9	0.123845	15.807	-25.298	-2.12671
 449	1	9	0.138418	15.7444	-26.8261	-1.23778
 450	1	6	0.21348	19.0777	-24.9171	2.34136
 451	1	1	0.486064	11.7909	-42.3642	-8.49742
 452	1	2	0.047133	10.5524	-42.5053	-7.8755
 453	1	3	0.001076	9.74143	-41.361	-8.3607
 454	1	2	0.034038	11.8523	-41.2514	-9.33476
 455	1	3	0.050122	10.5144	-40.6139	-9.22533
 456	1	5	-0.383076	10.1911	-43.3668	-7.09179
 457	1	5	-0.380811	12.7822	-40.8796	-10.0312
 458	1	3	-0.001248	8.4218	-41.0105	-8.05641
 459	1	3	-0.036565	10.0084	-39.4621	-9.83163
 460	1	3	-0.208842	8.68181	-39.0861	-9.53214
 461	1	3	-0.065319	7.8667	-39.84	-8.64228
 462	1	6	0.153391	7.87065	-41.6518	-7.37739
 463	1	6	0.155343	10.6266	-38.8748	-10.5083
 464	1	6	0.174191	8.28914	-38.185	-9.99814
 465	1	7	-0.106637	6.40315	-39.3715	-8.37881
 466	1	7	0.445763	5.56518	-39.7672	-9.65227
 467	1	8	-0.144255	5.87927	-38.9942	-10.7161
 468	1	8	-0.136881	4.22779	-39.6727	-9.47768
 469	1	8	-0.144092	5.80188	-41.0417	-10.0241
 470	1	7	0.367264	5.75164	-40.0372	-7.10705
 471	1	8	-0.12104	6.54953	-39.9238	-6.0208
 472	1	8	-0.122614	5.48323	-41.3517	-7.27473
 473	1	8	-0.112321	4.58229	-39.4453	-6.77184
 474	1	3	-0.021957	6.40675	-37.8415	-8.09893
 475	1	3	-0.054241	7.41428	-37.2996	-7.2589
 476	1	3	-0.111709	7.34411	-35.9499	-6.89528
 477	1	3	-0.087244	5.3661	-36.9775	-8.54917
 478	1	3	-0.118951	5.30924	-35.625	-8.16177
 479	1	3	-0.044875	6.31217	-35.1418	-7.31951
 480	1	2	0.461883	6.42552	-33.8331	-6.62949
 481	1	1	-0.007433	7.54566	-33.9377	-5.81121
 482	1	2	0.491356	8.17378	-35.1724	-5.93819
 483	1	3	-0.019445	7.88655	-32.9694	-4.82135
 484	1	3	-0.186861	7.91755	-33.3889	-3.47717
 485	1	3	-0.068374	8.14866	-32.4777	-2.44156
 486	1	3	-0.009193	8.10715	-31.6058	-5.13997
 487	1	3	0.220761	8.26771	-30.6749	-4.08276
 488	1	3	-0.402098	8.30443	-31.1203	-2.74329
 489	1	6	0.148422	7.75807	-34.4358	-3.22885
 490	1	6	0.146291	8.17681	-32.8219	-1.40884
 491	1	6	0.158981	4.4829	-34.9828	-8.46129
 492	1	6	0.141813	4.55284	-37.3451	-9.16311
 493	1	6	0.143633	8.20651	-37.9216	-6.84798
 494	1	5	-0.474465	9.1331	-35.5978	-5.31824
 495	1	5	-0.469737	5.6071	-32.9311	-6.6839
 496	1	7	-0.37887	8.1648	-31.1385	-6.60134
 497	1	9	0.115886	8.48137	-31.9389	-7.28077
 498	1	9	0.123845	8.88209	-30.322	-6.75027
 499	1	9	0.138418	7.17844	-30.7877	-6.93755
 500	1	6	0.21348	8.45387	-30.4079	-1.93495
 501	1	1	0.486064	14.3442	-53.1838	-18.5119
 502	1	2	0.047133	15.3206	-53.4754	-17.5607
 503	1	3	0.001076	15.4046	-52.2637	-16.7059
 504	1	2	0.034038	13.8071	-51.9062	-18.3613
 505	1	3	0.050122	14.5064	-51.3321	-17.1848
 506	1	5	-0.383076	15.9678	-54.5005	-17.4281
 507	1	5	-0.380811	12.9426	-51.3621	-19.0282
 508	1	3	-0.001248	16.2127	-52.006	-15.5924
 509	1	3	-0.036565	14.3708	-50.0805	-16.5823
 510	1	3	-0.208842	15.176	-49.799	-15.4597
 511	1	3	-0.065319	16.0933	-50.7527	-14.9329
 512	1	6	0.153391	16.9085	-52.7746	-15.2734
 513	1	6	0.155343	13.6672	-49.3513	-16.9788
 514	1	6	0.174191	15.0847	-48.8181	-14.9974
 515	1	7	-0.106637	16.9635	-50.3627	-13.7014
 516	1	7	0.445763	18.1617	-49.5083	-14.2637
 517	1	8	-0.144255	19.1102	-49.249	-13.3358
 518	1	8	-0.136881	17.742	-48.3192	-14.7526
 519	1	8	-0.144092	18.7839	-50.1332	-15.2895
 520	1	7	0.367264	17.5417	-51.6022	-12.9157
 521	1	8	-0.12104	18.5348	-52.2427	-13.5721
 522	1	8	-0.122614	16.5848	-52.5225	-12.6588
 523	1	8	-0.112321	18.0478	-51.2379	-11.7155
 524	1	3	-0.021957	16.0606	-49.591	-12.6922
 525	1	3	-0.054241	16.4509	-48.3727	-12.0724
 526	1	3	-0.111709	15.5632	-47.7493	-11.1854
 527	1	3	-0.087244	14.7889	-50.1374	-12.3573
 528	1	3	-0.118951	13.9171	-49.5001	-11.452
 529	1	3	-0.044875	14.3348	-48.296	-10.8801
 530	1	2	0.461883	13.6436	-47.393	-9.9218
 531	1	1	-0.007433	14.5073	-46.3215	-9.73202
 532	1	2	0.491356	15.6943	-46.4697	-10.4386
 533	1	3	-0.019445	14.2146	-45.205	-8.89782
 534	1	3	-0.186861	15.0053	-45.0148	-7.7498
 535	1	3	-0.068374	14.7477	-43.9589	-6.86798
 536	1	3	-0.009193	13.1535	-44.3083	-9.18638
 537	1	3	0.220761	12.8815	-43.2531	-8.27794
 538	1	3	-0.402098	13.6825	-43.087	-7.12665
 539	1	6	0.148422	15.8279	-45.6935	-7.53736
 540	1	6	0.146291	15.3664	-43.827	-5.98168
 541	1	6	0.158981	12.9451	-49.9234	-11.2057
 542	1	6	0.141813	14.4652	-51.0709	-12.8105
 543	1	6	0.143633	17.4077	-47.8962	-12.261
 544	1	5	-0.474465	16.6554	-45.7211	-10.4635
 545	1	5	-0.469737	12.5414	-47.5699	-9.43241
 546	1	7	-0.37887	12.297	-44.4786	-10.4503
 547	1	9	0.115886	11.3484	-44.9805	-10.2139
 548	1	9	0.123845	12.7953	-45.0695	-11.2262
 549	1	9	0.138418	12.0675	-43.5174	-10.9254
 550	1	6	0.21348	13.473	-42.2814	-6.42699
 551	1	1	0.486064	3.55571	-52.1034	-17.3315
 552	1	2	0.047133	3.21973	-52.7201	-18.537
 553	1	3	0.001076	3.90822	-54.0366	-18.5071
 554	1	2	0.034038	4.35616	-52.9065	-16.52
 555	1	3	0.050122	4.58743	-54.1394	-17.3103
 556	1	5	-0.383076	2.5348	-52.2838	-19.4468
 557	1	5	-0.380811	4.79953	-52.6645	-15.4091
 558	1	3	-0.001248	3.96391	-55.0453	-19.4776
 559	1	3	-0.036565	5.36869	-55.2554	-17.0132
 560	1	3	-0.208842	5.45552	-56.2729	-17.9832
 561	1	3	-0.065319	4.76844	-56.1911	-19.2283
 562	1	6	0.153391	3.40996	-54.9013	-20.3996
 563	1	6	0.155343	5.90697	-55.3165	-16.0698
 564	1	6	0.174191	6.0884	-57.1303	-17.7659
 565	1	7	-0.106637	4.97597	-57.34	-20.2617
 566	1	7	0.445763	4.43323	-57.016	-21.706
 567	1	8	-0.144255	4.91212	-55.8424	-22.1761
 568	1	8	-0.136881	3.08429	-56.9419	-21.7586
 569	1	8	-0.144092	4.81199	-57.9534	-22.6041
 570	1	7	0.367264	4.20673	-58.6005	-19.704
 571	1	8	-0.12104	4.13916	-59.6235	-20.5852
 572	1	8	-0.122614	4.77663	-59.0959	-18.5822
 573	1	8	-0.112321	2.93295	-58.2933	-19.3696
 574	1	3	-0.021957	6.51332	-57.5396	-20.3971
 575	1	3	-0.054241	7.33134	-56.387	-20.5257
 576	1	3	-0.111709	8.72003	-56.5356	-20.5722
 577	1	3	-0.087244	7.14652	-58.8157	-20.3762
 578	1	3	-0.118951	8.55195	-58.9421	-20.4199
 579	1	3	-0.044875	9.31823	-57.7746	-20.5035
 580	1	2	0.461883	10.7935	-57.5768	-20.5023
 581	1	1	-0.007433	10.9863	-56.2013	-20.5581
 582	1	2	0.491356	9.78624	-55.5043	-20.636
 583	1	3	-0.019445	12.2685	-55.5802	-20.5265
 584	1	3	-0.186861	13.1618	-55.8501	-21.5795
 585	1	3	-0.068374	14.4326	-55.2641	-21.6112
 586	1	3	-0.009193	12.6572	-54.716	-19.4707
 587	1	3	0.220761	13.9332	-54.0969	-19.5243
 588	1	3	-0.402098	14.8126	-54.3836	-20.5908
 589	1	6	0.148422	12.872	-56.5298	-22.3775
 590	1	6	0.146291	15.117	-55.4913	-22.4273
 591	1	6	0.158981	9.03365	-59.9171	-20.374
 592	1	6	0.141813	6.56496	-59.7285	-20.3055
 593	1	6	0.143633	6.90473	-55.3867	-20.5565
 594	1	5	-0.474465	9.61213	-54.3	-20.703
 595	1	5	-0.469737	11.6377	-58.4522	-20.4224
 596	1	7	-0.37887	11.7107	-54.4545	-18.2887
 597	1	9	0.115886	12.2433	-54.2533	-17.3519
 598	1	9	0.123845	11.0586	-55.3103	-18.0794
 599	1	9	0.138418	11.0658	-53.5889	-18.4997
 600	1	6	0.21348	15.8006	-53.9289	-20.6187
 601	1	1	0.486064	7.23904	-36.8857	-13.5509
 602	1	2	0.047133	8.14662	-37.8148	-13.0347
 603	1	3	0.001076	7.57098	-39.1459	-13.355
 604	1	2	0.034038	6.10841	-37.4939	-14.0967
 605	1	3	0.050122	6.34558	-38.952	-13.9562
 606	1	5	-0.383076	9.18015	-37.6065	-12.4202
 607	1	5	-0.380811	5.11883	-36.9665	-14.5775
 608	1	3	-0.001248	8.08848	-40.4278	-13.1339
 609	1	3	-0.036565	5.53276	-40.0314	-14.3039
 610	1	3	-0.208842	6.02282	-41.3318	-14.0647
 611	1	3	-0.065319	7.32493	-41.5596	-13.5304
 612	1	6	0.153391	9.06128	-40.5182	-12.6629
 613	1	6	0.155343	4.55059	-39.8631	-14.7409
 614	1	6	0.174191	5.37081	-42.1659	-14.3129
 615	1	7	-0.106637	7.86038	-43.0133	-13.3413
 616	1	7	0.445763	9.4061	-43.1278	-13.6478
 617	1	8	-0.144255	9.74292	-42.4675	-14.7781
 618	1	8	-0.136881	9.78437	-44.415	-13.8211
 619	1	8	-0.144092	10.2002	-42.6285	-12.6749
 620	1	7	0.367264	7.61265	-43.401	-11.836
 621	1	8	-0.12104	8.14046	-44.6034	-11.5145
 622	1	8	-0.122614	6.29226	-43.4365	-11.5491
 623	1	8	-0.112321	8.15244	-42.5071	-10.9778
 624	1	3	-0.021957	7.13358	-43.9649	-14.3495
 625	1	3	-0.054241	6.41511	-45.1258	-13.9486
 626	1	3	-0.111709	5.74709	-45.8844	-14.9178
 627	1	3	-0.087244	7.16259	-43.6515	-15.7401
 628	1	3	-0.118951	6.49246	-44.4366	-16.7015
 629	1	3	-0.044875	5.78039	-45.5531	-16.2552
 630	1	2	0.461883	4.94793	-46.5365	-17.0019
 631	1	1	-0.007433	4.45362	-47.4077	-16.0404
 632	1	2	0.491356	4.89058	-47.0899	-14.7621
 633	1	3	-0.019445	3.56823	-48.4848	-16.3204
 634	1	3	-0.186861	2.19212	-48.2832	-16.1145
 635	1	3	-0.068374	1.27589	-49.316	-16.3433
 636	1	3	-0.009193	4.04785	-49.7413	-16.7616
 637	1	3	0.220761	3.11937	-50.799	-16.9598
 638	1	3	-0.402098	1.7396	-50.57	-16.7601
 639	1	6	0.148422	1.82891	-47.318	-15.7715
 640	1	6	0.146291	0.212112	-49.1456	-16.1855
 641	1	6	0.158981	6.50949	-44.1763	-17.7584