pySIMM System Object

1702 atoms
1871 bonds
3264 angles
5028 dihedrals
544 impropers

9 atom types
11 bond types
18 angle types
7 dihedral types
4 improper types

-193.707799 193.707799 xlo xhi
-193.707799 193.707799 ylo yhi
-193.707799 193.707799 zlo zhi

Masses

   1	14.01	# n
   2	12.01	# c
   3	12.01	# ca
   4	1.008	# hn
   5	16.0	# o
   6	1.008	# ha
   7	12.01	# c3
   8	19.0	# f
   9	1.008	# hc

Pair Coeffs

   1	0.17	3.249998523775958	# n
   2	0.086	3.3996695084235347	# c
   3	0.086	3.3996695084235347	# ca
   4	0.0157	1.069078461768407	# hn
   5	0.21	2.959921901149463	# o
   6	0.015	2.59964245953351	# ha
   7	0.1094	3.3996695084235347	# c3
   8	0.061	3.1181455134911875	# f
   9	0.0157	2.649532787749369	# hc

Bond Coeffs

   1	427.6	1.3789	# c,n
   2	461.1	1.3984	# ca,ca
   3	345.9	1.4906	# c,ca
   4	345.8	1.086	# ca,ha
   5	637.7	1.2183	# c,o
   6	321.0	1.5156	# c3,ca
   7	300.9	1.5375	# c3,c3
   8	356.9	1.3497	# c3,f
   9	384.2	1.4121	# ca,n
  10	330.6	1.0969	# c3,hc
  11	403.2	1.0129	# hn,n

Angle Coeffs

   1	48.18	119.88	# ca,ca,ha
   2	63.15	112.07	# c3,c3,ca
   3	70.89	107.36	# f,c3,f
   4	67.87	120.19	# ca,ca,n
   5	68.72	122.6	# ca,c,o
   6	63.56	112.24	# ca,c3,ca
   7	63.82	123.71	# c,n,ca
   8	74.22	123.05	# n,c,o
   9	48.33	117.55	# c,n,hn
  10	67.68	115.25	# ca,c,n
  11	64.28	120.33	# c,ca,ca
  12	66.11	109.24	# c3,c3,f
  13	46.8	110.47	# ca,c3,hc
  14	39.4	107.58	# hc,c3,hc
  15	66.62	120.02	# ca,ca,ca
  16	63.53	120.77	# c3,ca,ca
  17	62.86	111.51	# c3,c3,c3
  18	63.74	127.08	# c,n,c

Dihedral Coeffs

   1	1	2.5	2	180	# X,c,n,X
   2	1	0.45	2	180	# X,ca,n,X
   3	2	2.5	2	180	2.0	1	0	# hn,n,c,o
   4	1	3.625	2	180	# X,ca,ca,X
   5	1	1.0	2	180	# X,c,ca,X
   6	1	0.15555555555555556	3	0	# X,c3,c3,X
   7	1	0.0	2	0	# X,c3,ca,X

Improper Coeffs

   1	1.1	-1	2	# ca,ca,ca,c3
   2	10.5	-1	2	# c,X,X,o
   3	1.1	-1	2	# ca,X,X,ha
   4	1.1	-1	2	# n,X,X,hn

Atoms

   1	1	1	0.486064	-11.5232	-25.0216	50.6985
   2	1	2	0.047133	-12.4879	-24.1137	51.1272
   3	1	3	0.001076	-11.9449	-23.5414	52.3832
   4	1	2	0.034038	-10.444	-25.1244	51.5749
   5	1	3	0.050122	-10.7308	-24.1402	52.6485
   6	1	5	-0.383076	-13.5125	-23.7729	50.5609
   7	1	5	-0.380811	-9.43598	-25.8018	51.4613
   8	1	3	-0.001248	-12.4503	-22.5098	53.1789
   9	1	3	-0.036565	-9.95312	-23.7451	53.7383
  10	1	3	-0.208842	-10.438	-22.697	54.5479
  11	1	3	-0.065319	-11.6778	-22.0491	54.2793
  12	1	6	0.153391	-13.4037	-22.076	52.8981
  13	1	6	0.155343	-8.99051	-24.2154	53.9278
  14	1	6	0.174191	-9.82032	-22.3636	55.3791
  15	1	7	-0.106637	-12.1072	-20.8473	55.1761
  16	1	7	0.445763	-13.338	-20.0427	54.6097
  17	1	8	-0.144255	-13.1224	-19.6418	53.3358
  18	1	8	-0.136881	-13.5769	-18.911	55.3108
  19	1	8	-0.144092	-14.4843	-20.759	54.624
  20	1	7	0.367264	-12.4856	-21.4473	56.5851
  21	1	8	-0.12104	-13.2716	-22.5405	56.4577
  22	1	8	-0.122614	-13.1589	-20.5897	57.3837
  23	1	8	-0.112321	-11.3907	-21.8379	57.2752
  24	1	3	-0.021957	-10.9308	-19.8304	55.2307
  25	1	3	-0.054241	-10.7049	-19.0007	56.3605
  26	1	3	-0.111709	-9.69285	-18.0345	56.3
  27	1	3	-0.087244	-10.1212	-19.6294	54.0755
  28	1	3	-0.118951	-9.10017	-18.6594	54.0404
  29	1	3	-0.044875	-8.91055	-17.8688	55.1762
  30	1	2	0.461883	-8.00853	-16.7082	55.3982
  31	1	1	-0.007433	-8.33459	-16.2264	56.6574
  32	1	2	0.491356	-9.32032	-16.9795	57.279
  33	1	3	-0.019445	-7.81202	-15.0202	57.1929
  34	1	3	-0.186861	-6.71401	-15.0688	58.0717
  35	1	3	-0.068374	-6.17852	-13.8874	58.608
  36	1	3	-0.009193	-8.38705	-13.7775	56.8463
  37	1	3	0.220761	-7.84249	-12.5963	57.3893
  38	1	3	-0.402098	-6.74497	-12.6501	58.2638
  39	1	6	0.148422	-6.27394	-16.0259	58.3394
  40	1	6	0.146291	-5.32817	-13.9333	59.2861
  41	1	6	0.158981	-8.50282	-18.4973	53.1453
  42	1	6	0.141813	-10.2998	-20.2095	53.1738
  43	1	6	0.143633	-11.3189	-19.0533	57.2539
  44	1	5	-0.474465	-9.84605	-16.7857	58.3609
  45	1	5	-0.469737	-7.22217	-16.2414	54.592
  46	1	7	-0.37887	-9.58268	-13.7032	55.8964
  47	1	9	0.115886	-10.4301	-14.2867	56.2784
  48	1	9	0.123845	-9.32056	-14.0865	54.9018
  49	1	9	0.138418	-9.93298	-12.6715	55.764
  50	1	6	0.21348	-6.34012	-11.728	58.671
  51	1	1	0.486064	-3.12717	-27.8458	38.1575
  52	1	2	0.047133	-3.51923	-26.507	38.1257
  53	1	3	0.001076	-4.84823	-26.4743	38.7871
  54	1	2	0.034038	-4.08544	-28.6751	38.7377
  55	1	3	0.050122	-5.18021	-27.7632	39.1517
  56	1	5	-0.383076	-2.88323	-25.5399	37.7413
  57	1	5	-0.380811	-4.01823	-29.8726	38.9602
  58	1	3	-0.001248	-5.65519	-25.3793	39.1206
  59	1	3	-0.036565	-6.34455	-28.0348	39.8701
  60	1	3	-0.208842	-7.16351	-26.9463	40.2303
  61	1	3	-0.065319	-6.83514	-25.6052	39.8803
  62	1	6	0.153391	-5.32822	-24.3899	38.8179
  63	1	6	0.155343	-6.58468	-29.0535	40.1676
  64	1	6	0.174191	-8.05516	-27.1525	40.8185
  65	1	7	-0.106637	-7.76022	-24.4592	40.39
  66	1	7	0.445763	-7.13728	-23.016	40.2518
  67	1	8	-0.144255	-7.88076	-22.0884	40.8961
  68	1	8	-0.136881	-7.02384	-22.6062	38.9687
  69	1	8	-0.144092	-5.90166	-22.9392	40.7957
  70	1	7	0.367264	-9.08023	-24.5218	39.528
  71	1	8	-0.12104	-8.80631	-24.5231	38.2036
  72	1	8	-0.122614	-9.91456	-23.4823	39.7526
  73	1	8	-0.112321	-9.79087	-25.6486	39.7592
  74	1	3	-0.021957	-7.97926	-24.7072	41.9118
  75	1	3	-0.054241	-9.25803	-24.6971	42.5326
  76	1	3	-0.111709	-9.34805	-25.0083	43.8974
  77	1	3	-0.087244	-6.84081	-24.99	42.7197
  78	1	3	-0.118951	-6.9526	-25.2882	44.0904
  79	1	3	-0.044875	-8.23039	-25.3005	44.6515
  80	1	2	0.461883	-8.6654	-25.6518	46.0272
  81	1	1	-0.007433	-10.0506	-25.5573	46.0137
  82	1	2	0.491356	-10.5411	-25.1613	44.7747
  83	1	3	-0.019445	-10.8686	-25.9191	47.1217
  84	1	3	-0.186861	-11.6936	-27.0519	46.9952
  85	1	3	-0.068374	-12.4681	-27.5011	48.0717
  86	1	3	-0.009193	-10.8264	-25.2069	48.345
  87	1	3	0.220761	-11.5846	-25.6863	49.4437
  88	1	3	-0.402098	-12.406	-26.825	49.2968
  89	1	6	0.148422	-11.733	-27.5931	46.0529
  90	1	6	0.146291	-13.1034	-28.378	47.9564
  91	1	6	0.158981	-6.07862	-25.528	44.6929
  92	1	6	0.141813	-5.84934	-25.0057	42.2749
  93	1	6	0.143633	-10.1727	-24.4864	41.987
  94	1	5	-0.474465	-11.7034	-25.0282	44.4345
  95	1	5	-0.469737	-7.94041	-26.0014	46.9428
  96	1	7	-0.37887	-9.96143	-23.9442	48.4794
  97	1	9	0.115886	-10.3909	-23.2067	49.168
  98	1	9	0.123845	-9.84373	-23.4193	47.5241
  99	1	9	0.138418	-8.95663	-24.2033	48.8432
 100	1	6	0.21348	-13.001	-27.1807	50.1348
 101	1	1	0.486064	5.51247	-35.3485	27.4159
 102	1	2	0.047133	4.19471	-35.7953	27.5127
 103	1	3	0.001076	3.84143	-35.6404	28.9469
 104	1	2	0.034038	6.06316	-35.0089	28.6491
 105	1	3	0.050122	4.9538	-35.1781	29.6202
 106	1	5	-0.383076	3.42816	-36.0851	26.6096
 107	1	5	-0.380811	7.16258	-34.5343	28.8808
 108	1	3	-0.001248	2.59681	-35.7655	29.5753
 109	1	3	-0.036565	4.89124	-34.8356	30.9715
 110	1	3	-0.208842	3.64489	-34.9431	31.621
 111	1	3	-0.065319	2.47405	-35.3812	30.9389
 112	1	6	0.153391	1.75618	-36.1013	28.9774
 113	1	6	0.155343	5.7707	-34.4515	31.4842
 114	1	6	0.174191	3.58375	-34.635	32.6626
 115	1	7	-0.106637	1.11302	-35.3498	31.7012
 116	1	7	0.445763	-0.144417	-35.5406	30.7704
 117	1	8	-0.144255	-0.140777	-34.6675	29.7373
 118	1	8	-0.136881	-1.30172	-35.3163	31.4331
 119	1	8	-0.144092	-0.226772	-36.7829	30.2436
 120	1	7	0.367264	1.15283	-36.5239	32.7534
 121	1	8	-0.12104	1.55352	-37.6825	32.1819
 122	1	8	-0.122614	-0.0432854	-36.774	33.331
 123	1	8	-0.112321	2.02314	-36.2754	33.7576
 124	1	3	-0.021957	0.96459	-33.936	32.3371
 125	1	3	-0.054241	0.424091	-33.7211	33.6341
 126	1	3	-0.111709	0.320205	-32.407	34.1139
 127	1	3	-0.087244	1.34658	-32.7983	31.5696
 128	1	3	-0.118951	1.23906	-31.4882	32.0726
 129	1	3	-0.044875	0.721831	-31.3242	33.3585
 130	1	2	0.461883	0.507027	-30.0872	34.1524
 131	1	1	-0.007433	-0.0164034	-30.5128	35.3629
 132	1	2	0.491356	-0.172894	-31.892	35.4213
 133	1	3	-0.019445	-0.299219	-29.626	36.4358
 134	1	3	-0.186861	0.781983	-29.1626	37.2056
 135	1	3	-0.068374	0.576611	-28.2659	38.2589
 136	1	3	-0.009193	-1.6164	-29.1866	36.7114
 137	1	3	0.220761	-1.82443	-28.2901	37.7926
 138	1	3	-0.402098	-0.722625	-27.8353	38.5516
 139	1	6	0.148422	1.79278	-29.4918	36.978
 140	1	6	0.146291	1.42269	-27.9068	38.8427
 141	1	6	0.158981	1.54609	-30.6264	31.4834
 142	1	6	0.141813	1.7372	-32.926	30.5635
 143	1	6	0.143633	0.0881016	-34.5349	34.2692
 144	1	5	-0.474465	-0.587649	-32.5635	36.3493
 145	1	5	-0.469737	0.77779	-28.9502	33.8069
 146	1	7	-0.37887	-2.78	-29.6895	35.8457
 147	1	9	0.115886	-2.49684	-29.776	34.7894
 148	1	9	0.123845	-3.652	-29.0259	35.8666
 149	1	9	0.138418	-3.11054	-30.6809	36.1875
 150	1	6	0.21348	-0.877039	-27.1332	39.3681
 151	1	1	0.486064	0.265232	-23.3654	23.0064
 152	1	2	0.047133	0.944212	-23.5833	21.8061
 153	1	3	0.001076	1.45119	-24.9756	21.895
 154	1	2	0.034038	0.224968	-24.4978	23.8171
 155	1	3	0.050122	1.01312	-25.5204	23.0846
 156	1	5	-0.383076	1.16558	-22.7924	20.9044
 157	1	5	-0.380811	-0.263762	-24.618	24.9284
 158	1	3	-0.001248	2.28636	-25.6821	21.0212
 159	1	3	-0.036565	1.36097	-26.8196	23.4565
 160	1	3	-0.208842	2.19144	-27.5542	22.5858
 161	1	3	-0.065319	2.69376	-26.9965	21.3747
 162	1	6	0.153391	2.6033	-25.1966	20.1041
 163	1	6	0.155343	1.00367	-27.2385	24.3948
 164	1	6	0.174191	2.44901	-28.5731	22.8671
 165	1	7	-0.106637	3.61497	-27.8612	20.4644
 166	1	7	0.445763	2.6532	-28.7299	19.5695
 167	1	8	-0.144255	1.9237	-29.5934	20.3123
 168	1	8	-0.136881	3.31392	-29.4518	18.6366
 169	1	8	-0.144092	1.75129	-27.9677	18.91
 170	1	7	0.367264	4.5582	-27.0113	19.5259
 171	1	8	-0.12104	3.91679	-26.4294	18.4885
 172	1	8	-0.122614	5.53722	-27.7746	18.9896
 173	1	8	-0.112321	5.17707	-26.015	20.1987
 174	1	3	-0.021957	4.55107	-28.7039	21.3858
 175	1	3	-0.054241	4.65843	-30.1194	21.3049
 176	1	3	-0.111709	5.46436	-30.7926	22.2319
 177	1	3	-0.087244	5.305	-28.0321	22.3905
 178	1	3	-0.118951	6.12258	-28.7281	23.3032
 179	1	3	-0.044875	6.17559	-30.1203	23.2032
 180	1	2	0.461883	6.82797	-31.1226	24.0871
 181	1	1	-0.007433	6.41714	-32.359	23.6055
 182	1	2	0.491356	5.63466	-32.2515	22.4639
 183	1	3	-0.019445	6.61909	-33.5812	24.3045
 184	1	3	-0.186861	7.53823	-34.5142	23.7935
 185	1	3	-0.068374	7.77802	-35.7214	24.4634
 186	1	3	-0.009193	5.90837	-33.8613	25.4976
 187	1	3	0.220761	6.16399	-35.0788	26.1801
 188	1	3	-0.402098	7.09772	-36.0001	25.6574
 189	1	6	0.148422	8.07415	-34.3007	22.8719
 190	1	6	0.146291	8.49836	-36.432	24.0607
 191	1	6	0.158981	6.66649	-28.2077	24.0893
 192	1	6	0.141813	5.22979	-26.9529	22.493
 193	1	6	0.143633	4.10993	-30.7129	20.5807
 194	1	5	-0.474465	5.08309	-33.1441	21.8453
 195	1	5	-0.469737	7.4597	-30.8824	25.1017
 196	1	7	-0.37887	4.90353	-32.8388	26.0581
 197	1	9	0.115886	4.04812	-33.3089	26.5557
 198	1	9	0.123845	4.4607	-32.2126	25.2757
 199	1	9	0.138418	5.39406	-32.1705	26.7796
 200	1	6	0.21348	7.30224	-36.9286	26.1853
 201	1	1	0.486064	10.8659	-14.3363	22.1886
 202	1	2	0.047133	10.2052	-13.6787	23.2256
 203	1	3	0.001076	9.08243	-14.5781	23.603
 204	1	2	0.034038	10.2781	-15.5547	21.8585
 205	1	3	0.050122	9.13041	-15.6914	22.7883
 206	1	5	-0.383076	10.4762	-12.6039	23.7338
 207	1	5	-0.380811	10.6145	-16.3501	20.9971
 208	1	3	-0.001248	8.10504	-14.4334	24.5967
 209	1	3	-0.036565	8.20662	-16.7284	22.921
 210	1	3	-0.208842	7.21517	-16.6035	23.9147
 211	1	3	-0.065319	7.13373	-15.4594	24.7593
 212	1	6	0.153391	8.12879	-13.5437	25.2171
 213	1	6	0.155343	8.26622	-17.6053	22.2795
 214	1	6	0.174191	6.50433	-17.419	24.0314
 215	1	7	-0.106637	6.0262	-15.4164	25.8554
 216	1	7	0.445763	6.55158	-16.309	27.044
 217	1	8	-0.144255	5.77394	-16.2376	28.1474
 218	1	8	-0.136881	7.79935	-15.9506	27.4238
 219	1	8	-0.144092	6.63346	-17.6134	26.6953
 220	1	7	0.367264	5.72116	-13.9687	26.3987
 221	1	8	-0.12104	4.58982	-13.946	27.1394
 222	1	8	-0.122614	5.53336	-13.0843	25.3935
 223	1	8	-0.112321	6.70379	-13.4687	27.1807
 224	1	3	-0.021957	4.70283	-15.936	25.217
 225	1	3	-0.054241	3.8855	-16.9308	25.8192
 226	1	3	-0.111709	2.76323	-17.3971	25.1222
 227	1	3	-0.087244	4.307	-15.4164	23.9517
 228	1	3	-0.118951	3.17332	-15.8986	23.2686
 229	1	3	-0.044875	2.425	-16.9086	23.8775
 230	1	2	0.461883	1.28657	-17.707	23.3521
 231	1	1	-0.007433	1.03701	-18.67	24.3191
 232	1	2	0.491356	1.83767	-18.5156	25.444
 233	1	3	-0.019445	0.172736	-19.7784	24.1025
 234	1	3	-0.186861	-1.2145	-19.5876	24.227
 235	1	3	-0.068374	-2.10558	-20.6377	23.9722
 236	1	3	-0.009193	0.688038	-21.0394	23.7118
 237	1	3	0.220761	-0.219653	-22.0925	23.4236
 238	1	3	-0.402098	-1.60931	-21.8852	23.5694
 239	1	6	0.148422	-1.60594	-18.6155	24.5166
 240	1	6	0.146291	-3.17782	-20.4789	24.0781
 241	1	6	0.158981	2.90659	-15.5293	22.2802
 242	1	6	0.141813	4.91129	-14.6541	23.4668
 243	1	6	0.143633	4.11623	-17.3797	26.78
 244	1	5	-0.474465	1.90321	-19.2397	26.4221
 245	1	5	-0.469737	0.781203	-17.601	22.2482
 246	1	7	-0.37887	2.20735	-21.2439	23.5705
 247	1	9	0.115886	2.54759	-20.9242	22.5761
 248	1	9	0.123845	2.51558	-22.2864	23.7078
 249	1	9	0.138418	2.78222	-20.687	24.3167
 250	1	6	0.21348	-2.3048	-22.6985	23.3738
 251	1	1	0.486064	24.8175	-17.5686	18.1778
 252	1	2	0.047133	23.681	-16.7805	18.3521
 253	1	3	0.001076	23.5077	-16.6716	19.8241
 254	1	2	0.034038	25.3892	-17.9708	19.382
 255	1	3	0.050122	24.517	-17.3903	20.4313
 256	1	5	-0.383076	22.9799	-16.2653	17.4978
 257	1	5	-0.380811	26.4194	-18.5987	19.5602
 258	1	3	-0.001248	22.5645	-15.9565	20.5722
 259	1	3	-0.036565	24.6264	-17.4558	21.8201
 260	1	3	-0.208842	23.6826	-16.7498	22.593
 261	1	3	-0.065319	22.6402	-15.9859	21.9906
 262	1	6	0.153391	21.8079	-15.3711	20.055
 263	1	6	0.155343	25.4335	-18.0203	22.2826
 264	1	6	0.174191	23.8048	-16.7912	23.6697
 265	1	7	-0.106637	21.6555	-15.1065	22.8204
 266	1	7	0.445763	21.5774	-15.5048	24.3431
 267	1	8	-0.144255	20.5511	-14.8883	24.9726
 268	1	8	-0.136881	22.6937	-15.19	25.0389
 269	1	8	-0.144092	21.3656	-16.8321	24.4972
 270	1	7	0.367264	22.1961	-13.6301	22.7008
 271	1	8	-0.12104	23.5291	-13.5691	22.9232
 272	1	8	-0.122614	21.6268	-12.7713	23.5758
 273	1	8	-0.112321	21.9946	-13.1286	21.4613
 274	1	3	-0.021957	20.2118	-15.2838	22.2639
 275	1	3	-0.054241	19.2791	-14.2127	22.2161
 276	1	3	-0.111709	17.9694	-14.4699	21.793
 277	1	3	-0.087244	19.7632	-16.5817	21.8873
 278	1	3	-0.118951	18.4418	-16.8163	21.4533
 279	1	3	-0.044875	17.5597	-15.7318	21.4196
 280	1	2	0.461883	16.1145	-15.6688	21.0687
 281	1	1	-0.007433	15.735	-14.3476	21.2811
 282	1	2	0.491356	16.7988	-13.5579	21.6997
 283	1	3	-0.019445	14.415	-13.8502	21.0711
 284	1	3	-0.186861	14.222	-12.8888	20.0617
 285	1	3	-0.068374	12.9461	-12.384	19.7829
 286	1	3	-0.009193	13.3094	-14.3037	21.8351
 287	1	3	0.220761	12.0124	-13.8229	21.5198
 288	1	3	-0.402098	11.842	-12.8598	20.5016
 289	1	6	0.148422	15.0711	-12.5248	19.4882
 290	1	6	0.146291	12.8158	-11.6382	19.0002
 291	1	6	0.158981	18.1044	-17.8133	21.1768
 292	1	6	0.141813	20.4401	-17.4299	21.9534
 293	1	6	0.143633	19.5291	-13.2032	22.5252
 294	1	5	-0.474465	16.7987	-12.3653	21.9491
 295	1	5	-0.469737	15.4253	-16.6015	20.6933
 296	1	7	-0.37887	13.51	-15.305	22.9818
 297	1	9	0.115886	13.4027	-16.3367	22.6185
 298	1	9	0.123845	12.795	-15.1582	23.8005
 299	1	9	0.138418	14.5013	-15.216	23.4413
 300	1	6	0.21348	10.8489	-12.4825	20.2679
 301	1	1	0.486064	22.93	-31.1023	11.5167
 302	1	2	0.047133	23.9761	-30.5468	10.7774
 303	1	3	0.001076	23.9176	-29.0854	11.0563
 304	1	2	0.034038	22.2068	-30.1459	12.2271
 305	1	3	0.050122	22.8692	-28.8553	11.9238
 306	1	5	-0.383076	24.8139	-31.121	10.1022
 307	1	5	-0.380811	21.2761	-30.317	12.9977
 308	1	3	-0.001248	24.7395	-28.043	10.6049
 309	1	3	-0.036565	22.5886	-27.5759	12.4043
 310	1	3	-0.208842	23.406	-26.5149	11.9683
 311	1	3	-0.065319	24.4896	-26.7213	11.0688
 312	1	6	0.153391	25.5394	-28.28	9.91104
 313	1	6	0.155343	21.7623	-27.4141	13.0931
 314	1	6	0.174191	23.1799	-25.5135	12.3293
 315	1	7	-0.106637	25.2968	-25.4811	10.5862
 316	1	7	0.445763	26.7067	-25.8322	9.96537
 317	1	8	-0.144255	27.4136	-26.6737	10.7527
 318	1	8	-0.136881	27.4672	-24.7248	9.81018
 319	1	8	-0.144092	26.6308	-26.4213	8.7507
 320	1	7	0.367264	24.4189	-24.7957	9.46881
 321	1	8	-0.12104	24.059	-25.673	8.50415
 322	1	8	-0.122614	25.0523	-23.7743	8.84884
 323	1	8	-0.112321	23.2583	-24.3061	9.96115
 324	1	3	-0.021957	25.5661	-24.5699	11.8251
 325	1	3	-0.054241	25.2305	-23.1898	11.863
 326	1	3	-0.111709	25.5278	-22.4486	13.0135
 327	1	3	-0.087244	26.1929	-25.1335	12.9735
 328	1	3	-0.118951	26.5253	-24.3567	14.1038
 329	1	3	-0.044875	26.1832	-23.0015	14.0929
 330	1	2	0.461883	26.4458	-21.9202	15.0865
 331	1	1	-0.007433	25.8832	-20.7712	14.5407
 332	1	2	0.491356	25.2959	-21.0124	13.3057
 333	1	3	-0.019445	25.9276	-19.478	15.1422
 334	1	3	-0.186861	26.5981	-18.4522	14.4495
 335	1	3	-0.068374	26.6459	-17.1487	14.9544
 336	1	3	-0.009193	25.2927	-19.1947	16.3777
 337	1	3	0.220761	25.3778	-17.881	16.9079
 338	1	3	-0.402098	26.0368	-16.8646	16.182
 339	1	6	0.148422	27.0622	-18.6585	13.4915
 340	1	6	0.146291	27.1452	-16.3634	14.3881
 341	1	6	0.158981	27.0453	-24.7892	14.9558
 342	1	6	0.141813	26.4499	-26.1889	12.986
 343	1	6	0.143633	24.765	-22.674	11.0306
 344	1	5	-0.474465	24.6803	-20.229	12.6025
 345	1	5	-0.469737	27.0477	-22.0321	16.1418
 346	1	7	-0.37887	24.5127	-20.2874	17.1225
 347	1	9	0.115886	25.1687	-20.8125	17.8316
 348	1	9	0.123845	24.0959	-21.0391	16.4419
 349	1	9	0.138418	23.657	-19.8933	17.6833
 350	1	6	0.21348	26.0525	-15.8462	16.5635
 351	1	1	0.486064	12.3188	-34.3792	6.26018
 352	1	2	0.047133	12.8959	-35.4378	5.55501
 353	1	3	0.001076	13.7707	-36.1241	6.5308
 354	1	2	0.034038	12.6546	-34.3988	7.61625
 355	1	3	0.050122	13.6045	-35.5348	7.76387
 356	1	5	-0.383076	12.7514	-35.7499	4.38418
 357	1	5	-0.380811	12.3036	-33.6295	8.49575
 358	1	3	-0.001248	14.7013	-37.1409	6.31213
 359	1	3	-0.036565	14.3084	-35.9999	8.8778
 360	1	3	-0.208842	15.2308	-37.0536	8.68671
 361	1	3	-0.065319	15.4985	-37.5993	7.39634
 362	1	6	0.153391	14.7934	-37.516	5.30001
 363	1	6	0.155343	14.1593	-35.5419	9.85342
 364	1	6	0.174191	15.7881	-37.4097	9.55081
 365	1	7	-0.106637	16.6089	-38.6908	7.22339
 366	1	7	0.445763	16.9701	-38.9572	5.70937
 367	1	8	-0.144255	18.0337	-39.7766	5.55229
 368	1	8	-0.136881	17.2991	-37.8056	5.08099
 369	1	8	-0.144092	15.9605	-39.5351	5.01991
 370	1	7	0.367264	16.0193	-40.0086	7.85876
 371	1	8	-0.12104	16.0434	-39.9558	9.20943
 372	1	8	-0.122614	16.6745	-41.1354	7.50272
 373	1	8	-0.112321	14.7287	-40.1993	7.50043
 374	1	3	-0.021957	17.9386	-38.2512	7.92293
 375	1	3	-0.054241	18.1991	-36.8913	8.25465
 376	1	3	-0.111709	19.393	-36.5612	8.91297
 377	1	3	-0.087244	18.9577	-39.206	8.21071
 378	1	3	-0.118951	20.1787	-38.8419	8.8111
 379	1	3	-0.044875	20.3654	-37.5031	9.1587
 380	1	2	0.461883	21.4852	-36.8494	9.88186
 381	1	1	-0.007433	21.0777	-35.5366	10.1087
 382	1	2	0.491356	19.8322	-35.2797	9.53241
 383	1	3	-0.019445	21.7665	-34.6552	11.0061
 384	1	3	-0.186861	22.1029	-35.1741	12.2736
 385	1	3	-0.068374	22.7529	-34.3944	13.2329
 386	1	3	-0.009193	22.0926	-33.3049	10.6954
 387	1	3	0.220761	22.7079	-32.4997	11.6944
 388	1	3	-0.402098	23.043	-33.0587	12.9468
 389	1	6	0.148422	21.8634	-36.2047	12.5251
 390	1	6	0.146291	23.0046	-34.8204	14.203
 391	1	6	0.158981	20.9465	-39.5826	9.02707
 392	1	6	0.141813	18.8278	-40.2512	7.95368
 393	1	6	0.143633	17.4912	-36.0962	8.03963
 394	1	5	-0.474465	19.1444	-34.2781	9.63188
 395	1	5	-0.469737	22.494	-37.4102	10.276
 396	1	7	-0.37887	21.7664	-32.714	9.31748
 397	1	9	0.115886	21.7233	-33.4836	8.53836
 398	1	9	0.123845	22.5217	-31.9974	8.97415
 399	1	9	0.138418	20.7942	-32.2022	9.33013
 400	1	6	0.21348	23.5034	-32.4413	13.7147
 401	1	1	0.486064	16.7754	-33.1972	-5.10523
 402	1	2	0.047133	16.5623	-32.799	-3.78375
 403	1	3	0.001076	15.9183	-31.461	-3.87845
 404	1	2	0.034038	16.3225	-32.2515	-6.02717
 405	1	3	0.050122	15.7914	-31.136	-5.21174
 406	1	5	-0.383076	16.7998	-33.4148	-2.75802
 407	1	5	-0.380811	16.2815	-32.3298	-7.24392
 408	1	3	-0.001248	15.4347	-30.6143	-2.87394
 409	1	3	-0.036565	15.2087	-29.9356	-5.61802
 410	1	3	-0.208842	14.7266	-29.0624	-4.62281
 411	1	3	-0.065319	14.8038	-29.3926	-3.23855
 412	1	6	0.153391	15.5226	-30.922	-1.83479
 413	1	6	0.155343	15.1231	-29.697	-6.67619
 414	1	6	0.174191	14.277	-28.1352	-4.9618
 415	1	7	-0.106637	14.2081	-28.4866	-2.11651
 416	1	7	0.445763	13.2713	-27.3369	-2.64777
 417	1	8	-0.144255	12.303	-27.8162	-3.46193
 418	1	8	-0.136881	13.9406	-26.3811	-3.33136
 419	1	8	-0.144092	12.623	-26.7098	-1.64001
 420	1	7	0.367264	15.4337	-27.8432	-1.36116
 421	1	8	-0.12104	16.3335	-27.3306	-2.23105
 422	1	8	-0.122614	16.1	-28.7556	-0.618307
 423	1	8	-0.112321	15.0926	-26.8352	-0.527765
 424	1	3	-0.021957	13.312	-29.3775	-1.20941
 425	1	3	-0.054241	13.2244	-29.1955	0.196897
 426	1	3	-0.111709	12.3905	-30.0437	0.93719
 427	1	3	-0.087244	12.5065	-30.3867	-1.81111
 428	1	3	-0.118951	11.6923	-31.2429	-1.0456
 429	1	3	-0.044875	11.6641	-31.051	0.33703
 430	1	2	0.461883	10.9684	-31.8238	1.39672
 431	1	1	-0.007433	11.339	-31.2278	2.59323
 432	1	2	0.491356	12.1572	-30.1209	2.40487
 433	1	3	-0.019445	11.0153	-31.7972	3.85537
 434	1	3	-0.186861	9.72592	-31.5967	4.37668
 435	1	3	-0.068374	9.32177	-32.2515	5.54631
 436	1	3	-0.009193	11.9272	-32.6585	4.51186
 437	1	3	0.220761	11.4881	-33.3874	5.65243
 438	1	3	-0.402098	10.1927	-33.1561	6.16913
 439	1	6	0.148422	9.02671	-30.942	3.86242
 440	1	6	0.146291	8.32254	-32.0849	5.94591
 441	1	6	0.158981	11.1076	-32.0358	-1.50826
 442	1	6	0.141813	12.5171	-30.5236	-2.8896
 443	1	6	0.143633	13.7859	-28.4308	0.723987
 444	1	5	-0.474465	12.6707	-29.4117	3.25236
 445	1	5	-0.469737	10.2841	-32.8189	1.23157
 446	1	7	-0.37887	13.3543	-32.7991	3.95363
 447	1	9	0.115886	14.0671	-33.1956	4.68461
 448	1	9	0.123845	13.7744	-31.8338	3.65043
 449	1	9	0.138418	13.3687	-33.4647	3.0792
 450	1	6	0.21348	9.861	-33.6855	7.06051
 451	1	1	0.486064	28.8182	-38.1949	-6.75959
 452	1	2	0.047133	28.3097	-38.7683	-7.9214
 453	1	3	0.001076	27.4102	-37.7395	-8.4949
 454	1	2	0.034038	28.3359	-36.9078	-6.5293
 455	1	3	0.050122	27.4204	-36.6358	-7.66729
 456	1	5	-0.383076	28.526	-39.8782	-8.37873
 457	1	5	-0.380811	28.6095	-36.1493	-5.61396
 458	1	3	-0.001248	26.632	-37.7907	-9.65376
 459	1	3	-0.036565	26.6445	-35.5116	-7.95606
 460	1	3	-0.208842	25.8412	-35.5459	-9.11567
 461	1	3	-0.065319	25.8074	-36.6801	-9.97798
 462	1	6	0.153391	26.682	-38.6916	-10.255
 463	1	6	0.155343	26.6563	-34.6477	-7.2942
 464	1	6	0.174191	25.2204	-34.6795	-9.33347
 465	1	7	-0.106637	24.871	-36.6535	-11.2259
 466	1	7	0.445763	25.5043	-35.6154	-12.2334
 467	1	8	-0.144255	25.3168	-34.3405	-11.8236
 468	1	8	-0.136881	25.0065	-35.6922	-13.4878
 469	1	8	-0.144092	26.8409	-35.7899	-12.3481
 470	1	7	0.367264	24.7326	-38.0503	-11.9403
 471	1	8	-0.12104	24.3459	-39.0122	-11.0713
 472	1	8	-0.122614	25.8831	-38.4585	-12.5218
 473	1	8	-0.112321	23.7921	-38.0378	-12.9124
 474	1	3	-0.021957	23.4362	-36.2675	-10.7616
 475	1	3	-0.054241	22.9827	-36.6539	-9.47107
 476	1	3	-0.111709	21.6866	-36.3089	-9.07121
 477	1	3	-0.087244	22.523	-35.5913	-11.6206
 478	1	3	-0.118951	21.2124	-35.2772	-11.2078
 479	1	3	-0.044875	20.8238	-35.6459	-9.91728
 480	1	2	0.461883	19.5429	-35.4255	-9.19854
 481	1	1	-0.007433	19.7391	-35.9406	-7.92339
 482	1	2	0.491356	20.9928	-36.5169	-7.77108
 483	1	3	-0.019445	18.7675	-35.8303	-6.89033
 484	1	3	-0.186861	18.0946	-36.9886	-6.46496
 485	1	3	-0.068374	17.0483	-36.9035	-5.53833
 486	1	3	-0.009193	18.4149	-34.5652	-6.36136
 487	1	3	0.220761	17.2971	-34.4689	-5.4916
 488	1	3	-0.402098	16.6362	-35.6465	-5.07438
 489	1	6	0.148422	18.3772	-37.9603	-6.86295
 490	1	6	0.146291	16.5337	-37.8069	-5.21381
 491	1	6	0.158981	20.519	-34.7588	-11.8677
 492	1	6	0.141813	22.8088	-35.3113	-12.6283
 493	1	6	0.143633	23.6171	-37.2033	-8.77956
 494	1	5	-0.474465	21.4697	-37.0317	-6.7749
 495	1	5	-0.469737	18.5513	-34.8757	-9.64611
 496	1	7	-0.37887	19.2364	-33.3259	-6.74778
 497	1	9	0.115886	20.2991	-33.5649	-6.87669
 498	1	9	0.123845	19.2002	-32.5386	-5.98551
 499	1	9	0.138418	18.8723	-32.8951	-7.69144
 500	1	6	0.21348	15.7942	-35.5829	-4.38795
 501	1	1	0.486064	43.8239	-36.119	-8.30389
 502	1	2	0.047133	43.6816	-37.1676	-7.39353
 503	1	3	0.001076	42.2698	-37.1011	-6.936
 504	1	2	0.034038	42.639	-35.4008	-8.47937
 505	1	3	0.050122	41.6498	-36.0602	-7.59379
 506	1	5	-0.383076	44.5283	-37.9535	-7.00221
 507	1	5	-0.380811	42.4483	-34.3922	-9.13813
 508	1	3	-0.001248	41.605	-37.8579	-5.96447
 509	1	3	-0.036565	40.3172	-35.7318	-7.34114
 510	1	3	-0.208842	39.6226	-36.4931	-6.37951
 511	1	3	-0.065319	40.2469	-37.557	-5.66923
 512	1	6	0.153391	42.163	-38.6337	-5.45148
 513	1	6	0.155343	39.8484	-34.8975	-7.85859
 514	1	6	0.174191	38.5894	-36.229	-6.16363
 515	1	7	-0.106637	39.44	-38.2814	-4.55083
 516	1	7	0.445763	39.3997	-37.2871	-3.32628
 517	1	8	-0.144255	38.9436	-37.854	-2.18703
 518	1	8	-0.136881	38.6143	-36.2141	-3.57429
 519	1	8	-0.144092	40.6287	-36.7966	-3.04482
 520	1	7	0.367264	40.0826	-39.642	-4.0847
 521	1	8	-0.12104	41.2288	-39.4789	-3.38677
 522	1	8	-0.122614	40.3647	-40.4453	-5.1355
 523	1	8	-0.112321	39.2435	-40.346	-3.29122
 524	1	3	-0.021957	38.0326	-38.6383	-5.111
 525	1	3	-0.054241	36.8431	-38.4956	-4.34749
 526	1	3	-0.111709	35.6226	-38.8745	-4.91936
 527	1	3	-0.087244	37.9304	-39.1865	-6.42114
 528	1	3	-0.118951	36.6916	-39.5672	-6.97512
 529	1	3	-0.044875	35.5459	-39.3955	-6.1938
 530	1	2	0.461883	34.1212	-39.7024	-6.48915
 531	1	1	-0.007433	33.4169	-39.3205	-5.35388
 532	1	2	0.491356	34.2474	-38.8274	-4.35692
 533	1	3	-0.019445	32.0042	-39.4264	-5.22477
 534	1	3	-0.186861	31.4888	-40.342	-4.2889
 535	1	3	-0.068374	30.1078	-40.5232	-4.14779
 536	1	3	-0.009193	31.1247	-38.6562	-6.02542
 537	1	3	0.220761	29.7286	-38.8689	-5.90261
 538	1	3	-0.402098	29.23	-39.7962	-4.96182
 539	1	6	0.148422	32.1654	-40.9223	-3.66636
 540	1	6	0.146291	29.7239	-41.2395	-3.42291
 541	1	6	0.158981	36.623	-39.9904	-7.97546
 542	1	6	0.141813	38.8265	-39.3295	-7.01985
 543	1	6	0.143633	36.8386	-38.1113	-3.33253
 544	1	5	-0.474465	33.9388	-38.432	-3.24653
 545	1	5	-0.469737	33.686	-40.1769	-7.52442
 546	1	7	-0.37887	31.6731	-37.6275	-7.02746
 547	1	9	0.115886	31.754	-38.0673	-8.0311
 548	1	9	0.123845	32.6663	-37.2589	-6.74782
 549	1	9	0.138418	31.0445	-36.7313	-7.09618
 550	1	6	0.21348	28.1582	-39.9608	-4.87339
 551	1	1	0.486064	39.9685	-31.0927	-17.7261
 552	1	2	0.047133	41.1138	-30.298	-17.6913
 553	1	3	0.001076	42.251	-31.252	-17.7434
 554	1	2	0.034038	40.2576	-32.4519	-17.8393
 555	1	3	0.050122	41.7384	-32.5309	-17.8174
 556	1	5	-0.383076	41.192	-29.0834	-17.6147
 557	1	5	-0.380811	39.4817	-33.3911	-17.9116
 558	1	3	-0.001248	43.6293	-31.0093	-17.7012
 559	1	3	-0.036565	42.5743	-33.6472	-17.8306
 560	1	3	-0.208842	43.9644	-33.4277	-17.7637
 561	1	3	-0.065319	44.5197	-32.1178	-17.7011
 562	1	6	0.153391	43.9669	-29.9792	-17.6535
 563	1	6	0.155343	42.1549	-34.65	-17.8757
 564	1	6	0.174191	44.6183	-34.2969	-17.7545
 565	1	7	-0.106637	46.069	-31.974	-17.6234
 566	1	7	0.445763	46.5638	-30.5231	-17.2477
 567	1	8	-0.144255	45.9602	-30.0503	-16.1339
 568	1	8	-0.136881	46.3425	-29.6174	-18.2268
 569	1	8	-0.144092	47.8902	-30.5011	-16.9846
 570	1	7	0.367264	46.6319	-32.3429	-19.05
 571	1	8	-0.12104	47.9521	-32.0864	-19.1882
 572	1	8	-0.122614	46.4585	-33.6505	-19.3478
 573	1	8	-0.112321	45.9984	-31.6527	-20.0254
 574	1	3	-0.021957	46.5546	-32.9153	-16.4842
 575	1	3	-0.054241	45.875	-32.8609	-15.2416
 576	1	3	-0.111709	46.2964	-33.6854	-14.1965
 577	1	3	-0.087244	47.6567	-33.8108	-16.6095
 578	1	3	-0.118951	48.0565	-34.6453	-15.5418
 579	1	3	-0.044875	47.3495	-34.5621	-14.337
 580	1	2	0.461883	47.5386	-35.2697	-13.0385
 581	1	1	-0.007433	46.5688	-34.7501	-12.1885
 582	1	2	0.491356	45.7864	-33.7846	-12.8092
 583	1	3	-0.019445	46.4308	-35.0867	-10.8118
 584	1	3	-0.186861	47.4954	-34.781	-9.9454
 585	1	3	-0.068374	47.3713	-34.9736	-8.5653
 586	1	3	-0.009193	45.224	-35.6227	-10.2963
 587	1	3	0.220761	45.0704	-35.7417	-8.88923
 588	1	3	-0.402098	46.156	-35.4293	-8.03978
 589	1	6	0.148422	48.4254	-34.3824	-10.3443
 590	1	6	0.146291	48.2044	-34.7378	-7.9048
 591	1	6	0.158981	48.8993	-35.3267	-15.6418
 592	1	6	0.141813	48.225	-33.8734	-17.5311
 593	1	6	0.143633	45.0371	-32.1864	-15.0791
 594	1	5	-0.474465	44.8902	-33.1121	-12.3305
 595	1	5	-0.469737	48.3891	-36.1061	-12.7879
 596	1	7	-0.37887	44.1109	-36.0626	-11.2588
 597	1	9	0.115886	43.4998	-36.876	-10.8508
 598	1	9	0.123845	44.5152	-36.4394	-12.2061
 599	1	9	0.138418	43.4396	-35.2232	-11.4908
 600	1	6	0.21348	46.0547	-35.5471	-6.96233
 601	1	1	0.486064	28.252	-27.5306	-7.64464
 602	1	2	0.047133	28.3778	-28.912	-7.80927
 603	1	3	0.001076	29.1048	-29.0875	-9.09354
 604	1	2	0.034038	28.7745	-26.8132	-8.71964
 605	1	3	0.050122	29.3199	-27.8396	-9.64097
 606	1	5	-0.383076	27.9665	-29.8037	-7.08528
 607	1	5	-0.380811	28.7825	-25.6059	-8.89585
 608	1	3	-0.001248	29.5526	-30.2559	-9.72309
 609	1	3	-0.036565	29.9505	-27.6884	-10.8763
 610	1	3	-0.208842	30.397	-28.8518	-11.5339
 611	1	3	-0.065319	30.2469	-30.1464	-10.959
 612	1	6	0.153391	29.3609	-31.2078	-9.23954
 613	1	6	0.155343	30.0895	-26.6994	-11.3075
 614	1	6	0.174191	30.8812	-28.7366	-12.5018
 615	1	7	-0.106637	30.812	-31.3813	-11.7239
 616	1	7	0.445763	31.0957	-32.6246	-10.7969
 617	1	8	-0.144255	31.7896	-32.2721	-9.69111
 618	1	8	-0.136881	31.839	-33.5603	-11.4306
 619	1	8	-0.144092	29.9735	-33.2479	-10.3724
 620	1	7	0.367264	29.7241	-31.7703	-12.7939
 621	1	8	-0.12104	29.9814	-32.9455	-13.4107
 622	1	8	-0.122614	29.6095	-30.8255	-13.7548
 623	1	8	-0.112321	28.4964	-31.8883	-12.238
 624	1	3	-0.021957	32.1859	-30.9798	-12.3426
 625	1	3	-0.054241	32.5543	-31.2854	-13.6808
 626	1	3	-0.111709	33.7944	-30.8417	-14.1594
 627	1	3	-0.087244	33.1221	-30.2745	-11.5328
 628	1	3	-0.118951	34.3607	-29.8313	-12.037
 629	1	3	-0.044875	34.666	-30.1237	-13.3684
 630	1	2	0.461883	35.8573	-29.7676	-14.184
 631	1	1	-0.007433	35.629	-30.322	-15.4379
 632	1	2	0.491356	34.4094	-30.9844	-15.5059
 633	1	3	-0.019445	36.5138	-30.1903	-16.5472
 634	1	3	-0.186861	36.0552	-29.4817	-17.6729
 635	1	3	-0.068374	36.8741	-29.3046	-18.7932
 636	1	3	-0.009193	37.8159	-30.7525	-16.5411
 637	1	3	0.220761	38.6459	-30.5675	-17.6804
 638	1	3	-0.402098	38.1664	-29.8421	-18.7936
 639	1	6	0.148422	35.0514	-29.0638	-17.6803
 640	1	6	0.146291	36.507	-28.7485	-19.6544
 641	1	6	0.158981	35.058	-29.2694	-11.4182
 642	1	6	0.141813	32.8766	-30.041	-10.4997