pySIMM System Object

2452 atoms
2696 bonds
4704 angles
7248 dihedrals
784 impropers

9 atom types
11 bond types
18 angle types
7 dihedral types
4 improper types

-219.477265 219.477265 xlo xhi
-219.477265 219.477265 ylo yhi
-219.477265 219.477265 zlo zhi

Masses

   1	14.01	# n
   2	12.01	# c
   3	12.01	# ca
   4	1.008	# hn
   5	16.0	# o
   6	1.008	# ha
   7	12.01	# c3
   8	19.0	# f
   9	1.008	# hc

Pair Coeffs

   1	0.17	3.249998523775958	# n
   2	0.086	3.3996695084235347	# c
   3	0.086	3.3996695084235347	# ca
   4	0.0157	1.069078461768407	# hn
   5	0.21	2.959921901149463	# o
   6	0.015	2.59964245953351	# ha
   7	0.1094	3.3996695084235347	# c3
   8	0.061	3.1181455134911875	# f
   9	0.0157	2.649532787749369	# hc

Bond Coeffs

   1	427.6	1.3789	# c,n
   2	461.1	1.3984	# ca,ca
   3	345.9	1.4906	# c,ca
   4	345.8	1.086	# ca,ha
   5	637.7	1.2183	# c,o
   6	321.0	1.5156	# c3,ca
   7	300.9	1.5375	# c3,c3
   8	356.9	1.3497	# c3,f
   9	384.2	1.4121	# ca,n
  10	330.6	1.0969	# c3,hc
  11	403.2	1.0129	# hn,n

Angle Coeffs

   1	48.18	119.88	# ca,ca,ha
   2	63.15	112.07	# c3,c3,ca
   3	70.89	107.36	# f,c3,f
   4	67.87	120.19	# ca,ca,n
   5	68.72	122.6	# ca,c,o
   6	63.56	112.24	# ca,c3,ca
   7	63.82	123.71	# c,n,ca
   8	74.22	123.05	# n,c,o
   9	48.33	117.55	# c,n,hn
  10	67.68	115.25	# ca,c,n
  11	64.28	120.33	# c,ca,ca
  12	66.11	109.24	# c3,c3,f
  13	46.8	110.47	# ca,c3,hc
  14	39.4	107.58	# hc,c3,hc
  15	66.62	120.02	# ca,ca,ca
  16	63.53	120.77	# c3,ca,ca
  17	62.86	111.51	# c3,c3,c3
  18	63.74	127.08	# c,n,c

Dihedral Coeffs

   1	1	2.5	2	180	# X,c,n,X
   2	1	0.45	2	180	# X,ca,n,X
   3	2	2.5	2	180	2.0	1	0	# hn,n,c,o
   4	1	3.625	2	180	# X,ca,ca,X
   5	1	1.0	2	180	# X,c,ca,X
   6	1	0.15555555555555556	3	0	# X,c3,c3,X
   7	1	0.0	2	0	# X,c3,ca,X

Improper Coeffs

   1	1.1	-1	2	# ca,ca,ca,c3
   2	10.5	-1	2	# c,X,X,o
   3	1.1	-1	2	# ca,X,X,ha
   4	1.1	-1	2	# n,X,X,hn

Atoms

   1	1	1	0.486064	-62.1135	-68.8488	-23.5657
   2	1	2	0.047133	-61.7438	-67.5741	-23.1436
   3	1	3	0.001076	-63.0219	-66.8808	-22.8486
   4	1	2	0.034038	-63.4933	-69.0361	-23.5914
   5	1	3	0.050122	-64.0608	-67.7488	-23.1169
   6	1	5	-0.383076	-60.6214	-67.1244	-22.9848
   7	1	5	-0.380811	-64.1168	-70.0419	-23.887
   8	1	3	-0.001248	-63.2442	-65.5879	-22.3646
   9	1	3	-0.036565	-65.3896	-67.3681	-22.9223
  10	1	3	-0.208842	-65.6375	-66.0671	-22.4379
  11	1	3	-0.065319	-64.5801	-65.1613	-22.138
  12	1	6	0.153391	-62.3828	-64.9542	-22.1829
  13	1	6	0.155343	-66.1995	-68.0601	-23.1437
  14	1	6	0.174191	-66.6722	-65.76	-22.2992
  15	1	7	-0.106637	-64.9315	-63.7288	-21.6405
  16	1	7	0.445763	-63.7387	-62.9932	-20.9187
  17	1	8	-0.144255	-63.1683	-63.7769	-19.9756
  18	1	8	-0.136881	-64.1548	-61.8764	-20.279
  19	1	8	-0.144092	-62.7549	-62.6096	-21.7621
  20	1	7	0.367264	-65.3385	-62.9126	-22.9251
  21	1	8	-0.12104	-64.4245	-63.0493	-23.9128
  22	1	8	-0.122614	-65.4631	-61.5856	-22.6992
  23	1	8	-0.112321	-66.5128	-63.3432	-23.4397
  24	1	3	-0.021957	-66.0664	-63.8397	-20.5819
  25	1	3	-0.054241	-67.1806	-62.9603	-20.5559
  26	1	3	-0.111709	-68.1381	-63.1138	-19.5475
  27	1	3	-0.087244	-65.9633	-64.8269	-19.5607
  28	1	3	-0.118951	-66.9374	-64.9604	-18.5509
  29	1	3	-0.044875	-68.024	-64.0823	-18.5725
  30	1	2	0.461883	-69.1911	-63.9645	-17.6575
  31	1	1	-0.007433	-69.945	-62.9123	-18.1567
  32	1	2	0.491356	-69.3829	-62.345	-19.2918
  33	1	3	-0.019445	-71.1633	-62.4703	-17.5764
  34	1	3	-0.186861	-72.3199	-63.2564	-17.7377
  35	1	3	-0.068374	-73.5451	-62.8451	-17.1928
  36	1	3	-0.009193	-71.2276	-61.2603	-16.8497
  37	1	3	0.220761	-72.464	-60.8528	-16.3097
  38	1	3	-0.402098	-73.6154	-61.6384	-16.4808
  39	1	6	0.148422	-72.2684	-64.1926	-18.2881
  40	1	6	0.146291	-74.434	-63.4605	-17.3241
  41	1	6	0.158981	-66.849	-65.7157	-17.7723
  42	1	6	0.141813	-65.1103	-65.5005	-19.5438
  43	1	6	0.143633	-67.3214	-62.1654	-21.2811
  44	1	5	-0.474465	-69.8064	-61.4199	-19.9628
  45	1	5	-0.469737	-69.4208	-64.6607	-16.6835
  46	1	7	-0.37887	-69.9825	-60.3993	-16.6379
  47	1	9	0.115886	-69.6361	-59.9669	-17.5857
  48	1	9	0.123845	-69.1612	-60.9848	-16.2058
  49	1	9	0.138418	-70.1797	-59.5643	-15.9539
  50	1	6	0.21348	-74.5582	-61.3068	-16.0556
  51	1	1	0.486064	-55.0573	-80.9545	-15.725
  52	1	2	0.047133	-55.4496	-79.7561	-15.1307
  53	1	3	0.001076	-55.6773	-78.8222	-16.2559
  54	1	2	0.034038	-55.0923	-80.905	-17.1178
  55	1	3	0.050122	-55.4776	-79.5042	-17.4382
  56	1	5	-0.383076	-55.5117	-79.48	-13.9446
  57	1	5	-0.380811	-54.7747	-81.7723	-17.9146
  58	1	3	-0.001248	-55.9303	-77.4484	-16.2224
  59	1	3	-0.036565	-55.5501	-78.8453	-18.6677
  60	1	3	-0.208842	-55.8175	-77.4591	-18.6597
  61	1	3	-0.065319	-56.0032	-76.735	-17.4471
  62	1	6	0.153391	-56.0188	-76.9698	-15.2529
  63	1	6	0.155343	-55.3656	-79.3855	-19.5939
  64	1	6	0.174191	-55.8412	-76.935	-19.613
  65	1	7	-0.106637	-56.1732	-75.1885	-17.5056
  66	1	7	0.445763	-56.7697	-74.5604	-16.1878
  67	1	8	-0.144255	-57.1406	-73.2726	-16.3711
  68	1	8	-0.136881	-55.9031	-74.5666	-15.1503
  69	1	8	-0.144092	-57.8789	-75.2181	-15.7804
  70	1	7	0.367264	-54.7295	-74.6006	-17.7434
  71	1	8	-0.12104	-53.8301	-75.1247	-16.8792
  72	1	8	-0.122614	-54.665	-73.2583	-17.5957
  73	1	8	-0.112321	-54.2693	-74.888	-18.9823
  74	1	3	-0.021957	-57.1835	-74.8502	-18.638
  75	1	3	-0.054241	-56.9867	-73.7777	-19.5476
  76	1	3	-0.111709	-57.9731	-73.5153	-20.5052
  77	1	3	-0.087244	-58.3897	-75.6012	-18.7304
  78	1	3	-0.118951	-59.3735	-75.3145	-19.6975
  79	1	3	-0.044875	-59.134	-74.2569	-20.5787
  80	1	2	0.461883	-59.9864	-73.6862	-21.6552
  81	1	1	-0.007433	-59.2673	-72.614	-22.1633
  82	1	2	0.491356	-58.0413	-72.4477	-21.5364
  83	1	3	-0.019445	-59.7653	-71.734	-23.1598
  84	1	3	-0.186861	-59.3262	-71.8946	-24.4854
  85	1	3	-0.068374	-59.8043	-71.0565	-25.5006
  86	1	3	-0.009193	-60.6877	-70.7148	-22.8288
  87	1	3	0.220761	-61.1757	-69.8738	-23.8605
  88	1	3	-0.402098	-60.7301	-70.0511	-25.1892
  89	1	6	0.148422	-58.61	-72.675	-24.7307
  90	1	6	0.146291	-59.4587	-71.1908	-26.5246
  91	1	6	0.158981	-60.3001	-75.8828	-19.7507
  92	1	6	0.141813	-58.5777	-76.412	-18.031
  93	1	6	0.143633	-56.1106	-73.1378	-19.5212
  94	1	5	-0.474465	-57.2039	-71.5864	-21.7384
  95	1	5	-0.469737	-61.1053	-74.0569	-21.9659
  96	1	7	-0.37887	-61.1475	-70.5578	-21.3704
  97	1	9	0.115886	-61.6235	-69.5949	-21.1555
  98	1	9	0.123845	-60.3011	-70.628	-20.6754
  99	1	9	0.138418	-61.8666	-71.3458	-21.1065
 100	1	6	0.21348	-61.1036	-69.405	-25.9806
 101	1	1	0.486064	-44.1145	-78.9473	-5.45478
 102	1	2	0.047133	-43.8019	-79.0574	-6.80795
 103	1	3	0.001076	-44.662	-80.1543	-7.31638
 104	1	2	0.034038	-45.0665	-79.8762	-5.04024
 105	1	3	0.050122	-45.412	-80.6415	-6.26604
 106	1	5	-0.383076	-43.0247	-78.3846	-7.46356
 107	1	5	-0.380811	-45.5613	-80.0113	-3.93357
 108	1	3	-0.001248	-44.8036	-80.6446	-8.61876
 109	1	3	-0.036565	-46.3439	-81.6626	-6.45899
 110	1	3	-0.208842	-46.5104	-82.1656	-7.76641
 111	1	3	-0.065319	-45.7648	-81.6621	-8.87159
 112	1	6	0.153391	-44.1879	-80.2012	-9.39389
 113	1	6	0.155343	-46.9348	-82.0348	-5.62466
 114	1	6	0.174191	-47.2597	-82.938	-7.92447
 115	1	7	-0.106637	-46.069	-82.218	-10.3004
 116	1	7	0.445763	-45.3634	-81.4099	-11.4541
 117	1	8	-0.144255	-45.6671	-80.0935	-11.3884
 118	1	8	-0.136881	-45.7579	-81.8126	-12.6834
 119	1	8	-0.144092	-44.0164	-81.5226	-11.4216
 120	1	7	0.367264	-45.5555	-83.7098	-10.3243
 121	1	8	-0.12104	-44.3255	-83.8148	-9.77204
 122	1	8	-0.122614	-45.4585	-84.2394	-11.5637
 123	1	8	-0.112321	-46.3671	-84.5312	-9.62126
 124	1	3	-0.021957	-47.5988	-82.0963	-10.5638
 125	1	3	-0.054241	-48.2804	-82.9616	-11.4626
 126	1	3	-0.111709	-49.6467	-82.7547	-11.6988
 127	1	3	-0.087244	-48.3331	-81.0278	-9.97187
 128	1	3	-0.118951	-49.7101	-80.8539	-10.2018
 129	1	3	-0.044875	-50.343	-81.7435	-11.0707
 130	1	2	0.461883	-51.7369	-81.7454	-11.5759
 131	1	1	-0.007433	-51.7783	-82.7386	-12.5457
 132	1	2	0.491356	-50.5743	-83.4236	-12.6537
 133	1	3	-0.019445	-52.9031	-82.9321	-13.3958
 134	1	3	-0.186861	-53.6585	-84.1124	-13.2813
 135	1	3	-0.068374	-54.8378	-84.2792	-14.021
 136	1	3	-0.009193	-53.3118	-81.912	-14.2882
 137	1	3	0.220761	-54.5461	-82.0489	-14.9722
 138	1	3	-0.402098	-55.293	-83.2408	-14.8472
 139	1	6	0.148422	-53.3352	-84.9016	-12.6067
 140	1	6	0.146291	-55.4141	-85.1981	-13.9231
 141	1	6	0.158981	-50.2618	-80.0306	-9.75171
 142	1	6	0.141813	-47.8354	-80.3028	-9.33375
 143	1	6	0.143633	-47.7718	-83.752	-12.0056
 144	1	5	-0.474465	-50.2908	-84.3282	-13.419
 145	1	5	-0.469737	-52.6205	-80.9749	-11.242
 146	1	7	-0.37887	-52.4337	-80.6652	-14.4905
 147	1	9	0.115886	-51.368	-80.8813	-14.3495
 148	1	9	0.123845	-52.7113	-79.8731	-13.7805
 149	1	9	0.138418	-52.513	-80.2526	-15.5035
 150	1	6	0.21348	-56.2302	-83.3562	-15.3874
 151	1	1	0.486064	-48.2411	-63.7684	-3.65262
 152	1	2	0.047133	-46.8858	-63.9239	-3.94436
 153	1	3	0.001076	-46.7011	-65.3779	-4.18112
 154	1	2	0.034038	-48.936	-64.9779	-3.6697
 155	1	3	0.050122	-47.9193	-66.0036	-4.01977
 156	1	5	-0.383076	-46.0268	-63.0639	-4.04123
 157	1	5	-0.380811	-50.1263	-65.1715	-3.48498
 158	1	3	-0.001248	-45.5543	-66.0811	-4.56572
 159	1	3	-0.036565	-48.0598	-67.3761	-4.23821
 160	1	3	-0.208842	-46.9164	-68.1049	-4.63024
 161	1	3	-0.065319	-45.6457	-67.4822	-4.79021
 162	1	6	0.153391	-44.6377	-65.5192	-4.70673
 163	1	6	0.155343	-49.0319	-67.8531	-4.13202
 164	1	6	0.174191	-47.0289	-69.168	-4.83387
 165	1	7	-0.106637	-44.4413	-68.3299	-5.30456
 166	1	7	0.445763	-44.6257	-68.4361	-6.86654
 167	1	8	-0.144255	-45.6604	-69.2462	-7.18714
 168	1	8	-0.136881	-43.534	-68.9068	-7.51009
 169	1	8	-0.144092	-44.9015	-67.2323	-7.41918
 170	1	7	0.367264	-43.0403	-67.6814	-4.99063
 171	1	8	-0.12104	-42.7742	-66.5873	-5.7389
 172	1	8	-0.122614	-42.0252	-68.5483	-5.20932
 173	1	8	-0.112321	-42.9497	-67.3128	-3.69263
 174	1	3	-0.021957	-44.4369	-69.7151	-4.58947
 175	1	3	-0.054241	-44.068	-70.9147	-5.25598
 176	1	3	-0.111709	-44.0285	-72.1116	-4.53085
 177	1	3	-0.087244	-44.7227	-69.7846	-3.19606
 178	1	3	-0.118951	-44.6853	-71.0034	-2.48646
 179	1	3	-0.044875	-44.3353	-72.1613	-3.18829
 180	1	2	0.461883	-44.1599	-73.5643	-2.72133
 181	1	1	-0.007433	-43.74	-74.2809	-3.83628
 182	1	2	0.491356	-43.6319	-73.4763	-4.96514
 183	1	3	-0.019445	-43.3747	-75.6596	-3.80764
 184	1	3	-0.186861	-42.2989	-76.0392	-2.98297
 185	1	3	-0.068374	-41.8481	-77.3642	-2.94961
 186	1	3	-0.009193	-44.0284	-76.6326	-4.60621
 187	1	3	0.220761	-43.5419	-77.9656	-4.59987
 188	1	3	-0.402098	-42.461	-78.3232	-3.76549
 189	1	6	0.148422	-41.8035	-75.2977	-2.36054
 190	1	6	0.146291	-41.0147	-77.6392	-2.30479
 191	1	6	0.158981	-44.8985	-71.0453	-1.42007
 192	1	6	0.141813	-44.9665	-68.8775	-2.64848
 193	1	6	0.143633	-43.7894	-70.9422	-6.30406
 194	1	5	-0.474465	-43.2607	-73.789	-6.08273
 195	1	5	-0.469737	-44.3225	-73.9695	-1.58321
 196	1	7	-0.37887	-45.236	-76.2519	-5.47552
 197	1	9	0.115886	-45.9729	-77.061	-5.54848
 198	1	9	0.123845	-44.9127	-75.9934	-6.49393
 199	1	9	0.138418	-45.7833	-75.3917	-5.07328
 200	1	6	0.21348	-42.0959	-79.3479	-3.7539
 201	1	1	0.486064	-44.6789	-54.091	7.75839
 202	1	2	0.047133	-45.561	-53.3987	6.92449
 203	1	3	0.001076	-46.3282	-54.4498	6.20313
 204	1	2	0.034038	-44.8215	-55.4753	7.6508
 205	1	3	0.050122	-45.8805	-55.6816	6.63182
 206	1	5	-0.383076	-45.646	-52.1959	6.74238
 207	1	5	-0.380811	-44.1793	-56.3504	8.20829
 208	1	3	-0.001248	-47.3149	-54.3282	5.21549
 209	1	3	-0.036565	-46.3827	-56.8654	6.08816
 210	1	3	-0.208842	-47.3677	-56.7658	5.08404
 211	1	3	-0.065319	-47.8519	-55.5079	4.62706
 212	1	6	0.153391	-47.6297	-53.3304	4.92909
 213	1	6	0.155343	-46.0118	-57.8292	6.43044
 214	1	6	0.174191	-47.7608	-57.6863	4.65701
 215	1	7	-0.106637	-48.9683	-55.4908	3.53751
 216	1	7	0.445763	-50.3033	-55.9118	4.26486
 217	1	8	-0.144255	-51.4109	-55.7154	3.51526
 218	1	8	-0.136881	-50.4855	-55.2141	5.40936
 219	1	8	-0.144092	-50.2946	-57.2175	4.61692
 220	1	7	0.367264	-49.1784	-54.0796	2.86736
 221	1	8	-0.12104	-49.9857	-54.1536	1.78457
 222	1	8	-0.122614	-48.0121	-53.5561	2.42594
 223	1	8	-0.112321	-49.7311	-53.1715	3.70267
 224	1	3	-0.021957	-48.5527	-56.4548	2.38564
 225	1	3	-0.054241	-49.4693	-57.3273	1.73688
 226	1	3	-0.111709	-49.0182	-58.1123	0.666069
 227	1	3	-0.087244	-47.2135	-56.4104	1.9045
 228	1	3	-0.118951	-46.7832	-57.2016	0.820262
 229	1	3	-0.044875	-47.7164	-58.0482	0.216153
 230	1	2	0.461883	-47.578	-58.9537	-0.955795
 231	1	1	-0.007433	-48.8311	-59.5268	-1.13537
 232	1	2	0.491356	-49.7547	-59.0723	-0.201162
 233	1	3	-0.019445	-49.1507	-60.4171	-2.20229
 234	1	3	-0.186861	-50.0595	-59.9719	-3.17976
 235	1	3	-0.068374	-50.3858	-60.7769	-4.27686
 236	1	3	-0.009193	-48.5633	-61.7035	-2.31375
 237	1	3	0.220761	-48.8644	-62.5021	-3.44928
 238	1	3	-0.402098	-49.782	-62.0327	-4.41538
 239	1	6	0.148422	-50.5209	-58.9913	-3.08751
 240	1	6	0.146291	-51.0957	-60.4203	-5.02165
 241	1	6	0.158981	-45.7623	-57.1465	0.447184
 242	1	6	0.141813	-46.4955	-55.7355	2.3636
 243	1	6	0.143633	-50.514	-57.3975	2.02292
 244	1	5	-0.474465	-50.9332	-59.3665	-0.105536
 245	1	5	-0.469737	-46.5714	-59.1143	-1.62399
 246	1	7	-0.37887	-47.6159	-62.2162	-1.22032
 247	1	9	0.115886	-46.5798	-61.9214	-1.44021
 248	1	9	0.123845	-47.6386	-63.3072	-1.11619
 249	1	9	0.138418	-47.8721	-61.8178	-0.231703
 250	1	6	0.21348	-50.0314	-62.6519	-5.27494
 251	1	1	0.486064	-37.4314	-45.9236	17.1858
 252	1	2	0.047133	-38.0889	-46.5135	16.1043
 253	1	3	0.001076	-39.4594	-45.9426	16.1204
 254	1	2	0.034038	-38.2268	-44.988	17.8495
 255	1	3	0.050122	-39.543	-45.0456	17.1643
 256	1	5	-0.383076	-37.6542	-47.3173	15.2964
 257	1	5	-0.380811	-37.9148	-44.2265	18.7516
 258	1	3	-0.001248	-40.5454	-46.1885	15.2725
 259	1	3	-0.036565	-40.725	-44.3501	17.4255
 260	1	3	-0.208842	-41.8418	-44.6054	16.6019
 261	1	3	-0.065319	-41.7822	-45.5356	15.5238
 262	1	6	0.153391	-40.4192	-46.877	14.4405
 263	1	6	0.155343	-40.7721	-43.6317	18.2408
 264	1	6	0.174191	-42.7484	-44.0459	16.8082
 265	1	7	-0.106637	-42.9958	-45.7854	14.5765
 266	1	7	0.445763	-44.3922	-45.5844	15.2822
 267	1	8	-0.144255	-45.3989	-46.1118	14.5485
 268	1	8	-0.136881	-44.7184	-44.2895	15.4942
 269	1	8	-0.144092	-44.4331	-46.1999	16.4857
 270	1	7	0.367264	-42.8532	-44.7428	13.4054
 271	1	8	-0.12104	-42.6783	-43.483	13.8661
 272	1	8	-0.122614	-43.9335	-44.7066	12.5933
 273	1	8	-0.112321	-41.7716	-45.0104	12.6387
 274	1	3	-0.021957	-42.969	-47.2698	14.0938
 275	1	3	-0.054241	-43.145	-47.6483	12.7341
 276	1	3	-0.111709	-43.0913	-49.0061	12.3933
 277	1	3	-0.087244	-42.7841	-48.3028	15.0568
 278	1	3	-0.118951	-42.725	-49.6632	14.6907
 279	1	3	-0.044875	-42.8766	-49.9858	13.3391
 280	1	2	0.461883	-42.7999	-51.2996	12.6439
 281	1	1	-0.007433	-42.9686	-51.0164	11.295
 282	1	2	0.491356	-43.1727	-49.663	11.0607
 283	1	3	-0.019445	-42.7978	-51.9784	10.2599
 284	1	3	-0.186861	-41.4803	-52.3392	9.92875
 285	1	3	-0.068374	-41.2262	-53.2617	8.91011
 286	1	3	-0.009193	-43.8936	-52.5531	9.56746
 287	1	3	0.220761	-43.6343	-53.4777	8.51725
 288	1	3	-0.402098	-42.2983	-53.8214	8.20647
 289	1	6	0.148422	-40.644	-51.9029	10.4697
 290	1	6	0.146291	-40.2013	-53.5403	8.66946
 291	1	6	0.158981	-42.5545	-50.4433	15.4302
 292	1	6	0.141813	-42.6633	-48.0477	16.1068
 293	1	6	0.143633	-43.3049	-46.9294	11.9373
 294	1	5	-0.474465	-43.3161	-49.0999	9.98993
 295	1	5	-0.469737	-42.5501	-52.3745	13.1617
 296	1	7	-0.37887	-45.3221	-52.1622	9.96672
 297	1	9	0.115886	-45.4218	-52.0347	11.0516
 298	1	9	0.123845	-46.0698	-52.9111	9.68176
 299	1	9	0.138418	-45.6065	-51.2134	9.48934
 300	1	6	0.21348	-42.0919	-54.5473	7.42283
 301	1	1	0.486064	-30.3445	-59.2316	22.0815
 302	1	2	0.047133	-29.5997	-58.1697	22.5906
 303	1	3	0.001076	-30.2607	-56.9506	22.0559
 304	1	2	0.034038	-31.4535	-58.8166	21.3471
 305	1	3	0.050122	-31.362	-57.3359	21.3195
 306	1	5	-0.383076	-28.5516	-58.2111	23.2132
 307	1	5	-0.380811	-32.2555	-59.5053	20.7381
 308	1	3	-0.001248	-29.8293	-55.6211	22.088
 309	1	3	-0.036565	-32.1043	-56.4082	20.5852
 310	1	3	-0.208842	-31.6813	-55.0624	20.5986
 311	1	3	-0.065319	-30.5399	-54.6436	21.3394
 312	1	6	0.153391	-28.9142	-55.3973	22.6234
 313	1	6	0.155343	-32.9416	-56.736	19.9723
 314	1	6	0.174191	-32.2165	-54.3543	19.9702
 315	1	7	-0.106637	-29.9947	-53.1967	21.1637
 316	1	7	0.445763	-29.2324	-52.6672	22.4396
 317	1	8	-0.144255	-29.9196	-52.9085	23.5774
 318	1	8	-0.136881	-29.0358	-51.3349	22.3657
 319	1	8	-0.144092	-28.0118	-53.2148	22.6223
 320	1	7	0.367264	-28.9796	-53.2648	19.9589
 321	1	8	-0.12104	-28.039	-54.2202	20.1404
 322	1	8	-0.122614	-28.3118	-52.104	19.7654
 323	1	8	-0.112321	-29.605	-53.5816	18.8025
 324	1	3	-0.021957	-31.1827	-52.2102	20.9195
 325	1	3	-0.054241	-31.2444	-51.324	19.8083
 326	1	3	-0.111709	-32.3225	-50.4353	19.7013
 327	1	3	-0.087244	-32.2357	-52.1481	21.8764
 328	1	3	-0.118951	-33.2919	-51.2195	21.7678
 329	1	3	-0.044875	-33.3071	-50.367	20.6602
 330	1	2	0.461883	-34.2346	-49.2602	20.3003
 331	1	1	-0.007433	-33.7511	-48.7268	19.1071
 332	1	2	0.491356	-32.6048	-49.3944	18.6793
 333	1	3	-0.019445	-34.2728	-47.5541	18.464
 334	1	3	-0.186861	-33.3671	-46.5087	18.1966
 335	1	3	-0.068374	-33.785	-45.3067	17.6204
 336	1	3	-0.009193	-35.6401	-47.3987	18.0976
 337	1	3	0.220761	-36.0664	-46.166	17.5237
 338	1	3	-0.402098	-35.134	-45.13	17.3007
 339	1	6	0.148422	-32.3136	-46.62	18.4368
 340	1	6	0.146291	-33.0598	-44.5142	17.4374
 341	1	6	0.158981	-34.061	-51.1454	22.5342
 342	1	6	0.141813	-32.2259	-52.8112	22.737
 343	1	6	0.143633	-30.4801	-51.2879	19.0397
 344	1	5	-0.474465	-31.9012	-49.1423	17.7166
 345	1	5	-0.469737	-35.1751	-48.8734	20.9709
 346	1	7	-0.37887	-36.6458	-48.5382	18.3247
 347	1	9	0.115886	-37.2051	-48.3893	19.2577
 348	1	9	0.123845	-36.1587	-49.5171	18.3897
 349	1	9	0.138418	-37.3693	-48.6427	17.5095
 350	1	6	0.21348	-35.4603	-44.1837	16.873
 351	1	1	0.486064	-26.3376	-58.5526	13.7154
 352	1	2	0.047133	-25.5366	-59.5763	14.2346
 353	1	3	0.001076	-26.2326	-60.8381	13.8851
 354	1	2	0.034038	-27.4434	-59.0538	13.0201
 355	1	3	0.050122	-27.3451	-60.5312	13.1355
 356	1	5	-0.383076	-24.4588	-59.496	14.8011
 357	1	5	-0.380811	-28.3175	-58.438	12.4315
 358	1	3	-0.001248	-25.9256	-62.1547	14.2387
 359	1	3	-0.036565	-28.1738	-61.5365	12.6319
 360	1	3	-0.208842	-27.8614	-62.8778	12.9441
 361	1	3	-0.065319	-26.7552	-63.213	13.7795
 362	1	6	0.153391	-25.0788	-62.3311	14.8958
 363	1	6	0.155343	-29.0418	-61.2804	12.0281
 364	1	6	0.174191	-28.5219	-63.6407	12.5455
 365	1	7	-0.106637	-26.472	-64.6596	14.2961
 366	1	7	0.445763	-25.0684	-65.1066	13.7237
 367	1	8	-0.144255	-24.7874	-66.4127	13.929
 368	1	8	-0.136881	-24.0423	-64.4163	14.2685
 369	1	8	-0.144092	-24.9955	-64.8979	12.3901
 370	1	7	0.367264	-27.5492	-65.728	13.8615
 371	1	8	-0.12104	-28.8048	-65.372	14.2162
 372	1	8	-0.122614	-27.342	-66.9234	14.4588
 373	1	8	-0.112321	-27.5592	-65.9474	12.5274
 374	1	3	-0.021957	-26.5349	-64.5768	15.8473
 375	1	3	-0.054241	-27.5972	-63.8397	16.4287
 376	1	3	-0.111709	-27.6651	-63.7172	17.8165
 377	1	3	-0.087244	-25.5963	-65.2034	16.7173
 378	1	3	-0.118951	-25.6826	-65.0604	18.1213
 379	1	3	-0.044875	-26.7306	-64.2939	18.6464
 380	1	2	0.461883	-27.0739	-63.9245	20.0502
 381	1	1	-0.007433	-28.205	-63.119	19.9599
 382	1	2	0.491356	-28.644	-62.9812	18.6483
 383	1	3	-0.019445	-28.8691	-62.5144	21.0685
 384	1	3	-0.186861	-29.3901	-63.3469	22.076
 385	1	3	-0.068374	-30.1623	-62.8176	23.1183
 386	1	3	-0.009193	-29.0924	-61.115	21.1263
 387	1	3	0.220761	-29.9383	-60.5941	22.1383
 388	1	3	-0.402098	-30.4601	-61.4479	23.1341
 389	1	6	0.148422	-29.2047	-64.4182	22.045
 390	1	6	0.146291	-30.5624	-63.4782	23.8861
 391	1	6	0.158981	-24.9528	-65.5239	18.7825
 392	1	6	0.141813	-24.7817	-65.8016	16.3224
 393	1	6	0.143633	-28.3576	-63.3551	15.82
 394	1	5	-0.474465	-29.6154	-62.3748	18.2301
 395	1	5	-0.469737	-26.4722	-64.2664	21.053
 396	1	7	-0.37887	-28.4533	-60.1701	20.0956
 397	1	9	0.115886	-28.0999	-59.2381	20.5535
 398	1	9	0.123845	-29.1671	-59.9117	19.3014
 399	1	9	0.138418	-27.5684	-60.6055	19.6181
 400	1	6	0.21348	-31.111	-61.0501	23.9093
 401	1	1	0.486064	-18.5651	-55.3494	22.9768
 402	1	2	0.047133	-19.7265	-55.4787	22.2151
 403	1	3	0.001076	-20.5805	-54.337	22.6247
 404	1	2	0.034038	-18.6269	-54.2914	23.887
 405	1	3	0.050122	-19.9236	-53.6273	23.6068
 406	1	5	-0.383076	-19.9256	-56.2076	21.2575
 407	1	5	-0.380811	-17.7516	-53.8711	24.6276
 408	1	3	-0.001248	-21.747	-53.8549	22.025
 409	1	3	-0.036565	-20.4137	-52.402	24.0617
 410	1	3	-0.208842	-21.5656	-51.8767	23.4395
 411	1	3	-0.065319	-22.2181	-52.56	22.3726
 412	1	6	0.153391	-22.2037	-54.443	21.2326
 413	1	6	0.155343	-19.872	-51.8421	24.8208
 414	1	6	0.174191	-21.9086	-50.9042	23.7739
 415	1	7	-0.106637	-23.385	-51.9097	21.564
 416	1	7	0.445763	-23.2342	-50.3467	21.4194
 417	1	8	-0.144255	-21.9834	-49.9947	21.0463
 418	1	8	-0.136881	-23.4974	-49.6734	22.5563
 419	1	8	-0.144092	-24.0742	-49.8509	20.482
 420	1	7	0.367264	-24.71	-52.2375	22.3414
 421	1	8	-0.12104	-24.6265	-51.9089	23.6493
 422	1	8	-0.122614	-24.9816	-53.5614	22.3071
 423	1	8	-0.112321	-25.7812	-51.5741	21.8536
 424	1	3	-0.021957	-23.3656	-52.4656	20.1048
 425	1	3	-0.054241	-24.5259	-52.9403	19.4314
 426	1	3	-0.111709	-24.3911	-53.4711	18.1409
 427	1	3	-0.087244	-22.1258	-52.4917	19.4022
 428	1	3	-0.118951	-22.0086	-53.0506	18.1164
 429	1	3	-0.044875	-23.1648	-53.5502	17.5159
 430	1	2	0.461883	-23.3461	-54.2219	16.2053
 431	1	1	-0.007433	-24.7014	-54.5042	16.1133
 432	1	2	0.491356	-25.4084	-54.0577	17.2241
 433	1	3	-0.019445	-25.2626	-55.1534	14.9762
 434	1	3	-0.186861	-25.2722	-54.4387	13.766
 435	1	3	-0.068374	-25.6671	-55.0539	12.5754
 436	1	3	-0.009193	-25.6739	-56.5112	15.0094
 437	1	3	0.220761	-26.0183	-57.157	13.7856
 438	1	3	-0.402098	-26.0189	-56.408	12.5852
 439	1	6	0.148422	-24.9436	-53.4025	13.7423
 440	1	6	0.146291	-25.6667	-54.4898	11.6439
 441	1	6	0.158981	-21.0499	-53.1043	17.6042
 442	1	6	0.141813	-21.2238	-52.1119	19.8761
 443	1	6	0.143633	-25.5137	-52.9281	19.8792
 444	1	5	-0.474465	-26.6085	-54.1161	17.426
 445	1	5	-0.469737	-22.4685	-54.4694	15.3969
 446	1	7	-0.37887	-25.7074	-57.2516	16.3556
 447	1	9	0.115886	-26.3505	-58.1381	16.3426
 448	1	9	0.123845	-26.1067	-56.6294	17.1627
 449	1	9	0.138418	-24.6992	-57.5759	16.6488
 450	1	6	0.21348	-26.3016	-56.8823	11.6472
 451	1	1	0.486064	-17.4039	-66.9528	26.4076
 452	1	2	0.047133	-16.0154	-66.9015	26.5056
 453	1	3	0.001076	-15.7118	-65.5319	26.9863
 454	1	2	0.034038	-18.0204	-65.7648	26.7957
 455	1	3	0.050122	-16.9027	-64.8546	27.1532
 456	1	5	-0.383076	-15.2021	-67.7634	26.2175
 457	1	5	-0.380811	-19.2119	-65.5063	26.8342
 458	1	3	-0.001248	-14.4736	-64.9249	27.2211
 459	1	3	-0.036565	-16.9225	-63.5227	27.5703
 460	1	3	-0.208842	-15.6859	-62.8947	27.8255
 461	1	3	-0.065319	-14.4431	-63.5674	27.6382
 462	1	6	0.153391	-13.5773	-65.5144	27.0626
 463	1	6	0.155343	-17.8661	-62.991	27.6794
 464	1	6	0.174191	-15.7003	-61.8561	28.1463
 465	1	7	-0.106637	-13.114	-62.7918	27.8933
 466	1	7	0.445763	-12.9061	-62.764	29.4531
 467	1	8	-0.144255	-13.8247	-61.9792	30.0597
 468	1	8	-0.136881	-11.6884	-62.3132	29.8295
 469	1	8	-0.144092	-13.0378	-63.9946	29.9942
 470	1	7	0.367264	-11.8541	-63.4491	27.2142
 471	1	8	-0.12104	-12.0778	-63.718	25.908
 472	1	8	-0.122614	-11.4718	-64.6044	27.8026
 473	1	8	-0.112321	-10.7813	-62.6257	27.2494
 474	1	3	-0.021957	-13.2567	-61.3792	27.2582
 475	1	3	-0.054241	-13.8874	-61.2671	25.9923
 476	1	3	-0.111709	-14.0782	-60.0001	25.4378
 477	1	3	-0.087244	-12.7736	-60.1913	27.8804
 478	1	3	-0.118951	-12.959	-58.9234	27.2925
 479	1	3	-0.044875	-13.6349	-58.859	26.0712
 480	1	2	0.461883	-14.0487	-57.6871	25.2579
 481	1	1	-0.007433	-14.7501	-58.2165	24.184
 482	1	2	0.491356	-14.7932	-59.6018	24.199
 483	1	3	-0.019445	-15.4488	-57.4142	23.2489
 484	1	3	-0.186861	-14.8076	-57.0637	22.049
 485	1	3	-0.068374	-15.4313	-56.2063	21.1355
 486	1	3	-0.009193	-16.7411	-56.921	23.5438
 487	1	3	0.220761	-17.3437	-56.0054	22.6496
 488	1	3	-0.402098	-16.686	-55.6653	21.4451
 489	1	6	0.148422	-13.8174	-57.4529	21.8268
 490	1	6	0.146291	-14.9297	-55.9417	20.206
 491	1	6	0.158981	-12.6037	-58.0156	27.7771
 492	1	6	0.141813	-12.2532	-60.2251	28.8306
 493	1	6	0.143633	-14.2618	-62.1401	25.4615
 494	1	5	-0.474465	-15.3609	-60.3488	23.4216
 495	1	5	-0.469737	-13.8594	-56.5149	25.5337
 496	1	7	-0.37887	-17.4777	-57.3541	24.8147
 497	1	9	0.115886	-17.0559	-58.2437	25.2935
 498	1	9	0.123845	-18.5255	-57.604	24.6029
 499	1	9	0.138418	-17.47	-56.5502	25.5573
 500	1	6	0.21348	-17.1548	-54.9749	20.7477
 501	1	1	0.486064	-24.5019	-76.8471	35.1899
 502	1	2	0.047133	-24.5531	-77.499	33.9587
 503	1	3	0.001076	-24.338	-76.4324	32.9468
 504	1	2	0.034038	-24.3068	-75.4721	35.0665
 505	1	3	0.050122	-24.1873	-75.2314	33.6095
 506	1	5	-0.383076	-24.6981	-78.6892	33.7364
 507	1	5	-0.380811	-24.2194	-74.6328	35.9475
 508	1	3	-0.001248	-24.261	-76.5187	31.5517
 509	1	3	-0.036565	-23.945	-74.0444	32.9187
 510	1	3	-0.208842	-23.8532	-74.1097	31.5148
 511	1	3	-0.065319	-23.9994	-75.3366	30.8071
 512	1	6	0.153391	-24.3992	-77.4895	31.0873
 513	1	6	0.155343	-23.8287	-73.106	33.4569
 514	1	6	0.174191	-23.6666	-73.1854	30.9718
 515	1	7	-0.106637	-23.8995	-75.3137	29.2549
 516	1	7	0.445763	-25.273	-74.7424	28.7316
 517	1	8	-0.144255	-25.4024	-74.8185	27.3881
 518	1	8	-0.136881	-25.4458	-73.4451	29.0727
 519	1	8	-0.144092	-26.3247	-75.4068	29.2628
 520	1	7	0.367264	-23.661	-76.7318	28.6061
 521	1	8	-0.12104	-24.7417	-77.5411	28.6728
 522	1	8	-0.122614	-22.6415	-77.3948	29.1969
 523	1	8	-0.112321	-23.3332	-76.6298	27.298
 524	1	3	-0.021957	-22.6649	-74.4409	28.8795
 525	1	3	-0.054241	-22.7124	-73.4007	27.9131
 526	1	3	-0.111709	-21.5515	-72.6575	27.6628
 527	1	3	-0.087244	-21.4245	-74.6957	29.5317
 528	1	3	-0.118951	-20.2631	-73.9498	29.2471
 529	1	3	-0.044875	-20.3603	-72.9252	28.3028
 530	1	2	0.461883	-19.3305	-71.979	27.7958
 531	1	1	-0.007433	-19.9894	-71.1696	26.877
 532	1	2	0.491356	-21.3271	-71.5194	26.7346
 533	1	3	-0.019445	-19.3596	-70.1469	26.1091
 534	1	3	-0.186861	-19.3578	-70.2927	24.709
 535	1	3	-0.068374	-18.7451	-69.3422	23.8859
 536	1	3	-0.009193	-18.7444	-69.015	26.7051
 537	1	3	0.220761	-18.0999	-68.0686	25.8667
 538	1	3	-0.402098	-18.1115	-68.2372	24.4649
 539	1	6	0.148422	-19.8412	-71.152	24.2507
 540	1	6	0.146291	-18.7533	-69.4713	22.8048
 541	1	6	0.158981	-19.3181	-74.1573	29.7453
 542	1	6	0.141813	-21.3564	-75.4846	30.2764
 543	1	6	0.143633	-23.6129	-73.1508	27.3607
 544	1	5	-0.474465	-22.1614	-71.0252	25.9967
 545	1	5	-0.469737	-18.1561	-71.9547	28.1216
 546	1	7	-0.37887	-18.757	-68.8241	28.2292
 547	1	9	0.115886	-18.8321	-67.7703	28.5226
 548	1	9	0.123845	-17.8451	-69.2384	28.6812
 549	1	9	0.138418	-19.6128	-69.317	28.7043
 550	1	6	0.21348	-17.6165	-67.5106	23.8242
 551	1	1	0.486064	-16.1425	-71.118	40.6965
 552	1	2	0.047133	-16.676	-71.4957	41.9298
 553	1	3	0.001076	-16.9213	-72.9573	41.8194
 554	1	2	0.034038	-16.0048	-72.1951	39.8196
 555	1	3	0.050122	-16.5255	-73.3676	40.5633
 556	1	5	-0.383076	-16.8888	-70.8003	42.9092
 557	1	5	-0.380811	-15.5383	-72.2072	38.6925
 558	1	3	-0.001248	-17.4416	-73.8563	42.759
 559	1	3	-0.036565	-16.6299	-74.7016	40.1687
 560	1	3	-0.208842	-17.1583	-75.6224	41.0955
 561	1	3	-0.065319	-17.5789	-75.2246	42.3966
 562	1	6	0.153391	-17.7199	-73.4741	43.7354
 563	1	6	0.155343	-16.3063	-75.0094	39.1765
 564	1	6	0.174191	-17.2344	-76.665	40.7943
 565	1	7	-0.106637	-18.1272	-76.3134	43.3672
 566	1	7	0.445763	-18.9285	-75.7306	44.5937
 567	1	8	-0.144255	-19.8677	-74.8401	44.2027
 568	1	8	-0.136881	-18.1427	-75.1028	45.4972
 569	1	8	-0.144092	-19.5888	-76.7028	45.2631
 570	1	7	0.367264	-16.8708	-77.0983	43.9059
 571	1	8	-0.12104	-17.165	-77.9535	44.911
 572	1	8	-0.122614	-16.2711	-77.8224	42.9336
 573	1	8	-0.112321	-15.924	-76.2566	44.3799
 574	1	3	-0.021957	-19.1296	-77.1977	42.5676
 575	1	3	-0.054241	-20.1052	-76.5531	41.7646
 576	1	3	-0.111709	-21.0007	-77.3295	41.0224
 577	1	3	-0.087244	-19.1272	-78.6229	42.6072
 578	1	3	-0.118951	-20.035	-79.3864	41.8419
 579	1	3	-0.044875	-20.9627	-78.7067	41.0463
 580	1	2	0.461883	-22.0121	-79.2181	40.1211
 581	1	1	-0.007433	-22.6157	-78.0877	39.584
 582	1	2	0.491356	-22.0828	-76.9112	40.0974
 583	1	3	-0.019445	-23.6595	-78.1203	38.6154
 584	1	3	-0.186861	-24.8929	-78.6915	38.978
 585	1	3	-0.068374	-25.9719	-78.6941	38.0856
 586	1	3	-0.009193	-23.4903	-77.5584	37.3253
 587	1	3	0.220761	-24.6027	-77.5102	36.4457
 588	1	3	-0.402098	-25.8312	-78.0914	36.8288
 589	1	6	0.148422	-25.0169	-79.1395	39.9611
 590	1	6	0.146291	-26.9189	-79.1453	38.378
 591	1	6	0.158981	-20.0174	-80.4744	41.8631
 592	1	6	0.141813	-18.4194	-79.1661	43.2234
 593	1	6	0.143633	-20.1628	-75.4685	41.7022
 594	1	5	-0.474465	-22.4011	-75.7624	39.8447
 595	1	5	-0.469737	-22.2542	-80.3879	39.8788
 596	1	7	-0.37887	-22.1222	-77.0069	36.8925
 597	1	9	0.115886	-21.9489	-77.1029	35.8141
 598	1	9	0.123845	-21.2913	-77.5371	37.3724
 599	1	9	0.138418	-22.0345	-75.9419	37.1532
 600	1	6	0.21348	-26.6772	-78.0774	36.1447
 601	1	1	0.486064	-16.965	-58.99	30.1009
 602	1	2	0.047133	-17.5732	-60.197	29.7463
 603	1	3	0.001076	-17.1285	-61.1793	30.7692
 604	1	2	0.034038	-16.1407	-59.1203	31.2195
 605	1	3	0.050122	-16.2631	-60.5413	31.6323
 606	1	5	-0.383076	-18.2556	-60.4437	28.7663
 607	1	5	-0.380811	-15.4313	-58.2768	31.7423
 608	1	3	-0.001248	-17.4464	-62.536	30.9126
 609	1	3	-0.036565	-15.631	-61.2352	32.666
 610	1	3	-0.208842	-15.919	-62.6081	32.8135
 611	1	3	-0.065319	-16.8492	-63.2778	31.968
 612	1	6	0.153391	-18.1365	-62.98	30.2045
 613	1	6	0.155343	-14.926	-60.7266	33.3205
 614	1	6	0.174191	-15.4051	-63.1572	33.5999
 615	1	7	-0.106637	-17.1208	-64.7989	32.1855
 616	1	7	0.445763	-18.5097	-65.278	31.6153
 617	1	8	-0.144255	-19.5112	-64.4552	32.0
 618	1	8	-0.136881	-18.835	-66.5123	32.0627
 619	1	8	-0.144092	-18.5458	-65.3402	30.2653
 620	1	7	0.367264	-15.9672	-65.5643	31.4368
 621	1	8	-0.12104	-16.1762	-66.897	31.3489
 622	1	8	-0.122614	-14.7727	-65.3769	32.0419
 623	1	8	-0.112321	-15.8203	-65.1227	30.171
 624	1	3	-0.021957	-17.156	-65.0872	33.717
 625	1	3	-0.054241	-16.4909	-66.1957	34.3064
 626	1	3	-0.111709	-16.5518	-66.3634	35.6939
 627	1	3	-0.087244	-17.8959	-64.2188	34.5696
 628	1	3	-0.118951	-17.942	-64.4057	35.9669
 629	1	3	-0.044875	-17.2464	-65.4925	36.5058
 630	1	2	0.461883	-17.0741	-65.9336	37.9175