pySIMM System Object

552 atoms
606 bonds
1056 angles
1624 dihedrals
176 impropers

9 atom types
11 bond types
18 angle types
7 dihedral types
4 improper types

-130.109536 130.109536 xlo xhi
-130.109536 130.109536 ylo yhi
-130.109536 130.109536 zlo zhi

Masses

   1	14.01	# n
   2	12.01	# c
   3	12.01	# ca
   4	1.008	# hn
   5	16.0	# o
   6	1.008	# ha
   7	12.01	# c3
   8	19.0	# f
   9	1.008	# hc

Pair Coeffs

   1	0.17	3.249998523775958	# n
   2	0.086	3.3996695084235347	# c
   3	0.086	3.3996695084235347	# ca
   4	0.0157	1.069078461768407	# hn
   5	0.21	2.959921901149463	# o
   6	0.015	2.59964245953351	# ha
   7	0.1094	3.3996695084235347	# c3
   8	0.061	3.1181455134911875	# f
   9	0.0157	2.649532787749369	# hc

Bond Coeffs

   1	427.6	1.3789	# c,n
   2	461.1	1.3984	# ca,ca
   3	345.9	1.4906	# c,ca
   4	345.8	1.086	# ca,ha
   5	637.7	1.2183	# c,o
   6	321.0	1.5156	# c3,ca
   7	300.9	1.5375	# c3,c3
   8	356.9	1.3497	# c3,f
   9	384.2	1.4121	# ca,n
  10	330.6	1.0969	# c3,hc
  11	403.2	1.0129	# hn,n

Angle Coeffs

   1	48.18	119.88	# ca,ca,ha
   2	63.15	112.07	# c3,c3,ca
   3	70.89	107.36	# f,c3,f
   4	67.87	120.19	# ca,ca,n
   5	68.72	122.6	# ca,c,o
   6	63.56	112.24	# ca,c3,ca
   7	63.82	123.71	# c,n,ca
   8	74.22	123.05	# n,c,o
   9	48.33	117.55	# c,n,hn
  10	67.68	115.25	# ca,c,n
  11	64.28	120.33	# c,ca,ca
  12	66.11	109.24	# c3,c3,f
  13	46.8	110.47	# ca,c3,hc
  14	39.4	107.58	# hc,c3,hc
  15	66.62	120.02	# ca,ca,ca
  16	63.53	120.77	# c3,ca,ca
  17	62.86	111.51	# c3,c3,c3
  18	63.74	127.08	# c,n,c

Dihedral Coeffs

   1	1	2.5	2	180	# X,c,n,X
   2	1	0.45	2	180	# X,ca,n,X
   3	2	2.5	2	180	2.0	1	0	# hn,n,c,o
   4	1	3.625	2	180	# X,ca,ca,X
   5	1	1.0	2	180	# X,c,ca,X
   6	1	0.15555555555555556	3	0	# X,c3,c3,X
   7	1	0.0	2	0	# X,c3,ca,X

Improper Coeffs

   1	1.1	-1	2	# ca,ca,ca,c3
   2	10.5	-1	2	# c,X,X,o
   3	1.1	-1	2	# ca,X,X,ha
   4	1.1	-1	2	# n,X,X,hn

Atoms

   1	1	1	0.486064	10.1514	54.3024	-21.0808
   2	1	2	0.047133	10.6417	55.5737	-20.7422
   3	1	3	0.001076	10.3444	56.4594	-21.8949
   4	1	2	0.034038	9.43552	54.3523	-22.291
   5	1	3	0.050122	9.58945	55.7566	-22.8016
   6	1	5	-0.383076	11.317	55.8989	-19.7789
   7	1	5	-0.380811	8.95866	53.4231	-22.9204
   8	1	3	-0.001248	10.9191	57.6981	-22.2072
   9	1	3	-0.036565	9.25804	56.3394	-24.0351
  10	1	3	-0.208842	9.80513	57.6095	-24.36
  11	1	3	-0.065319	10.7205	58.2794	-23.4954
  12	1	6	0.153391	11.6031	58.1014	-21.4714
  13	1	6	0.155343	8.66427	55.7837	-24.7578
  14	1	6	0.174191	9.60322	58.0159	-25.3486
  15	1	7	-0.106637	11.6602	59.4181	-24.0638
  16	1	7	0.445763	12.706	59.9095	-22.9808
  17	1	8	-0.144255	12.075	60.3945	-21.8869
  18	1	8	-0.136881	13.5061	60.9183	-23.3915
  19	1	8	-0.144092	13.5444	58.9237	-22.5885
  20	1	7	0.367264	12.4526	58.7711	-25.2735
  21	1	8	-0.12104	12.7992	57.4886	-25.0194
  22	1	8	-0.122614	13.606	59.3986	-25.592
  23	1	8	-0.112321	11.7097	58.7607	-26.4041
  24	1	3	-0.021957	10.9071	60.704	-24.5344
  25	1	3	-0.054241	11.6048	61.6867	-25.2905
  26	1	3	-0.111709	11.033	62.9431	-25.4965
  27	1	3	-0.087244	9.59592	61.0265	-24.0856
  28	1	3	-0.118951	9.01466	62.294	-24.3458
  29	1	3	-0.044875	9.77258	63.2506	-25.0401
  30	1	2	0.461883	9.53464	64.7027	-25.3086
  31	1	1	-0.007433	10.7227	65.1859	-25.8553
  32	1	2	0.491356	11.6576	64.177	-26.0373
  33	1	3	-0.019445	11.0194	66.5587	-26.1142
  34	1	3	-0.186861	11.2934	66.9619	-27.4371
  35	1	3	-0.068374	11.6711	68.2833	-27.7257
  36	1	3	-0.009193	11.1447	67.4994	-25.0621
  37	1	3	0.220761	11.5205	68.8253	-25.3628
  38	1	3	-0.402098	11.7824	69.2162	-26.6847
  39	1	6	0.148422	11.2358	66.2397	-28.2471
  40	1	6	0.146291	11.8878	68.5775	-28.7514
  41	1	6	0.158981	8.03151	62.5522	-23.9576
  42	1	6	0.141813	9.04008	60.3153	-23.4806
  43	1	6	0.143633	12.6249	61.5434	-25.63
  44	1	5	-0.474465	12.8021	64.2757	-26.4448
  45	1	5	-0.469737	8.52625	65.3283	-25.0297
  46	1	7	-0.37887	10.9035	67.1086	-23.6047
  47	1	9	0.115886	11.2688	67.8786	-22.9132
  48	1	9	0.123845	11.4151	66.1736	-23.3449
  49	1	9	0.138418	9.83042	66.9807	-23.4093
  50	1	6	0.21348	12.0815	70.2401	-26.8914
  51	1	1	0.486064	9.12114	38.7766	-13.9754
  52	1	2	0.047133	8.05138	39.6876	-13.9255
  53	1	3	0.001076	8.57482	41.0007	-14.438
  54	1	2	0.034038	10.2913	39.4161	-14.4099
  55	1	3	0.050122	9.91074	40.8339	-14.72
  56	1	5	-0.383076	6.88343	39.4442	-13.6743
  57	1	5	-0.380811	11.3691	38.9017	-14.6572
  58	1	3	-0.001248	7.91895	42.2243	-14.7048
  59	1	3	-0.036565	10.654	41.8865	-15.2787
  60	1	3	-0.208842	10.015	43.1291	-15.5339
  61	1	3	-0.065319	8.63257	43.3358	-15.2706
  62	1	6	0.153391	6.8707	42.2885	-14.4384
  63	1	6	0.155343	11.7077	41.7412	-15.5065
  64	1	6	0.174191	10.6143	43.9468	-15.9278
  65	1	7	-0.106637	7.97654	44.769	-15.4584
  66	1	7	0.445763	6.47546	44.656	-15.9371
  67	1	8	-0.144255	5.97004	45.8551	-16.3103
  68	1	8	-0.136881	5.62898	44.179	-14.9995
  69	1	8	-0.144092	6.36768	43.8443	-17.0127
  70	1	7	0.367264	8.00284	45.4371	-14.0302
  71	1	8	-0.12104	7.56602	44.604	-13.0592
  72	1	8	-0.122614	7.228	46.5414	-13.934
  73	1	8	-0.112321	9.26302	45.7863	-13.6872
  74	1	3	-0.021957	8.6583	45.6964	-16.5518
  75	1	3	-0.054241	8.84069	47.1099	-16.3834
  76	1	3	-0.111709	9.20097	47.9238	-17.4798
  77	1	3	-0.087244	8.91341	45.1777	-17.8534
  78	1	3	-0.118951	9.29375	46.0069	-18.9393
  79	1	3	-0.044875	9.40943	47.3901	-18.7304
  80	1	2	0.461883	9.78059	48.5048	-19.6632
  81	1	1	-0.007433	9.79349	49.6729	-18.9011
  82	1	2	0.491356	9.43652	49.4039	-17.5778
  83	1	3	-0.019445	10.4552	50.8818	-19.328
  84	1	3	-0.186861	11.84	50.906	-19.09
  85	1	3	-0.068374	12.6272	51.9793	-19.5049
  86	1	3	-0.009193	9.83271	52.0016	-19.9718
  87	1	3	0.220761	10.6389	53.105	-20.4173
  88	1	3	-0.402098	12.0354	53.0469	-20.1823
  89	1	6	0.148422	12.3186	50.0739	-18.5798
  90	1	6	0.146291	13.6978	51.9803	-19.3057
  91	1	6	0.158981	9.46519	45.5897	-19.9298
  92	1	6	0.141813	8.76737	44.1168	-18.041
  93	1	6	0.143633	8.67012	47.611	-15.4378
  94	1	5	-0.474465	9.42968	50.1841	-16.6424
  95	1	5	-0.469737	10.1283	48.3731	-20.8239
  96	1	7	-0.37887	8.31514	52.0068	-20.1588
  97	1	9	0.115886	8.03803	51.5113	-21.0992
  98	1	9	0.123845	7.90082	53.0218	-20.1852
  99	1	9	0.138418	7.80335	51.4866	-19.3401
 100	1	6	0.21348	12.678	53.8673	-20.497
 101	1	1	0.486064	11.1631	22.3323	-12.4346
 102	1	2	0.047133	11.5425	23.0535	-11.2817
 103	1	3	0.001076	10.9402	24.4341	-11.42
 104	1	2	0.034038	10.3733	23.1404	-13.27
 105	1	3	0.050122	10.2749	24.4761	-12.6219
 106	1	5	-0.383076	12.3117	22.7094	-10.4004
 107	1	5	-0.380811	9.91201	22.867	-14.3667
 108	1	3	-0.001248	10.9926	25.5842	-10.5962
 109	1	3	-0.036565	9.68416	25.6585	-13.0881
 110	1	3	-0.208842	9.7433	26.8217	-12.284
 111	1	3	-0.065319	10.3798	26.818	-11.0147
 112	1	6	0.153391	11.503	25.4941	-9.643
 113	1	6	0.155343	9.1964	25.671	-14.0602
 114	1	6	0.174191	9.27916	27.7289	-12.6606
 115	1	7	-0.106637	10.3716	28.1107	-10.1049
 116	1	7	0.445763	9.61307	27.7308	-8.76173
 117	1	8	-0.144255	8.45211	27.0817	-9.00711
 118	1	8	-0.136881	9.31969	28.8214	-8.01742
 119	1	8	-0.144092	10.2845	26.8899	-7.94593
 120	1	7	0.367264	11.8665	28.4796	-9.73699
 121	1	8	-0.12104	12.5236	27.5617	-8.99659
 122	1	8	-0.122614	11.94	29.6331	-9.03416
 123	1	8	-0.112321	12.6226	28.6126	-10.8486
 124	1	3	-0.021957	9.65943	29.4084	-10.7341
 125	1	3	-0.054241	10.3711	30.5339	-11.2831
 126	1	3	-0.111709	9.70307	31.7494	-11.5814
 127	1	3	-0.087244	8.24092	29.5747	-10.6519
 128	1	3	-0.118951	7.58945	30.797	-10.9444
 129	1	3	-0.044875	8.35222	31.8895	-11.3727
 130	1	2	0.461883	7.93759	33.2668	-11.7921
 131	1	1	-0.007433	9.07249	33.887	-12.3133
 132	1	2	0.491356	10.1863	33.0438	-12.1859
 133	1	3	-0.019445	8.96887	34.978	-13.2615
 134	1	3	-0.186861	8.57765	34.5741	-14.5498
 135	1	3	-0.068374	8.35551	35.4993	-15.5699
 136	1	3	-0.009193	9.14932	36.3798	-12.9978
 137	1	3	0.220761	8.94151	37.3381	-14.0554
 138	1	3	-0.402098	8.53752	36.8619	-15.3225
 139	1	6	0.148422	8.42056	33.5193	-14.7612
 140	1	6	0.146291	8.03766	35.1561	-16.5527
 141	1	6	0.158981	6.51071	30.8959	-10.8354
 142	1	6	0.141813	7.60579	28.7643	-10.3175
 143	1	6	0.143633	11.4408	30.5147	-11.4519
 144	1	5	-0.474465	11.3024	33.2293	-12.6365
 145	1	5	-0.469737	6.7918	33.6817	-11.8161
 146	1	7	-0.37887	9.54845	36.821	-11.5892
 147	1	9	0.115886	8.88881	36.3687	-10.8368
 148	1	9	0.123845	9.49036	37.9067	-11.4472
 149	1	9	0.138418	10.5773	36.5116	-11.3603
 150	1	6	0.21348	8.36045	37.5656	-16.1323
 151	1	1	0.486064	7.30152	5.84203	-11.7582
 152	1	2	0.047133	7.31831	6.61925	-12.9337
 153	1	3	0.001076	8.09697	7.87506	-12.6158
 154	1	2	0.034038	7.94941	6.521	-10.717
 155	1	3	0.050122	8.4771	7.79458	-11.2956
 156	1	5	-0.383076	6.9212	6.2949	-14.04
 157	1	5	-0.380811	8.19403	6.1034	-9.59714
 158	1	3	-0.001248	8.55445	8.93811	-13.4357
 159	1	3	-0.036565	9.34225	8.74756	-10.7387
 160	1	3	-0.208842	9.80093	9.81996	-11.5435
 161	1	3	-0.065319	9.41987	9.96102	-12.9055
 162	1	6	0.153391	8.26253	8.91454	-14.4792
 163	1	6	0.155343	9.68744	8.62825	-9.71393
 164	1	6	0.174191	10.5105	10.5235	-11.1126
 165	1	7	-0.106637	10.1148	11.0887	-13.786
 166	1	7	0.445763	11.5404	10.517	-14.1529
 167	1	8	-0.144255	12.348	10.4967	-13.0691
 168	1	8	-0.136881	12.1826	11.2135	-15.1167
 169	1	8	-0.144092	11.4769	9.24405	-14.6061
 170	1	7	0.367264	9.31293	11.3361	-15.1221
 171	1	8	-0.12104	9.39699	10.3167	-16.0068
 172	1	8	-0.122614	9.74081	12.4341	-15.785
 173	1	8	-0.112321	8.00082	11.5362	-14.8646
 174	1	3	-0.021957	10.2157	12.5193	-13.0947
 175	1	3	-0.054241	11.2413	13.4802	-13.3999
 176	1	3	-0.111709	11.1337	14.8224	-12.9592
 177	1	3	-0.087244	9.14274	12.9895	-12.2876
 178	1	3	-0.118951	9.03978	14.3453	-11.8782
 179	1	3	-0.044875	10.0357	15.2584	-12.2638
 180	1	2	0.461883	10.0958	16.759	-12.1704
 181	1	1	-0.007433	11.2852	17.1731	-12.7913
 182	1	2	0.491356	11.9817	16.0297	-13.2402
 183	1	3	-0.019445	11.643	18.5547	-13.1543
 184	1	3	-0.186861	12.2048	18.727	-14.4404
 185	1	3	-0.068374	12.5868	19.9763	-14.9301
 186	1	3	-0.009193	11.4154	19.7508	-12.3707
 187	1	3	0.220761	11.6719	21.0565	-12.9321
 188	1	3	-0.402098	12.3202	21.1239	-14.1861
 189	1	6	0.148422	12.3623	17.8784	-15.0992
 190	1	6	0.146291	13.0293	20.0572	-15.9223
 191	1	6	0.158981	8.17298	14.6936	-11.3209
 192	1	6	0.141813	8.33127	12.3116	-12.0368
 193	1	6	0.143633	12.0824	13.2458	-14.0409
 194	1	5	-0.474465	13.0638	15.9776	-13.8004
 195	1	5	-0.469737	9.17192	17.4516	-11.7817
 196	1	7	-0.37887	10.9272	19.6439	-10.9264
 197	1	9	0.115886	11.3794	20.4016	-10.2783
 198	1	9	0.123845	11.2049	18.6826	-10.4782
 199	1	9	0.138418	9.83712	19.7461	-10.859
 200	1	6	0.21348	12.534	22.091	-14.6379
 201	1	1	0.486064	-1.56851	-7.55008	-6.20083
 202	1	2	0.047133	-1.58185	-6.15972	-5.95803
 203	1	3	0.001076	-0.827083	-5.51756	-7.09387
 204	1	2	0.034038	-0.872988	-7.82793	-7.3886
 205	1	3	0.050122	-0.371785	-6.52858	-7.90289
 206	1	5	-0.383076	-2.03862	-5.56587	-4.99614
 207	1	5	-0.380811	-0.711201	-8.90153	-7.94734
 208	1	3	-0.001248	-0.615021	-4.16428	-7.44784
 209	1	3	-0.036565	0.420026	-6.25935	-9.02046
 210	1	3	-0.208842	0.654352	-4.91315	-9.37798
 211	1	3	-0.065319	0.076234	-3.82391	-8.66632
 212	1	6	0.153391	-1.06106	-3.42179	-6.79773
 213	1	6	0.155343	0.796134	-7.08045	-9.62685
 214	1	6	0.174191	1.21349	-4.73903	-10.2868
 215	1	7	-0.106637	-0.0303103	-2.4023	-9.37572
 216	1	7	0.445763	-1.1302	-2.59041	-10.5136
 217	1	8	-0.144255	-1.29882	-1.46923	-11.2485
 218	1	8	-0.136881	-2.34336	-2.94874	-10.0372
 219	1	8	-0.144092	-0.849663	-3.57403	-11.3965
 220	1	7	0.367264	-0.622572	-1.3157	-8.37898
 221	1	8	-0.12104	-1.8741	-1.56711	-7.93328
 222	1	8	-0.122614	-0.70982	-0.0889811	-8.94225
 223	1	8	-0.112321	0.140948	-1.20441	-7.26899
 224	1	3	-0.021957	1.30779	-1.8145	-10.053
 225	1	3	-0.054241	1.99151	-0.631566	-9.58686
 226	1	3	-0.111709	2.9663	0.0231648	-10.3862
 227	1	3	-0.087244	1.78706	-2.32569	-11.301
 228	1	3	-0.118951	2.78097	-1.68181	-12.0729
 229	1	3	-0.044875	3.32908	-0.482044	-11.6103
 230	1	2	0.461883	4.3566	0.41574	-12.222
 231	1	1	-0.007433	4.59577	1.44625	-11.3096
 232	1	2	0.491356	3.78097	1.28076	-10.1785
 233	1	3	-0.019445	5.77481	2.29388	-11.4058
 234	1	3	-0.186861	6.99313	1.59077	-11.3577
 235	1	3	-0.068374	8.22185	2.24025	-11.4801
 236	1	3	-0.009193	5.81402	3.72395	-11.5792
 237	1	3	0.220761	7.08253	4.40388	-11.6889
 238	1	3	-0.402098	8.2619	3.62648	-11.6444
 239	1	6	0.148422	6.99132	0.509969	-11.2373
 240	1	6	0.146291	9.14501	1.66478	-11.4365
 241	1	6	0.158981	3.09426	-2.08939	-13.0327
 242	1	6	0.141813	1.3689	-3.2182	-11.7425
 243	1	6	0.143633	1.74888	-0.159585	-8.64236
 244	1	5	-0.474465	3.78767	1.95504	-9.16435
 245	1	5	-0.469737	4.95	0.189672	-13.2629
 246	1	7	-0.37887	4.50475	4.50974	-11.6301
 247	1	9	0.115886	4.61023	5.46361	-12.162
 248	1	9	0.123845	4.13917	4.72228	-10.6165
 249	1	9	0.138418	3.72098	3.94862	-12.1544
 250	1	6	0.21348	9.23264	4.11373	-11.7046
 251	1	1	0.486064	-5.79511	-14.7764	7.71235
 252	1	2	0.047133	-6.11372	-13.4196	7.59367
 253	1	3	0.001076	-5.86739	-13.0629	6.16471
 254	1	2	0.034038	-5.33469	-15.304	6.49903
 255	1	3	0.050122	-5.39098	-14.1784	5.51569
 256	1	5	-0.383076	-6.62562	-12.6951	8.43021
 257	1	5	-0.380811	-5.09467	-16.4707	6.23576
 258	1	3	-0.001248	-6.10962	-11.8638	5.4765
 259	1	3	-0.036565	-5.10636	-14.1355	4.14249
 260	1	3	-0.208842	-5.29748	-12.9168	3.44075
 261	1	3	-0.065319	-5.8188	-11.756	4.0814
 262	1	6	0.153391	-6.49993	-11.03	6.04999
 263	1	6	0.155343	-4.73897	-15.026	3.63661
 264	1	6	0.174191	-5.03046	-12.8873	2.3875
 265	1	7	-0.106637	-6.01565	-10.3872	3.32389
 266	1	7	0.445763	-7.44389	-9.79563	3.6439
 267	1	8	-0.144255	-8.3948	-10.7553	3.57941
 268	1	8	-0.136881	-7.80299	-8.83328	2.76364
 269	1	8	-0.144092	-7.54645	-9.23846	4.87035
 270	1	7	0.367264	-4.91054	-9.40054	3.87719
 271	1	8	-0.12104	-4.84165	-9.35735	5.22542
 272	1	8	-0.122614	-5.11091	-8.1203	3.48825
 273	1	8	-0.112321	-3.67657	-9.77966	3.47237
 274	1	3	-0.021957	-5.9456	-10.4962	1.74838
 275	1	3	-0.054241	-5.14226	-9.62855	0.946597
 276	1	3	-0.111709	-5.16297	-9.73167	-0.451236
 277	1	3	-0.087244	-6.78699	-11.4103	1.04861
 278	1	3	-0.118951	-6.77607	-11.517	-0.365612
 279	1	3	-0.044875	-5.93175	-10.6685	-1.09907
 280	1	2	0.461883	-5.5488	-10.6546	-2.54889
 281	1	1	-0.007433	-4.53081	-9.70532	-2.66761
 282	1	2	0.491356	-4.30482	-9.05169	-1.46091
 283	1	3	-0.019445	-3.51599	-9.72108	-3.68247
 284	1	3	-0.186861	-2.64357	-10.8195	-3.62713
 285	1	3	-0.068374	-1.47352	-10.8391	-4.38145
 286	1	3	-0.009193	-3.24887	-8.64423	-4.58242
 287	1	3	0.220761	-2.0085	-8.61456	-5.30746
 288	1	3	-0.402098	-1.14012	-9.72887	-5.16196
 289	1	6	0.148422	-2.85786	-11.6566	-2.96658
 290	1	6	0.146291	-0.806012	-11.6978	-4.3274
 291	1	6	0.158981	-7.38828	-12.2574	-0.877077
 292	1	6	0.141813	-7.44564	-12.0679	1.61066
 293	1	6	0.143633	-4.47326	-8.88436	1.36095
 294	1	5	-0.474465	-3.42995	-8.24211	-1.20854
 295	1	5	-0.469737	-5.89099	-11.4816	-3.37641
 296	1	7	-0.37887	-4.33794	-7.5903	-4.78416
 297	1	9	0.115886	-5.33871	-8.02789	-4.67088
 298	1	9	0.123845	-4.31076	-7.15643	-5.79098
 299	1	9	0.138418	-4.24416	-6.77239	-4.05764
 300	1	6	0.21348	-0.195267	-9.76218	-5.69934
 301	1	1	0.486064	-2.26719	-25.2235	19.9615
 302	1	2	0.047133	-2.34203	-23.8532	20.2401
 303	1	3	0.001076	-2.365	-23.1736	18.9196
 304	1	2	0.034038	-2.14711	-25.4745	18.5947
 305	1	3	0.050122	-2.29056	-24.1433	17.9443
 306	1	5	-0.383076	-2.5017	-23.3057	21.3175
 307	1	5	-0.380811	-2.03978	-26.5496	18.0273
 308	1	3	-0.001248	-2.44075	-21.8077	18.6047
 309	1	3	-0.036565	-2.40881	-23.8072	16.5949
 310	1	3	-0.208842	-2.52204	-22.4412	16.255
 311	1	3	-0.065319	-2.46312	-21.4109	17.235
 312	1	6	0.153391	-2.42459	-21.1007	19.4275
 313	1	6	0.155343	-2.38849	-24.5841	15.8342
 314	1	6	0.174191	-2.57647	-22.1819	15.2009
 315	1	7	-0.106637	-2.21717	-19.9394	16.7587
 316	1	7	0.445763	-2.16489	-18.892	17.953
 317	1	8	-0.144255	-3.26171	-18.9242	18.7427
 318	1	8	-0.136881	-2.08548	-17.6198	17.5006
 319	1	8	-0.144092	-1.11545	-19.0744	18.7852
 320	1	7	0.367264	-0.774782	-19.9399	16.0993
 321	1	8	-0.12104	-0.334912	-18.7025	15.7809
 322	1	8	-0.122614	-0.702946	-20.6664	14.962
 323	1	8	-0.112321	0.150627	-20.4878	16.9204
 324	1	3	-0.021957	-3.34781	-19.4491	15.7842
 325	1	3	-0.054241	-3.11274	-18.9877	14.451
 326	1	3	-0.111709	-4.1462	-18.3368	13.7468
 327	1	3	-0.087244	-4.67178	-19.3231	16.2912
 328	1	3	-0.118951	-5.66749	-18.5988	15.6042
 329	1	3	-0.044875	-5.35475	-18.0741	14.3461
 330	1	2	0.461883	-6.18057	-17.2694	13.4077
 331	1	1	-0.007433	-5.47081	-17.1993	12.2044
 332	1	2	0.491356	-4.21807	-17.8112	12.3429
 333	1	3	-0.019445	-6.09543	-16.7799	10.9648
 334	1	3	-0.186861	-7.39926	-17.2747	10.7452
 335	1	3	-0.068374	-8.14382	-16.926	9.61866
 336	1	3	-0.009193	-5.51807	-15.9163	9.9755
 337	1	3	0.220761	-6.26778	-15.597	8.79543
 338	1	3	-0.402098	-7.57768	-16.099	8.64957
 339	1	6	0.148422	-7.86907	-17.931	11.4734
 340	1	6	0.146291	-9.15795	-17.3034	9.49916
 341	1	6	0.158981	-6.65387	-18.4446	16.0384
 342	1	6	0.141813	-4.92453	-19.7316	17.265
 343	1	6	0.143633	-2.14964	-19.0775	13.9612
 344	1	5	-0.474465	-3.39552	-18.0392	11.4735
 345	1	5	-0.469737	-7.28494	-16.8205	13.667
 346	1	7	-0.37887	-4.11559	-15.3347	10.1727
 347	1	9	0.115886	-3.86924	-15.2139	11.2346
 348	1	9	0.123845	-4.00294	-14.3423	9.71983
 349	1	9	0.138418	-3.35534	-15.9966	9.73427
 350	1	6	0.21348	-8.16289	-15.8438	7.76923
 351	1	1	0.486064	-13.4367	-21.4716	25.8262
 352	1	2	0.047133	-13.4986	-20.9604	24.5148
 353	1	3	0.001076	-12.2195	-21.3445	23.8736
 354	1	2	0.034038	-12.0804	-21.5588	26.1776
 355	1	3	0.050122	-11.3877	-21.7402	24.8927
 356	1	5	-0.383076	-14.3034	-20.1731	24.0446
 357	1	5	-0.380811	-11.5521	-21.7119	27.2688
 358	1	3	-0.001248	-11.9321	-21.61	22.5234
 359	1	3	-0.036565	-10.2819	-22.539	24.6531
 360	1	3	-0.208842	-10.0275	-22.8992	23.3263
 361	1	3	-0.065319	-10.7891	-22.3965	22.2222
 362	1	6	0.153391	-12.6342	-21.3071	21.7511
 363	1	6	0.155343	-9.7201	-22.9722	25.4778
 364	1	6	0.174191	-9.23085	-23.6203	23.2022
 365	1	7	-0.106637	-10.4353	-22.8182	20.7566
 366	1	7	0.445763	-10.4743	-21.6073	19.7321
 367	1	8	-0.144255	-11.6629	-21.4105	19.1223
 368	1	8	-0.136881	-9.57339	-21.7715	18.7351
 369	1	8	-0.144092	-10.1832	-20.4297	20.3289
 370	1	7	0.367264	-11.4679	-23.9243	20.3164
 371	1	8	-0.12104	-11.1497	-24.4464	19.11
 372	1	8	-0.122614	-12.7374	-23.4682	20.233
 373	1	8	-0.112321	-11.5335	-24.9367	21.2108
 374	1	3	-0.021957	-8.9707	-23.3447	20.8392
 375	1	3	-0.054241	-8.66545	-24.736	20.9071
 376	1	3	-0.111709	-7.51272	-25.1276	21.6005
 377	1	3	-0.087244	-7.97761	-22.4098	21.2562
 378	1	3	-0.118951	-6.81009	-22.8277	21.9114
 379	1	3	-0.044875	-6.64952	-24.1937	22.1277
 380	1	2	0.461883	-5.55649	-24.8985	22.816
 381	1	1	-0.007433	-5.72616	-26.2404	22.5005
 382	1	2	0.491356	-6.96467	-26.4819	21.9094
 383	1	3	-0.019445	-4.52795	-26.9577	22.2336
 384	1	3	-0.186861	-3.6894	-27.2305	23.3301
 385	1	3	-0.068374	-2.3032	-27.042	23.2214
 386	1	3	-0.009193	-3.95616	-26.6501	20.9778
 387	1	3	0.220761	-2.61432	-26.2022	20.9458
 388	1	3	-0.402098	-1.77976	-26.4477	22.0598
 389	1	6	0.148422	-4.12	-27.4117	24.3124
 390	1	6	0.146291	-1.67389	-27.173	24.1006
 391	1	6	0.158981	-6.09069	-22.1146	22.3104
 392	1	6	0.141813	-8.17604	-21.344	21.2384
 393	1	6	0.143633	-9.34155	-25.5118	20.5623
 394	1	5	-0.474465	-7.41824	-27.5423	21.5165
 395	1	5	-0.469737	-4.60568	-24.3587	23.3532
 396	1	7	-0.37887	-4.85986	-26.5511	19.7384
 397	1	9	0.115886	-5.28681	-25.5512	19.597
 398	1	9	0.123845	-5.67646	-27.2805	19.7877
 399	1	9	0.138418	-4.34152	-26.8456	18.8213
 400	1	6	0.21348	-0.753287	-26.0895	22.0637
 401	1	1	0.486064	-15.3074	-30.088	16.9113
 402	1	2	0.047133	-15.4683	-30.1286	18.2929
 403	1	3	0.001076	-16.9338	-30.1065	18.4971
 404	1	2	0.034038	-16.5104	-30.1689	16.2117
 405	1	3	0.050122	-17.555	-30.1314	17.2661
 406	1	5	-0.383076	-14.625	-29.9347	19.1529
 407	1	5	-0.380811	-16.6941	-30.0292	15.014
 408	1	3	-0.001248	-17.6351	-29.8083	19.6648
 409	1	3	-0.036565	-18.9287	-29.9061	17.1459
 410	1	3	-0.208842	-19.6569	-29.5922	18.3133
 411	1	3	-0.065319	-19.0139	-29.482	19.5785
 412	1	6	0.153391	-17.0784	-29.6948	20.5926
 413	1	6	0.155343	-19.3971	-29.886	16.1642
 414	1	6	0.174191	-20.7113	-29.3636	18.196
 415	1	7	-0.106637	-19.6995	-28.8731	20.8372
 416	1	7	0.445763	-21.0726	-28.1599	20.5555
 417	1	8	-0.144255	-21.5109	-27.476	21.6369
 418	1	8	-0.136881	-22.0546	-29.0229	20.212
 419	1	8	-0.144092	-20.9694	-27.2478	19.5617
 420	1	7	0.367264	-19.9236	-30.0646	21.8438
 421	1	8	-0.12104	-20.7055	-29.7443	22.8983
 422	1	8	-0.122614	-18.7559	-30.5233	22.3479
 423	1	8	-0.112321	-20.512	-31.1178	21.2323
 424	1	3	-0.021957	-18.7402	-27.7672	21.3632
 425	1	3	-0.054241	-18.5003	-27.5532	22.7442
 426	1	3	-0.111709	-17.5251	-26.6199	23.1146
 427	1	3	-0.087244	-18.0549	-26.9436	20.4215
 428	1	3	-0.118951	-17.0492	-26.0427	20.8146
 429	1	3	-0.044875	-16.7847	-25.9274	22.179
 430	1	2	0.461883	-15.7771	-25.1045	22.8905
 431	1	1	-0.007433	-16.0374	-25.2955	24.2431
 432	1	2	0.491356	-17.0641	-26.2044	24.4626
 433	1	3	-0.019445	-15.3252	-24.6368	25.2839
 434	1	3	-0.186861	-14.7437	-25.4209	26.291
 435	1	3	-0.068374	-14.0795	-24.808	27.3517
 436	1	3	-0.009193	-15.1691	-23.228	25.292
 437	1	3	0.220761	-14.2427	-22.6307	26.2004
 438	1	3	-0.402098	-13.8427	-23.4297	27.3085
 439	1	6	0.148422	-14.8581	-26.5028	26.2844
 440	1	6	0.146291	-13.6801	-25.4112	28.166
 441	1	6	0.158981	-16.489	-25.4596	20.0861
 442	1	6	0.141813	-18.2646	-27.0374	19.3588
 443	1	6	0.143633	-19.0236	-28.1016	23.5214
 444	1	5	-0.474465	-17.53	-26.5743	25.5263
 445	1	5	-0.469737	-14.8912	-24.4445	22.3714
 446	1	7	-0.37887	-16.0939	-22.3971	24.3922
 447	1	9	0.115886	-16.316	-21.421	24.8411
 448	1	9	0.123845	-17.0708	-22.8749	24.2522
 449	1	9	0.138418	-15.665	-22.2258	23.3959
 450	1	6	0.21348	-13.2418	-23.0147	28.1118
 451	1	1	0.486064	-3.05958	-35.6498	10.3399
 452	1	2	0.047133	-3.75069	-34.4926	10.6992
 453	1	3	0.001076	-3.81011	-34.523	12.1783
 454	1	2	0.034038	-2.62862	-36.3862	11.4425
 455	1	3	0.050122	-3.13137	-35.6337	12.62
 456	1	5	-0.383076	-4.29909	-33.6772	9.97554
 457	1	5	-0.380811	-2.07715	-37.4741	11.4584
 458	1	3	-0.001248	-4.45067	-33.6478	13.0569
 459	1	3	-0.036565	-3.05748	-35.9242	13.9799
 460	1	3	-0.208842	-3.66128	-35.0273	14.8873
 461	1	3	-0.065319	-4.36105	-33.8542	14.4623
 462	1	6	0.153391	-4.96459	-32.8148	12.6082
 463	1	6	0.155343	-2.53186	-36.8125	14.3227
 464	1	6	0.174191	-3.54987	-35.284	15.9311
 465	1	7	-0.106637	-4.88101	-32.7645	15.4732
 466	1	7	0.445763	-5.07093	-33.3568	16.939
 467	1	8	-0.144255	-5.88099	-34.4419	16.9256
 468	1	8	-0.136881	-5.59612	-32.4473	17.7909
 469	1	8	-0.144092	-3.94503	-33.7692	17.561
 470	1	7	0.367264	-3.76776	-31.6407	15.5579
 471	1	8	-0.12104	-4.23006	-30.5237	16.1624
 472	1	8	-0.122614	-3.30779	-31.2672	14.3429
 473	1	8	-0.112321	-2.65353	-32.0226	16.2187
 474	1	3	-0.021957	-6.24466	-32.1195	14.9837
 475	1	3	-0.054241	-7.48522	-32.3161	15.6694
 476	1	3	-0.111709	-8.64094	-31.6525	15.2428
 477	1	3	-0.087244	-6.27974	-31.208	13.8819
 478	1	3	-0.118951	-7.46928	-30.6189	13.4128
 479	1	3	-0.044875	-8.6453	-30.8711	14.1142
 480	1	2	0.461883	-9.97624	-30.2383	13.9835
 481	1	1	-0.007433	-10.6663	-30.5781	15.143
 482	1	2	0.491356	-9.9523	-31.4784	15.9304
 483	1	3	-0.019445	-11.817	-29.8457	15.5632
 484	1	3	-0.186861	-11.7059	-28.4398	15.5208
 485	1	3	-0.068374	-12.7923	-27.6126	15.8042
 486	1	3	-0.009193	-13.033	-30.4433	15.9874
 487	1	3	0.220761	-14.111	-29.5917	16.3362
 488	1	3	-0.402098	-13.9964	-28.1909	16.2047
 489	1	6	0.148422	-10.7696	-27.9734	15.2231
 490	1	6	0.146291	-12.6935	-26.5318	15.7201
 491	1	6	0.158981	-7.46686	-29.925	12.5739
 492	1	6	0.141813	-5.3768	-30.9187	13.3608
 493	1	6	0.143633	-7.59072	-32.9087	16.569
 494	1	5	-0.474465	-10.2303	-31.8945	17.0419
 495	1	5	-0.469737	-10.298	-29.4484	13.1115
 496	1	7	-0.37887	-13.1953	-31.9655	16.088
 497	1	9	0.115886	-12.9926	-32.3094	17.1124
 498	1	9	0.123845	-12.5109	-32.5042	15.4229
 499	1	9	0.138418	-14.2043	-32.2982	15.8137
 500	1	6	0.21348	-14.8404	-27.548	16.443
 501	1	1	0.486064	3.3457	-40.3428	-3.10381
 502	1	2	0.047133	3.14063	-39.9484	-1.78832
 503	1	3	0.001076	1.78985	-39.3231	-1.80278
 504	1	2	0.034038	2.29883	-40.0644	-3.96674
 505	1	3	0.050122	1.29893	-39.3952	-3.09717
 506	1	5	-0.383076	3.89296	-40.07	-0.836768
 507	1	5	-0.380811	2.21033	-40.2989	-5.16063
 508	1	3	-0.001248	1.03971	-38.7594	-0.757955
 509	1	3	-0.036565	0.0435854	-38.8892	-3.42442
 510	1	3	-0.208842	-0.714166	-38.3016	-2.39588
 511	1	3	-0.065319	-0.248281	-38.2383	-1.04973
 512	1	6	0.153391	1.44398	-38.7663	0.250563
 513	1	6	0.155343	-0.337504	-38.9678	-4.44041
 514	1	6	0.174191	-1.70292	-37.9413	-2.66181
 515	1	7	-0.106637	-1.21186	-37.765	0.0747191
 516	1	7	0.445763	-1.98633	-36.4427	-0.349343
 517	1	8	-0.144255	-3.03844	-36.6328	-1.17497
 518	1	8	-0.136881	-1.17445	-35.5763	-0.997906
 519	1	8	-0.144092	-2.49314	-35.7857	0.719527
 520	1	7	0.367264	-2.26703	-38.9328	0.242055
 521	1	8	-0.12104	-2.96181	-39.2193	-0.881518
 522	1	8	-0.122614	-3.19016	-38.6564	1.19106
 523	1	8	-0.112321	-1.66038	-40.1006	0.557144
 524	1	3	-0.021957	-0.468216	-37.4478	1.43091
 525	1	3	-0.054241	-0.682383	-38.2191	2.6079
 526	1	3	-0.111709	-0.395292	-37.6708	3.86133
 527	1	3	-0.087244	0.244316	-36.2211	1.59062
 528	1	3	-0.118951	0.478164	-35.6598	2.86824
 529	1	3	-0.044875	0.0735654	-36.3848	3.99544
 530	1	2	0.461883	-0.287204	-35.9043	5.36528
 531	1	1	-0.007433	-1.0195	-36.9469	5.93447
 532	1	2	0.491356	-0.960362	-38.1006	5.16032
 533	1	3	-0.019445	-2.08906	-36.7642	6.8701
 534	1	3	-0.186861	-3.38144	-37.0721	6.39146
 535	1	3	-0.068374	-4.50857	-36.9753	7.20542
 536	1	3	-0.009193	-1.92976	-36.2905	8.1995
 537	1	3	0.220761	-3.09055	-36.1594	9.01396
 538	1	3	-0.402098	-4.35972	-36.5242	8.51492
 539	1	6	0.148422	-3.52185	-37.4167	5.3697
 540	1	6	0.146291	-5.48984	-37.2416	6.8161
 541	1	6	0.158981	0.83337	-34.6361	2.97211
 542	1	6	0.141813	0.477429	-35.6074	0.726714
 543	1	6	0.143633	-1.23	-39.153	2.61638
 544	1	5	-0.474465	-1.52973	-39.162	5.35101
 545	1	5	-0.469737	-0.23116	-34.7452	5.73894
 546	1	7	-0.37887	-0.539755	-35.905	8.71975
 547	1	9	0.115886	0.239804	-36.5547	8.304
 548	1	9	0.123845	-0.446842	-35.9862	9.8089
 549	1	9	0.138418	-0.291623	-34.8722	8.43828
 550	1	6	0.21348	-5.24295	-36.4281	9.14304
 551	1	6	0	11.6239	69.5562	-24.5651
 552	1	4	0	4.19875	-40.7923	-3.41356

Velocities

   1	5.15752e-05	-0.000495124	0.000826736
   2	-0.00012264	-0.000612759	0.000937546
   3	0.000213751	-0.000467911	0.00103505
   4	0.000317666	-0.000590886	0.000586918
   5	0.00073082	-0.000651915	0.000709048
   6	0.000151693	-0.000919773	0.00102462
   7	0.00034058	-0.000413335	0.000588563
   8	-9.70614e-05	-0.000164548	0.00117418
   9	0.00112383	-0.000819084	0.000549373
  10	0.000882573	-0.000721714	0.00062035
  11	0.000339298	-0.000419272	0.000868615
  12	-0.000630769	0.000374856	0.00135372
  13	0.00163763	-0.00100967	0.000316649
  14	0.00119746	-0.000919166	0.000494675
  15	0.000438446	-0.000538763	0.000659433
  16	0.000477538	-0.000742937	0.000740806
  17	0.000215645	0.000460511	0.000193153
  18	0.00125209	-0.00151848	8.83887e-05
  19	-0.000349722	-0.00113978	0.00158621
  20	0.000414099	-0.00096622	0.000795454
  21	0.00076123	-0.000782558	0.0013943
  22	0.000174274	-0.000756689	0.000269402
  23	0.000124457	-0.00151296	0.000893777
  24	0.000513645	-0.000483908	0.000702185
  25	0.000114896	-0.00046125	0.000447988
  26	1.67209e-05	-0.000417861	0.000354826
  27	0.000570471	-0.000497722	0.00059792
  28	0.000188515	-0.000727815	0.000485367
  29	7.68702e-06	-0.000597041	0.000591567
  30	-0.000315276	-0.000679482	0.000525509
  31	-0.000574728	-0.000642562	0.000120721
  32	-0.000506874	-0.000443401	-0.000401762
  33	-0.00100153	-0.000843452	-9.68731e-05
  34	-0.0010619	-0.000967582	5.55415e-05
  35	-0.000967714	-0.00111634	9.47946e-05
  36	-0.000923312	-0.000961824	0.000169714
  37	-0.00111145	-0.000873643	-6.07573e-05
  38	-0.00128193	-0.00135655	-0.000206488
  39	-0.000680115	-0.00063293	5.71287e-05
  40	-0.000453245	-0.000998336	-7.22084e-05
  41	6.22732e-05	-0.000878241	0.000243842
  42	0.000514256	-0.000450636	0.000387304
  43	2.3662e-05	-0.000346156	0.0002984
  44	-0.000879484	-0.000382168	-0.00146233
  45	-0.000266881	-0.00106824	0.000975547
  46	0.000208244	-0.000186721	0.000454292
  47	0.000551799	0.000227265	-5.14718e-05
  48	0.00067033	-3.77281e-05	0.000501013
  49	0.000260463	-0.000330987	0.00127316
  50	-0.00111356	-0.000909296	-2.4924e-05
  51	-0.000193778	-0.000143956	-0.000874763
  52	-0.000210369	-0.000162823	-0.00111512
  53	-7.60438e-06	-0.000207449	-0.000769408
  54	-2.49234e-05	-0.000136669	-0.000404174
  55	0.000109747	-0.000107387	-0.000276758
  56	-0.000290166	-3.85004e-05	-0.00135979
  57	-2.81666e-07	-0.000152512	-0.000290665
  58	2.04756e-05	-0.000301889	-0.000844333
  59	0.00032014	-2.76234e-05	0.00016122
  60	0.00036172	-2.00617e-06	0.000226507
  61	0.000246505	-0.00022543	-0.00017773
  62	-0.00014102	-0.000369171	-0.00143618
  63	0.000401728	4.58721e-05	0.000495771
  64	0.000437121	0.000148722	0.000642943
  65	3.17903e-05	-0.000433745	0.000293411
  66	-2.63526e-05	-0.000776298	0.000594971
  67	0.000347758	-0.00130804	-0.00161628
  68	-7.06409e-05	0.0012685	0.00162504
  69	-0.000256298	-0.00282692	0.00214942
  70	0.000423833	-0.000748425	0.000355929
  71	0.000952755	-0.00104937	0.000354885
  72	0.00020306	-0.000954291	0.000702929
  73	0.000497056	-0.000650793	-9.6396e-06
  74	-0.000256508	-0.000356731	0.00036374
  75	-0.000593982	-0.000318343	0.000403657
  76	-0.000523961	-0.00032435	0.000448478
  77	-0.00014211	-0.000400969	0.000425592
  78	-5.96324e-05	-0.00039938	0.000471369
  79	-0.00024282	-0.000397208	0.000521484
  80	-6.12693e-05	-0.000481835	0.000597629
  81	-3.8249e-05	-0.000501712	0.000571341
  82	-0.000433249	-0.000328483	0.000488216
  83	0.000104059	-0.000748054	0.000364439
  84	0.000321953	-0.00121364	-0.000620334
  85	0.000329508	-0.00142517	-0.00105169
  86	3.67903e-05	-0.000683423	0.000570563
  87	-3.33853e-05	-0.000745155	0.000417853
  88	0.000134739	-0.00101698	-0.000248653
  89	0.000387026	-0.00149007	-0.00119648
  90	0.00043018	-0.00174129	-0.00184531
  91	0.000210614	-0.000375541	0.000485543
  92	1.90427e-05	-0.000423329	0.000468905