pySIMM System Object

1052 atoms
1156 bonds
2016 angles
3104 dihedrals
336 impropers

9 atom types
11 bond types
18 angle types
7 dihedral types
4 improper types

-163.927743 163.927743 xlo xhi
-163.927743 163.927743 ylo yhi
-163.927743 163.927743 zlo zhi

Masses

   1	14.01	# n
   2	12.01	# c
   3	12.01	# ca
   4	1.008	# hn
   5	16.0	# o
   6	1.008	# ha
   7	12.01	# c3
   8	19.0	# f
   9	1.008	# hc

Pair Coeffs

   1	0.17	3.249998523775958	# n
   2	0.086	3.3996695084235347	# c
   3	0.086	3.3996695084235347	# ca
   4	0.0157	1.069078461768407	# hn
   5	0.21	2.959921901149463	# o
   6	0.015	2.59964245953351	# ha
   7	0.1094	3.3996695084235347	# c3
   8	0.061	3.1181455134911875	# f
   9	0.0157	2.649532787749369	# hc

Bond Coeffs

   1	427.6	1.3789	# c,n
   2	461.1	1.3984	# ca,ca
   3	345.9	1.4906	# c,ca
   4	345.8	1.086	# ca,ha
   5	637.7	1.2183	# c,o
   6	321.0	1.5156	# c3,ca
   7	300.9	1.5375	# c3,c3
   8	356.9	1.3497	# c3,f
   9	384.2	1.4121	# ca,n
  10	330.6	1.0969	# c3,hc
  11	403.2	1.0129	# hn,n

Angle Coeffs

   1	48.18	119.88	# ca,ca,ha
   2	63.15	112.07	# c3,c3,ca
   3	70.89	107.36	# f,c3,f
   4	67.87	120.19	# ca,ca,n
   5	68.72	122.6	# ca,c,o
   6	63.56	112.24	# ca,c3,ca
   7	63.82	123.71	# c,n,ca
   8	74.22	123.05	# n,c,o
   9	48.33	117.55	# c,n,hn
  10	67.68	115.25	# ca,c,n
  11	64.28	120.33	# c,ca,ca
  12	66.11	109.24	# c3,c3,f
  13	46.8	110.47	# ca,c3,hc
  14	39.4	107.58	# hc,c3,hc
  15	66.62	120.02	# ca,ca,ca
  16	63.53	120.77	# c3,ca,ca
  17	62.86	111.51	# c3,c3,c3
  18	63.74	127.08	# c,n,c

Dihedral Coeffs

   1	1	2.5	2	180	# X,c,n,X
   2	1	0.45	2	180	# X,ca,n,X
   3	2	2.5	2	180	2.0	1	0	# hn,n,c,o
   4	1	3.625	2	180	# X,ca,ca,X
   5	1	1.0	2	180	# X,c,ca,X
   6	1	0.15555555555555556	3	0	# X,c3,c3,X
   7	1	0.0	2	0	# X,c3,ca,X

Improper Coeffs

   1	1.1	-1	2	# ca,ca,ca,c3
   2	10.5	-1	2	# c,X,X,o
   3	1.1	-1	2	# ca,X,X,ha
   4	1.1	-1	2	# n,X,X,hn

Atoms

   1	1	1	0.486064	55.2464	14.2776	-3.50183
   2	1	2	0.047133	55.53	14.2687	-2.13419
   3	1	3	0.001076	57.0124	14.2531	-2.0413
   4	1	2	0.034038	56.3996	14.2461	-4.28739
   5	1	3	0.050122	57.5235	14.2573	-3.32274
   6	1	5	-0.383076	54.7507	14.2707	-1.19591
   7	1	5	-0.380811	56.4959	14.1866	-5.50236
   8	1	3	-0.001248	57.8447	14.2283	-0.914888
   9	1	3	-0.036565	58.8975	14.2658	-3.55815
  10	1	3	-0.208842	59.7533	14.2633	-2.44052
  11	1	3	-0.065319	59.2525	14.2386	-1.10737
  12	1	6	0.153391	57.3851	14.2006	0.0676839
  13	1	6	0.155343	59.284	14.2735	-4.57509
  14	1	6	0.174191	60.8262	14.2691	-2.62118
  15	1	7	-0.106637	60.2762	14.201	0.0633181
  16	1	7	0.445763	59.667	14.5571	1.47544
  17	1	8	-0.144255	58.9572	15.7073	1.45251
  18	1	8	-0.136881	60.6365	14.7346	2.40154
  19	1	8	-0.144092	58.8367	13.6061	1.95737
  20	1	7	0.367264	60.8431	12.729	0.118892
  21	1	8	-0.12104	59.8511	11.8153	0.216539
  22	1	8	-0.122614	61.6716	12.5198	1.16653
  23	1	8	-0.112321	61.5311	12.3999	-0.99801
  24	1	3	-0.021957	61.3487	15.2844	-0.247786
  25	1	3	-0.054241	62.7427	15.0148	-0.278034
  26	1	3	-0.111709	63.6209	16.0455	-0.634232
  27	1	3	-0.087244	60.911	16.6039	-0.557888
  28	1	3	-0.118951	61.8137	17.6317	-0.891395
  29	1	3	-0.044875	63.1734	17.3164	-0.929255
  30	1	2	0.461883	64.343	18.1505	-1.30896
  31	1	1	-0.007433	65.4362	17.301	-1.23688
  32	1	2	0.491356	65.0946	16.0218	-0.822051
  33	1	3	-0.019445	66.7535	17.691	-1.58859
  34	1	3	-0.186861	67.1035	17.7533	-2.95027
  35	1	3	-0.068374	68.3946	18.139	-3.33778
  36	1	3	-0.009193	67.7019	18.0226	-0.596964
  37	1	3	0.220761	68.9987	18.4055	-0.994607
  38	1	3	-0.402098	69.3427	18.4636	-2.35542
  39	1	6	0.148422	66.3687	17.5053	-3.71217
  40	1	6	0.146291	68.6554	18.1873	-4.39402
  41	1	6	0.158981	61.4678	18.6338	-1.13698
  42	1	6	0.141813	59.8495	16.8371	-0.56289
  43	1	6	0.143633	63.1596	14.0361	-0.0634757
  44	1	5	-0.474465	65.8219	15.0541	-0.681606
  45	1	5	-0.469737	64.3164	19.3206	-1.64942
  46	1	7	-0.37887	67.3339	17.9798	0.885862
  47	1	9	0.115886	67.08	16.9588	1.20016
  48	1	9	0.123845	66.4749	18.629	1.0992
  49	1	9	0.138418	68.1629	18.3188	1.51994
  50	1	6	0.21348	70.3463	18.7649	-2.64096
  51	1	1	0.486064	43.2009	18.1331	-12.8625
  52	1	2	0.047133	43.8943	19.3215	-12.6327
  53	1	3	0.001076	45.1676	18.901	-11.9868
  54	1	2	0.034038	43.9424	17.0	-12.528
  55	1	3	0.050122	45.1727	17.5247	-11.9023
  56	1	5	-0.383076	43.5074	20.4669	-12.7933
  57	1	5	-0.380811	43.6257	15.8244	-12.6134
  58	1	3	-0.001248	46.1843	19.6715	-11.4095
  59	1	3	-0.036565	46.1483	16.8416	-11.1817
  60	1	3	-0.208842	47.1482	17.6004	-10.5474
  61	1	3	-0.065319	47.2142	19.0204	-10.6748
  62	1	6	0.153391	46.126	20.7523	-11.4935
  63	1	6	0.155343	46.0945	15.7605	-11.0714
  64	1	6	0.174191	47.8535	17.0509	-9.93203
  65	1	7	-0.106637	48.3209	19.8432	-9.94532
  66	1	7	0.445763	49.0002	20.8849	-10.9228
  67	1	8	-0.144255	50.1711	21.3383	-10.422
  68	1	8	-0.136881	48.2504	21.9765	-11.1872
  69	1	8	-0.144092	49.269	20.3449	-12.1321
  70	1	7	0.367264	47.6227	20.6267	-8.76425
  71	1	8	-0.12104	46.6661	21.4913	-9.16893
  72	1	8	-0.122614	48.5063	21.3528	-8.04277
  73	1	8	-0.112321	46.9818	19.7816	-7.92479
  74	1	3	-0.021957	49.4384	18.8656	-9.43388
  75	1	3	-0.054241	49.6758	18.6091	-8.05267
  76	1	3	-0.111709	50.5785	17.6044	-7.68457
  77	1	3	-0.087244	50.184	18.0993	-10.38
  78	1	3	-0.118951	51.0969	17.0992	-9.98766
  79	1	3	-0.044875	51.2649	16.8638	-8.62173
  80	1	2	0.461883	52.0463	15.8161	-7.91118
  81	1	1	-0.007433	51.751	15.9857	-6.56582
  82	1	2	0.491356	50.8999	17.0572	-6.33885
  83	1	3	-0.019445	52.2017	15.0997	-5.55025
  84	1	3	-0.186861	51.3576	14.0411	-5.17289
  85	1	3	-0.068374	51.7729	13.102	-4.22254
  86	1	3	-0.009193	53.4811	15.2393	-4.96377
  87	1	3	0.220761	53.9249	14.2536	-4.04001
  88	1	3	-0.402098	53.0558	13.2019	-3.66964
  89	1	6	0.148422	50.3726	13.9433	-5.62216
  90	1	6	0.146291	51.1083	12.2897	-3.9323
  91	1	6	0.158981	51.622	16.4915	-10.7223
  92	1	6	0.141813	50.0066	18.2184	-11.4434
  93	1	6	0.143633	49.1535	19.1213	-7.25272
  94	1	5	-0.474465	50.4407	17.4394	-5.2772
  95	1	5	-0.469737	52.7232	14.9449	-8.42888
  96	1	7	-0.37887	54.3508	16.4437	-5.35169
  97	1	9	0.115886	55.1058	16.6886	-4.59615
  98	1	9	0.123845	53.7531	17.3546	-5.47789
  99	1	9	0.138418	54.8757	16.2511	-6.29814
 100	1	6	0.21348	53.3796	12.4601	-2.94173
 101	1	1	0.486064	31.1269	9.86537	-7.70773
 102	1	2	0.047133	32.4076	9.49778	-7.29754
 103	1	3	0.001076	33.3262	10.1622	-8.25636
 104	1	2	0.034038	31.1301	10.6697	-8.84525
 105	1	3	0.050122	32.5623	10.85	-9.1782
 106	1	5	-0.383076	32.7292	8.78806	-6.35944
 107	1	5	-0.380811	30.1806	11.1528	-9.44002
 108	1	3	-0.001248	34.7257	10.1727	-8.30151
 109	1	3	-0.036565	33.1494	11.5677	-10.2187
 110	1	3	-0.208842	34.5545	11.5854	-10.2885
 111	1	3	-0.065319	35.3664	10.9203	-9.32484
 112	1	6	0.153391	35.275	9.61549	-7.5494
 113	1	6	0.155343	32.5341	12.0933	-10.9457
 114	1	6	0.174191	35.0143	12.1366	-11.1059
 115	1	7	-0.106637	36.9116	11.025	-9.45758
 116	1	7	0.445763	37.7	10.7271	-8.12336
 117	1	8	-0.144255	37.1921	11.4095	-7.07282
 118	1	8	-0.136881	38.9975	11.0952	-8.22384
 119	1	8	-0.144092	37.6947	9.42197	-7.77175
 120	1	7	0.367264	37.3338	9.9649	-10.5446
 121	1	8	-0.12104	36.8652	8.73101	-10.2494
 122	1	8	-0.122614	38.6742	9.85166	-10.6796
 123	1	8	-0.112321	36.8311	10.2635	-11.7643
 124	1	3	-0.021957	37.2244	12.4999	-9.84942
 125	1	3	-0.054241	38.0143	12.8504	-10.9745
 126	1	3	-0.111709	38.1508	14.2029	-11.3053
 127	1	3	-0.087244	36.649	13.5522	-9.07905
 128	1	3	-0.118951	36.824	14.9098	-9.41592
 129	1	3	-0.044875	37.5759	15.2073	-10.555
 130	1	2	0.461883	37.9665	16.5182	-11.1449
 131	1	1	-0.007433	38.79	16.2014	-12.2163
 132	1	2	0.491356	38.9205	14.833	-12.4032
 133	1	3	-0.019445	39.6116	17.1222	-12.9173
 134	1	3	-0.186861	39.2338	17.5537	-14.2004
 135	1	3	-0.068374	40.1316	18.2766	-14.9985
 136	1	3	-0.009193	40.8921	17.4298	-12.4082
 137	1	3	0.220761	41.8365	18.0556	-13.2618
 138	1	3	-0.402098	41.4394	18.5012	-14.542
 139	1	6	0.148422	38.2521	17.3008	-14.5929
 140	1	6	0.146291	39.8317	18.6045	-15.9926
 141	1	6	0.158981	36.3862	15.7048	-8.81534
 142	1	6	0.141813	36.0364	13.3161	-8.21293
 143	1	6	0.143633	38.5097	12.1149	-11.6006
 144	1	5	-0.474465	39.5859	14.2472	-13.2389
 145	1	5	-0.469737	37.7142	17.6203	-10.6897
 146	1	7	-0.37887	41.2436	17.0299	-10.9638
 147	1	9	0.115886	42.0951	17.5876	-10.5573
 148	1	9	0.123845	41.4814	15.9596	-10.8956
 149	1	9	0.138418	40.4166	17.2404	-10.2745
 150	1	6	0.21348	42.155	19.0039	-15.1894
 151	1	1	0.486064	18.3131	16.5971	-0.147995
 152	1	2	0.047133	19.0396	15.6374	0.564436
 153	1	3	0.001076	20.2125	15.3143	-0.286647
 154	1	2	0.034038	18.9097	16.8988	-1.37794
 155	1	3	0.050122	20.1493	16.0821	-1.42761
 156	1	5	-0.383076	18.8543	15.2247	1.69666
 157	1	5	-0.380811	18.5571	17.7118	-2.21736
 158	1	3	-0.001248	21.2911	14.4619	-0.0293957
 159	1	3	-0.036565	21.1959	16.0834	-2.35343
 160	1	3	-0.208842	22.3077	15.2513	-2.09891
 161	1	3	-0.065319	22.3605	14.3902	-0.964726
 162	1	6	0.153391	21.2814	13.9039	0.89941
 163	1	6	0.155343	21.1584	16.7341	-3.22464
 164	1	6	0.174191	23.1405	15.279	-2.79903
 165	1	7	-0.106637	23.6139	13.485	-0.728938
 166	1	7	0.445763	24.6757	14.3983	-0.00783473
 167	1	8	-0.144255	25.2032	15.3002	-0.866126
 168	1	8	-0.136881	25.7043	13.7132	0.539006
 169	1	8	-0.144092	24.1217	15.1074	1.00252
 170	1	7	0.367264	23.2991	12.2295	0.169404
 171	1	8	-0.12104	23.0959	12.5324	1.47076
 172	1	8	-0.122614	24.3032	11.3236	0.152212
 173	1	8	-0.112321	22.1977	11.5831	-0.275366
 174	1	3	-0.021957	24.1326	12.9045	-2.08321
 175	1	3	-0.054241	25.4987	12.5612	-2.28036
 176	1	3	-0.111709	25.885	11.9548	-3.48262
 177	1	3	-0.087244	23.2089	12.57	-3.11516
 178	1	3	-0.118951	23.6252	12.0015	-4.33593
 179	1	3	-0.044875	24.9826	11.7111	-4.49493
 180	1	2	0.461883	25.6888	10.9966	-5.59069
 181	1	1	-0.007433	26.9826	10.7901	-5.12879
 182	1	2	0.491356	27.1892	11.3554	-3.87553
 183	1	3	-0.019445	27.905	9.92234	-5.78233
 184	1	3	-0.186861	27.5542	8.56203	-5.87019
 185	1	3	-0.068374	28.3815	7.64376	-6.52433
 186	1	3	-0.009193	29.1163	10.3817	-6.35725
 187	1	3	0.220761	29.938	9.44999	-7.04799
 188	1	3	-0.402098	29.5679	8.08907	-7.11651
 189	1	6	0.148422	26.6215	8.21237	-5.434
 190	1	6	0.146291	28.0936	6.5952	-6.58223
 191	1	6	0.158981	22.9095	11.7433	-5.11406
 192	1	6	0.141813	22.1449	12.7357	-2.9686
 193	1	6	0.143633	26.2509	12.6947	-1.51057
 194	1	5	-0.474465	28.1813	11.2803	-3.17159
 195	1	5	-0.469737	25.1842	10.5909	-6.6236
 196	1	7	-0.37887	29.5034	11.8654	-6.25035
 197	1	9	0.115886	28.9016	12.4755	-6.93645
 198	1	9	0.123845	30.5571	12.0605	-6.47774
 199	1	9	0.138418	29.3578	12.2533	-5.23611
 200	1	6	0.21348	30.2065	7.37544	-7.63339
 201	1	1	0.486064	6.65332	12.0707	9.06918
 202	1	2	0.047133	6.51461	13.4381	8.83267
 203	1	3	0.001076	7.10959	13.6619	7.4902
 204	1	2	0.034038	7.24146	11.3929	8.00228
 205	1	3	0.050122	7.54412	12.4473	7.00037
 206	1	5	-0.383076	6.09242	14.2986	9.58688
 207	1	5	-0.380811	7.54435	10.2129	7.92781
 208	1	3	-0.001248	7.32036	14.8583	6.79423
 209	1	3	-0.036565	8.21898	12.361	5.78127
 210	1	3	-0.208842	8.45514	13.556	5.07027
 211	1	3	-0.065319	8.02521	14.8223	5.55912
 212	1	6	0.153391	6.95959	15.7774	7.24336
 213	1	6	0.155343	8.57199	11.3997	5.41415
 214	1	6	0.174191	9.00249	13.4946	4.13207
 215	1	7	-0.106637	8.36252	16.0989	4.72651
 216	1	7	0.445763	7.44	16.0583	3.44742
 217	1	8	-0.144255	7.40846	17.2224	2.7613
 218	1	8	-0.136881	6.15861	15.7724	3.77309
 219	1	8	-0.144092	7.83426	15.1052	2.57334
 220	1	7	0.367264	8.10099	17.4459	5.5014
 221	1	8	-0.12104	8.58053	18.5174	4.82976
 222	1	8	-0.122614	8.72273	17.4604	6.70254
 223	1	8	-0.112321	6.78772	17.6805	5.72261
 224	1	3	-0.021957	9.88528	16.082	4.39724
 225	1	3	-0.054241	10.4131	16.5732	3.17159
 226	1	3	-0.111709	11.8039	16.5868	2.98753
 227	1	3	-0.087244	10.8019	15.6452	5.3958
 228	1	3	-0.118951	12.1952	15.6645	5.18937
 229	1	3	-0.044875	12.6692	16.1433	3.96581
 230	1	2	0.461883	14.0634	16.3739	3.50356
 231	1	1	-0.007433	13.948	16.9712	2.25531
 232	1	2	0.491356	12.6227	17.1195	1.86284
 233	1	3	-0.019445	15.0571	17.5213	1.54986
 234	1	3	-0.186861	15.1668	18.922	1.5177
 235	1	3	-0.068374	16.2696	19.5387	0.92227
 236	1	3	-0.009193	16.0594	16.7107	0.956401
 237	1	3	0.220761	17.208	17.3362	0.389149
 238	1	3	-0.402098	17.2886	18.7491	0.378938
 239	1	6	0.148422	14.3917	19.5401	1.96477
 240	1	6	0.146291	16.3412	20.625	0.900631
 241	1	6	0.158981	12.8886	15.3503	5.96721
 242	1	6	0.141813	10.4345	15.3076	6.36143
 243	1	6	0.143633	9.78187	16.9724	2.38374
 244	1	5	-0.474465	12.195	17.6484	0.851969
 245	1	5	-0.469737	15.0769	16.163	4.14681
 246	1	7	-0.37887	15.8737	15.1877	0.947567
 247	1	9	0.115886	16.2112	14.7536	1.89957
 248	1	9	0.123845	16.4297	14.6933	0.143153
 249	1	9	0.138418	14.8235	14.9043	0.808026
 250	1	6	0.21348	18.15	19.242	-0.0686067
 251	1	1	0.486064	-5.06964	5.56441	8.87857
 252	1	2	0.047133	-4.76868	4.94975	10.0939
 253	1	3	0.001076	-4.15045	6.01841	10.9169
 254	1	2	0.034038	-4.87874	6.9461	8.90473
 255	1	3	0.050122	-4.19157	7.19497	10.1963
 256	1	5	-0.383076	-4.7746	3.75963	10.3589
 257	1	5	-0.380811	-4.98808	7.74004	7.98387
 258	1	3	-0.001248	-3.40509	5.89398	12.096
 259	1	3	-0.036565	-3.44544	8.30455	10.5915
 260	1	3	-0.208842	-2.64061	8.18114	11.7409
 261	1	3	-0.065319	-2.60685	6.98984	12.5221
 262	1	6	0.153391	-3.40135	4.93081	12.5941
 263	1	6	0.155343	-3.42025	9.2001	9.97405
 264	1	6	0.174191	-1.99471	9.01881	11.9898
 265	1	7	-0.106637	-1.60573	6.91159	13.7156
 266	1	7	0.445763	-2.06938	7.96977	14.8005
 267	1	8	-0.144255	-1.32269	7.93894	15.9269
 268	1	8	-0.136881	-3.35492	7.77174	15.1708
 269	1	8	-0.144092	-2.01939	9.24688	14.361
 270	1	7	0.367264	-1.54377	5.49913	14.4342
 271	1	8	-0.12104	-2.69845	5.17463	15.0571
 272	1	8	-0.122614	-0.559927	5.45441	15.3599
 273	1	8	-0.112321	-1.27526	4.47557	13.5939
 274	1	3	-0.021957	-0.197668	7.18306	13.1008
 275	1	3	-0.054241	0.655079	8.2426	13.5167
 276	1	3	-0.111709	1.87455	8.43295	12.8476
 277	1	3	-0.087244	0.242569	6.35662	12.0256
 278	1	3	-0.118951	1.49547	6.52941	11.4075
 279	1	3	-0.044875	2.29361	7.58759	11.8413
 280	1	2	0.461883	3.60717	8.06338	11.3364
 281	1	1	-0.007433	3.86713	9.2353	12.0315
 282	1	2	0.491356	2.89537	9.50776	12.9879
 283	1	3	-0.019445	4.99878	10.0618	11.7788
 284	1	3	-0.186861	5.95979	10.195	12.7969
 285	1	3	-0.068374	7.11532	10.9585	12.5979
 286	1	3	-0.009193	5.18614	10.7171	10.5334
 287	1	3	0.220761	6.37555	11.4596	10.3242
 288	1	3	-0.402098	7.32586	11.5806	11.3615
 289	1	6	0.148422	5.80868	9.7016	13.7538
 290	1	6	0.146291	7.8486	11.0556	13.3969
 291	1	6	0.158981	1.82489	5.88236	10.5962
 292	1	6	0.141813	-0.396294	5.56404	11.6483
 293	1	6	0.143633	0.391859	8.92918	14.315
 294	1	5	-0.474465	2.84047	10.4508	13.7576
 295	1	5	-0.469737	4.29374	7.52458	10.4878
 296	1	7	-0.37887	4.13023	10.6232	9.4219
 297	1	9	0.115886	4.38689	9.82491	8.71004
 298	1	9	0.123845	4.03145	11.5614	8.86168
 299	1	9	0.138418	3.12872	10.4044	9.80944
 300	1	6	0.21348	8.23121	12.1622	11.2052
 301	1	1	0.486064	5.35063	5.07742	7.12709
 302	1	2	0.047133	5.46132	4.10458	6.12804
 303	1	3	0.001076	4.41297	4.44543	5.13449
 304	1	2	0.034038	4.42195	6.06865	6.80355
 305	1	3	0.050122	3.81217	5.6215	5.53008
 306	1	5	-0.383076	6.19926	3.13385	6.0846
 307	1	5	-0.380811	4.09726	7.0584	7.43827
 308	1	3	-0.001248	3.95937	3.72147	4.02483
 309	1	3	-0.036565	2.74933	6.17052	4.81471
 310	1	3	-0.208842	2.2818	5.46468	3.68969
 311	1	3	-0.065319	2.8466	4.21815	3.29324
 312	1	6	0.153391	4.45294	2.786	3.784
 313	1	6	0.155343	2.28584	7.09842	5.1419
 314	1	6	0.174191	1.4469	5.88804	3.13623
 315	1	7	-0.106637	2.2174	3.46635	2.08362
 316	1	7	0.445763	2.79338	4.14707	0.783605
 317	1	8	-0.144255	2.43624	5.44828	0.689731
 318	1	8	-0.136881	2.38522	3.53805	-0.352826
 319	1	8	-0.144092	4.1453	4.14372	0.768708
 320	1	7	0.367264	2.56064	1.92475	2.0382
 321	1	8	-0.12104	3.84921	1.6643	1.72417
 322	1	8	-0.122614	1.80433	1.27998	1.12196
 323	1	8	-0.112321	2.32966	1.3102	3.21949
 324	1	3	-0.021957	0.667684	3.5906	2.23504
 325	1	3	-0.054241	0.0731164	3.17967	3.45757
 326	1	3	-0.111709	-1.29445	3.39202	3.66338
 327	1	3	-0.087244	-0.1775	4.1801	1.24853
 328	1	3	-0.118951	-1.54634	4.42156	1.49398
 329	1	3	-0.044875	-2.07689	4.02838	2.72617
 330	1	2	0.461883	-3.4243	4.25285	3.31874
 331	1	1	-0.007433	-3.35683	3.73665	4.60743
 332	1	2	0.491356	-2.12712	3.13876	4.86645
 333	1	3	-0.019445	-4.39165	3.90373	5.57715
 334	1	3	-0.186861	-5.63766	3.29284	5.34693
 335	1	3	-0.068374	-6.68559	3.43069	6.26634
 336	1	3	-0.009193	-4.19294	4.69388	6.73888
 337	1	3	0.220761	-5.25919	4.82802	7.67371
 338	1	3	-0.402098	-6.49439	4.18901	7.42936
 339	1	6	0.148422	-5.79611	2.7053	4.4459
 340	1	6	0.146291	-7.6401	2.94099	6.07937
 341	1	6	0.158981	-2.17192	4.92638	0.760207
 342	1	6	0.141813	0.213526	4.50464	0.291068
 343	1	6	0.143633	0.665641	2.75485	4.26386
 344	1	5	-0.474465	-1.75312	2.58205	5.88372
 345	1	5	-0.469737	-4.34641	4.85648	2.79771
 346	1	7	-0.37887	-2.82289	5.36797	6.9564
 347	1	9	0.115886	-2.81301	6.16771	7.69894
 348	1	9	0.123845	-2.46081	5.83393	6.03158
 349	1	9	0.138418	-2.07422	4.6373	7.28742
 350	1	6	0.21348	-7.3015	4.26733	8.15448
 351	1	1	0.486064	-0.598227	0.984882	18.5912
 352	1	2	0.047133	0.287038	-0.100728	18.5611
 353	1	3	0.001076	1.45003	0.356505	17.7536
 354	1	2	0.034038	-0.125782	2.06035	17.8277
 355	1	3	0.050122	1.22246	1.65525	17.3631
 356	1	5	-0.383076	0.247842	-1.1332	19.2087
 357	1	5	-0.380811	-0.630165	3.15935	17.6608
 358	1	3	-0.001248	2.67085	-0.282057	17.5048
 359	1	3	-0.036565	2.24243	2.42567	16.8025
 360	1	3	-0.208842	3.50383	1.82149	16.6159
 361	1	3	-0.065319	3.72973	0.438114	16.876
 362	1	6	0.153391	2.77328	-1.30108	17.857
 363	1	6	0.155343	2.07498	3.47701	16.5774
 364	1	6	0.174191	4.31512	2.44714	16.2498
 365	1	7	-0.106637	5.15168	-0.190895	16.6427
 366	1	7	0.445763	5.09471	-1.76798	16.5819
 367	1	8	-0.144255	6.24823	-2.33057	16.1586
 368	1	8	-0.136881	4.13931	-2.18032	15.7192
 369	1	8	-0.144092	4.84309	-2.33879	17.7817
 370	1	7	0.367264	6.01029	0.260412	17.8878
 371	1	8	-0.12104	6.40309	1.54882	17.7637
 372	1	8	-0.122614	7.12796	-0.474259	18.0816
 373	1	8	-0.112321	5.31058	0.183252	19.0433
 374	1	3	-0.021957	5.82829	0.300544	15.3107
 375	1	3	-0.054241	5.10338	0.963144	14.2806
 376	1	3	-0.111709	5.80385	1.54376	13.2126
 377	1	3	-0.087244	7.23009	0.120848	15.1044
 378	1	3	-0.118951	7.89881	0.621938	13.9701
 379	1	3	-0.044875	7.15781	1.36013	13.0473
 380	1	2	0.461883	7.60681	2.15473	11.8743
 381	1	1	-0.007433	6.48506	2.85717	11.4483
 382	1	2	0.491356	5.35175	2.52791	12.1913
 383	1	3	-0.019445	6.56249	3.92936	10.5056
 384	1	3	-0.186861	7.40939	5.00817	10.8271
 385	1	3	-0.068374	7.57402	6.08639	9.95151
 386	1	3	-0.009193	5.8588	3.9306	9.27275
 387	1	3	0.220761	6.03935	5.02486	8.37645
 388	1	3	-0.402098	6.89286	6.09267	8.7301
 389	1	6	0.148422	7.95754	5.00874	11.7657
 390	1	6	0.146291	8.22551	6.91602	10.2216
 391	1	6	0.158981	8.97255	0.496834	13.8443
 392	1	6	0.141813	7.83484	-0.410399	15.8305
 393	1	6	0.143633	4.02806	1.10145	14.3237
 394	1	5	-0.474465	4.24987	3.05058	12.1568
 395	1	5	-0.469737	8.75649	2.259	11.4813
 396	1	7	-0.37887	4.95039	2.74625	8.90037
 397	1	9	0.115886	4.12347	3.03834	8.24362
 398	1	9	0.123845	4.46735	2.27866	9.76066
 399	1	9	0.138418	5.52687	1.96516	8.38582
 400	1	6	0.21348	7.00652	6.94928	8.06712
 401	1	1	0.486064	-10.4761	-8.10559	20.2226
 402	1	2	0.047133	-9.60342	-7.02522	20.2894
 403	1	3	0.001076	-9.95737	-6.33024	21.5389
 404	1	2	0.034038	-11.2535	-8.25429	21.374
 405	1	3	0.050122	-10.9182	-7.06066	22.2045
 406	1	5	-0.383076	-8.8415	-6.60933	19.4321
 407	1	5	-0.380811	-12.162	-9.04421	21.5726
 408	1	3	-0.001248	-9.59397	-5.04584	21.9323
 409	1	3	-0.036565	-11.5259	-6.54939	23.3572
 410	1	3	-0.208842	-11.1385	-5.26312	23.8039
 411	1	3	-0.065319	-10.1791	-4.48447	23.0931
 412	1	6	0.153391	-8.91658	-4.48503	21.2934
 413	1	6	0.155343	-12.3146	-7.10916	23.8557
 414	1	6	0.174191	-11.6478	-4.85514	24.6722
 415	1	7	-0.106637	-9.86086	-3.00307	23.4451
 416	1	7	0.445763	-9.93624	-2.69834	24.9913
 417	1	8	-0.144255	-9.33865	-3.66489	25.7234
 418	1	8	-0.136881	-11.1963	-2.58559	25.4678
 419	1	8	-0.144092	-9.30911	-1.53895	25.2946
 420	1	7	0.367264	-10.9414	-2.13667	22.6932
 421	1	8	-0.12104	-12.2044	-2.52765	22.9799
 422	1	8	-0.122614	-10.8264	-2.25369	21.3505
 423	1	8	-0.112321	-10.8625	-0.822304	23.0003
 424	1	3	-0.021957	-8.39708	-2.70017	22.9873
 425	1	3	-0.054241	-8.0512	-1.63252	22.1121
 426	1	3	-0.111709	-6.71344	-1.47625	21.7225
 427	1	3	-0.087244	-7.35098	-3.55128	23.4453
 428	1	3	-0.118951	-6.00922	-3.36365	23.0565
 429	1	3	-0.044875	-5.71903	-2.31156	22.184
 430	1	2	0.461883	-4.40959	-1.80331	21.6912
 431	1	1	-0.007433	-4.70539	-0.648957	20.9772
 432	1	2	0.491356	-6.07332	-0.412696	20.9022
 433	1	3	-0.019445	-3.72458	0.329858	20.6448
 434	1	3	-0.186861	-3.7495	1.51366	21.4018
 435	1	3	-0.068374	-2.78164	2.5	21.2193
 436	1	3	-0.009193	-2.72069	0.126272	19.6611
 437	1	3	0.220761	-1.70477	1.11607	19.499
 438	1	3	-0.402098	-1.7581	2.28905	20.2929
 439	1	6	0.148422	-4.52754	1.66993	22.1453
 440	1	6	0.146291	-2.81676	3.41614	21.8062
 441	1	6	0.158981	-5.21489	-4.00533	23.4321
 442	1	6	0.141813	-7.57938	-4.37953	24.1108
 443	1	6	0.143633	-8.77716	-0.919652	21.7347
 444	1	5	-0.474465	-6.64192	0.545988	20.4094
 445	1	5	-0.469737	-3.31184	-2.22759	22.0085
 446	1	7	-0.37887	-2.7677	-1.14993	18.8117
 447	1	9	0.115886	-3.79744	-1.43886	18.5682
 448	1	9	0.123845	-2.30662	-1.98914	19.3519
 449	1	9	0.138418	-2.24538	-1.04891	17.8539
 450	1	6	0.21348	-1.00307	3.0643	20.1771
 451	1	1	0.486064	-7.63223	-1.72899	11.2375
 452	1	2	0.047133	-8.49022	-2.68176	11.7931
 453	1	3	0.001076	-9.85358	-2.12198	11.6294
 454	1	2	0.034038	-8.32433	-0.650677	10.6793
 455	1	3	0.050122	-9.75356	-0.910495	10.9833
 456	1	5	-0.383076	-8.2078	-3.68289	12.4296
 457	1	5	-0.380811	-7.87435	0.359887	10.164
 458	1	3	-0.001248	-11.0672	-2.58765	12.1427
 459	1	3	-0.036565	-10.8672	-0.0837147	10.8305
 460	1	3	-0.208842	-12.0978	-0.522068	11.363
 461	1	3	-0.065319	-12.2302	-1.77646	12.0259
 462	1	6	0.153391	-11.0551	-3.53916	12.6609
 463	1	6	0.155343	-10.7651	0.893485	10.3642
 464	1	6	0.174191	-12.9396	0.158351	11.287
 465	1	7	-0.106637	-13.5805	-2.18134	12.6942
 466	1	7	0.445763	-13.8284	-1.21292	13.9251
 467	1	8	-0.144255	-12.7268	-1.06899	14.6945
 468	1	8	-0.136881	-14.8253	-1.66482	14.7179
 469	1	8	-0.144092	-14.1426	0.0575046	13.589
 470	1	7	0.367264	-14.7776	-2.00797	11.666
 471	1	8	-0.12104	-14.4772	-2.54793	10.4629
 472	1	8	-0.122614	-15.1268	-0.735817	11.3778
 473	1	8	-0.112321	-15.911	-2.59106	12.1185
 474	1	3	-0.021957	-13.5031	-3.6805	13.1854
 475	1	3	-0.054241	-12.8271	-4.02029	14.3917
 476	1	3	-0.111709	-12.6944	-5.36296	14.7597
 477	1	3	-0.087244	-14.0182	-4.77318	12.4164
 478	1	3	-0.118951	-13.9033	-6.11856	12.8276
 479	1	3	-0.044875	-13.2285	-6.38911	14.0176
 480	1	2	0.461883	-12.8875	-7.68117	14.6799
 481	1	1	-0.007433	-12.1422	-7.33447	15.8004
 482	1	2	0.491356	-11.957	-5.95635	15.8967
 483	1	3	-0.019445	-11.5395	-8.25599	16.7085
 484	1	3	-0.186861	-10.6629	-9.23749	16.2076
 485	1	3	-0.068374	-9.84733	-9.98035	17.0736
 486	1	3	-0.009193	-11.6561	-8.06895	18.106
 487	1	3	0.220761	-10.7253	-8.70798	18.9601
 488	1	3	-0.402098	-9.83784	-9.67663	18.4431
 489	1	6	0.148422	-10.5794	-9.39637	15.1349
 490	1	6	0.146291	-9.15093	-10.7129	16.6672
 491	1	6	0.158981	-14.3045	-6.93024	12.2239
 492	1	6	0.141813	-14.5204	-4.61707	11.4717
 493	1	6	0.143633	-12.3453	-3.28632	15.0258
 494	1	5	-0.474465	-11.2809	-5.32944	16.694
 495	1	5	-0.469737	-13.1715	-8.79656	14.2777
 496	1	7	-0.37887	-12.7169	-7.12097	18.6905
 497	1	9	0.115886	-12.2848	-6.152	18.9744
 498	1	9	0.123845	-13.1955	-7.55412	19.578
 499	1	9	0.138418	-13.5384	-6.92894	17.9907
 500	1	6	0.21348	-9.09473	-10.139	19.0887
 501	1	1	0.486064	-0.457225	-12.5869	10.385
 502	1	2	0.047133	-0.358431	-11.3324	9.78324
 503	1	3	0.001076	0.679454	-10.6176	10.558
 504	1	2	0.034038	0.425948	-12.7374	11.4609
 505	1	3	0.050122	1.16033	-11.4525	11.5414
 506	1	5	-0.383076	-1.03704	-10.8577	8.88584
 507	1	5	-0.380811	0.504664	-13.6501	12.2662
 508	1	3	-0.001248	1.04696	-9.27667	10.4951
 509	1	3	-0.036565	2.09833	-11.0082	12.4767
 510	1	3	-0.208842	2.48803	-9.65238	12.4316
 511	1	3	-0.065319	1.92619	-8.75416	11.4785
 512	1	6	0.153391	0.552525	-8.63755	9.76822
 513	1	6	0.155343	2.46153	-11.6797	13.2523
 514	1	6	0.174191	3.17528	-9.3069	13.198
 515	1	7	-0.106637	2.04848	-7.20647	11.5768
 516	1	7	0.445763	2.85622	-6.71602	10.3126
 517	1	8	-0.144255	3.17865	-5.40425	10.3479
 518	1	8	-0.136881	2.17134	-6.9074	9.16383
 519	1	8	-0.144092	4.01711	-7.39708	10.1805
 520	1	7	0.367264	2.77389	-6.69156	12.8777
 521	1	8	-0.12104	4.08048	-7.03574	12.923
 522	1	8	-0.122614	2.19554	-7.1661	14.0044
 523	1	8	-0.112321	2.7177	-5.34487	12.9849
 524	1	3	-0.021957	0.581419	-6.68677	11.6526
 525	1	3	-0.054241	0.135738	-5.50857	10.9982
 526	1	3	-0.111709	-1.20821	-5.12842	11.141
 527	1	3	-0.087244	-0.356803	-7.41084	12.4478
 528	1	3	-0.118951	-1.7031	-7.02361	12.5579
 529	1	3	-0.044875	-2.102	-5.8706	11.8842
 530	1	2	0.461883	-3.38894	-5.13723	11.9545
 531	1	1	-0.007433	-3.17172	-3.94157	11.2845
 532	1	2	0.491356	-1.90105	-3.88204	10.7201
 533	1	3	-0.019445	-4.02653	-2.81184	11.4417
 534	1	3	-0.186861	-3.49553	-1.70887	12.136
 535	1	3	-0.068374	-4.29727	-0.61598	12.4715
 536	1	3	-0.009193	-5.39162	-2.81804	11.0539
 537	1	3	0.220761	-6.21942	-1.73004	11.447
 538	1	3	-0.402098	-5.65592	-0.638751	12.1461
 539	1	6	0.148422	-2.45014	-1.70184	12.435
 540	1	6	0.146291	-3.87279	0.229279	13.0102
 541	1	6	0.158981	-2.40188	-7.56918	13.1892
 542	1	6	0.141813	-0.0410488	-8.28762	13.0079
 543	1	6	0.143633	0.80361	-4.87373	10.4236
 544	1	5	-0.474465	-1.37801	-2.94094	10.152
 545	1	5	-0.469737	-4.37089	-5.48156	12.5882
 546	1	7	-0.37887	-5.95353	-3.99145	10.2402
 547	1	9	0.115886	-5.19385	-4.44018	9.58966
 548	1	9	0.123845	-6.77747	-3.68756	9.5832
 549	1	9	0.138418	-6.33264	-4.77903	10.9066
 550	1	6	0.21348	-6.28077	0.203749	12.4375
 551	1	1	0.486064	-7.4576	-19.731	13.0911
 552	1	2	0.047133	-6.97324	-20.3709	11.9506
 553	1	3	0.001076	-5.79327	-21.1425	12.4108
 554	1	2	0.034038	-6.76706	-20.1031	14.2464
 555	1	3	0.050122	-5.67904	-21.0029	13.7764
 556	1	5	-0.383076	-7.36749	-20.2749	10.8
 557	1	5	-0.380811	-6.95285	-19.7288	15.3925
 558	1	3	-0.001248	-4.82154	-21.8047	11.6584
 559	1	3	-0.036565	-4.61237	-21.5817	14.4718
 560	1	3	-0.208842	-3.63091	-22.2819	13.7329
 561	1	3	-0.065319	-3.69498	-22.3734	12.3121
 562	1	6	0.153391	-4.91224	-21.7957	10.5756
 563	1	6	0.155343	-4.52609	-21.4518	15.5487
 564	1	6	0.174191	-2.79559	-22.6998	14.2862
 565	1	7	-0.106637	-2.5278	-22.9115	11.4251
 566	1	7	0.445763	-3.05099	-24.2008	10.6788
 567	1	8	-0.144255	-4.03765	-23.9284	9.79619
 568	1	8	-0.136881	-3.57173	-25.093	11.5506
 569	1	8	-0.144092	-2.08954	-24.8455	9.98131
 570	1	7	0.367264	-1.21134	-23.2872	12.2109
 571	1	8	-0.12104	-0.190939	-23.5611	11.3666
 572	1	8	-0.122614	-0.762052	-22.2805	12.9937
 573	1	8	-0.112321	-1.36628	-24.3659	13.0106
 574	1	3	-0.021957	-2.16759	-21.7235	10.4906
 575	1	3	-0.054241	-2.02254	-20.4488	11.0914
 576	1	3	-0.111709	-1.87654	-19.327	10.2811
 577	1	3	-0.087244	-2.07304	-21.8153	9.07189
 578	1	3	-0.118951	-1.9316	-20.66	8.26889
 579	1	3	-0.044875	-1.86054	-19.4153	8.90647
 580	1	2	0.461883	-1.877	-18.0279	8.35944
 581	1	1	-0.007433	-1.9267	-17.2019	9.47439
 582	1	2	0.491356	-1.88406	-17.9011	10.6674
 583	1	3	-0.019445	-2.15423	-15.8053	9.45655
 584	1	3	-0.186861	-3.48049	-15.3635	9.32719
 585	1	3	-0.068374	-3.80039	-14.0182	9.51963
 586	1	3	-0.009193	-1.11309	-14.8964	9.74549
 587	1	3	0.220761	-1.44648	-13.5413	10.0042
 588	1	3	-0.402098	-2.79254	-13.1193	9.88822
 589	1	6	0.148422	-4.27196	-16.0723	9.09661
 590	1	6	0.146291	-4.82977	-13.6868	9.40647
 591	1	6	0.158981	-1.92741	-20.7244	7.18259
 592	1	6	0.141813	-2.15802	-22.7717	8.56691
 593	1	6	0.143633	-2.09997	-20.3096	12.1676
 594	1	5	-0.474465	-1.96755	-17.4646	11.8026
 595	1	5	-0.469737	-1.9452	-17.7095	7.18567
 596	1	7	-0.37887	0.333299	-15.41	9.78628
 597	1	9	0.115886	1.06836	-14.6326	9.54796
 598	1	9	0.123845	0.501552	-16.2114	9.05647
 599	1	9	0.138418	0.576329	-15.8091	10.7814
 600	1	6	0.21348	-3.05327	-12.0786	10.0641
 601	1	1	0.486064	-2.87101	-10.4816	6.18584
 602	1	2	0.047133	-3.82387	-11.2263	6.88317
 603	1	3	0.001076	-4.37146	-10.3022	7.91163
 604	1	2	0.034038	-2.77741	-9.16692	6.64106
 605	1	3	0.050122	-3.7594	-9.07597	7.75194
 606	1	5	-0.383076	-4.16561	-12.382	6.6978
 607	1	5	-0.380811	-2.03909	-8.27641	6.25126
 608	1	3	-0.001248	-5.29494	-10.5385	8.94137
 609	1	3	-0.036565	-4.06948	-8.00209	8.58589
 610	1	3	-0.208842	-5.01966	-8.20949	9.60635
 611	1	3	-0.065319	-5.63819	-9.47676	9.82229
 612	1	6	0.153391	-5.70212	-11.5372	9.05501
 613	1	6	0.155343	-3.57274	-7.04325	8.45497
 614	1	6	0.174191	-5.22932	-7.3703	10.2638
 615	1	7	-0.106637	-6.56691	-9.69888	11.0602
 616	1	7	0.445763	-5.6272	-9.68959	12.3313
 617	1	8	-0.144255	-4.7723	-10.7388	12.3075
 618	1	8	-0.136881	-6.31902	-9.72951	13.4929
 619	1	8	-0.144092	-4.83486	-8.59979	12.4173
 620	1	7	0.367264	-7.63103	-8.54017	11.1953
 621	1	8	-0.12104	-8.6561	-8.89591	12.0036
 622	1	8	-0.122614	-8.17173	-8.22486	9.99669
 623	1	8	-0.112321	-7.13937	-7.38973	11.7028
 624	1	3	-0.021957	-7.38901	-11.032	10.9459
 625	1	3	-0.054241	-7.38916	-12.0212	11.9688
 626	1	3	-0.111709	-8.20158	-13.1492	11.8411
 627	1	3	-0.087244	-8.24419	-11.254	9.82554
 628	1	3	-0.118951	-9.0545	-12.4091	9.7129
 629	1	3	-0.044875	-9.01248	-13.3515	10.7479
 630	1	2	0.461883	-9.6787	-14.6797	10.9091
 631	1	1	-0.007433	-9.17963	-15.2017	12.0984
 632	1	2	0.491356	-8.32267	-14.3209	12.7412
 633	1	3	-0.019445	-9.37816	-16.5366	12.5565
 634	1	3	-0.186861	-10.5941	-16.8709	13.1782
 635	1	3	-0.068374	-10.7792	-18.138	13.7466
 636	1	3	-0.009193	-8.32885	-17.4886	12.4803
 637	1	3	0.220761	-8.512	-18.7683	13.074
 638	1	3	-0.402098	-9.73925	-19.0773	13.703
 639	1	6	0.148422	-11.3924	-16.1355	13.2444
 640	1	6	0.146291	-11.718	-18.3796	14.2436
 641	1	6	0.158981	-9.69381	-12.5714	8.8468
 642	1	6	0.141813	-8.28152	-10.5224	9.02274
 643	1	6	0.143633	-6.78608	-11.9583	12.8666
 644	1	5	-0.474465	-7.70158	-14.4959	13.7752
 645	1	5	-0.469737	-10.4331	-15.2135	10.1146
 646	1	7	-0.37887	-6.99934	-17.0887	11.8139
 647	1	9	0.115886	-6.31901	-16.6268	12.542