pySIMM System Object

2500 atoms
2749 bonds
4796 angles
7388 dihedrals
800 impropers

9 atom types
11 bond types
18 angle types
7 dihedral types
4 improper types

-220.990949 220.990949 xlo xhi
-220.990949 220.990949 ylo yhi
-220.990949 220.990949 zlo zhi

Masses

   1	14.01	# n
   2	12.01	# c
   3	12.01	# ca
   4	1.008	# hn
   5	16.0	# o
   6	1.008	# ha
   7	12.01	# c3
   8	19.0	# f
   9	1.008	# hc

Pair Coeffs

   1	0.17	3.249998523775958	# n
   2	0.086	3.3996695084235347	# c
   3	0.086	3.3996695084235347	# ca
   4	0.0157	1.069078461768407	# hn
   5	0.21	2.959921901149463	# o
   6	0.015	2.59964245953351	# ha
   7	0.1094	3.3996695084235347	# c3
   8	0.061	3.1181455134911875	# f
   9	0.0157	2.649532787749369	# hc

Bond Coeffs

   1	427.6	1.3789	# c,n
   2	461.1	1.3984	# ca,ca
   3	345.9	1.4906	# c,ca
   4	345.8	1.086	# ca,ha
   5	637.7	1.2183	# c,o
   6	321.0	1.5156	# c3,ca
   7	300.9	1.5375	# c3,c3
   8	356.9	1.3497	# c3,f
   9	384.2	1.4121	# ca,n
  10	330.6	1.0969	# c3,hc
  11	403.2	1.0129	# hn,n

Angle Coeffs

   1	48.18	119.88	# ca,ca,ha
   2	63.15	112.07	# c3,c3,ca
   3	70.89	107.36	# f,c3,f
   4	67.87	120.19	# ca,ca,n
   5	68.72	122.6	# ca,c,o
   6	63.56	112.24	# ca,c3,ca
   7	63.82	123.71	# c,n,ca
   8	74.22	123.05	# n,c,o
   9	48.33	117.55	# c,n,hn
  10	67.68	115.25	# ca,c,n
  11	64.28	120.33	# c,ca,ca
  12	66.11	109.24	# c3,c3,f
  13	46.8	110.47	# ca,c3,hc
  14	39.4	107.58	# hc,c3,hc
  15	66.62	120.02	# ca,ca,ca
  16	63.53	120.77	# c3,ca,ca
  17	62.86	111.51	# c3,c3,c3
  18	63.74	127.08	# c,n,c

Dihedral Coeffs

   1	1	2.5	2	180	# X,c,n,X
   2	1	0.45	2	180	# X,ca,n,X
   3	2	2.5	2	180	2.0	1	0	# hn,n,c,o
   4	1	3.625	2	180	# X,ca,ca,X
   5	1	1.0	2	180	# X,c,ca,X
   6	1	0.15555555555555556	3	0	# X,c3,c3,X
   7	1	0.0	2	0	# X,c3,ca,X

Improper Coeffs

   1	1.1	-1	2	# ca,ca,ca,c3
   2	10.5	-1	2	# c,X,X,o
   3	1.1	-1	2	# ca,X,X,ha
   4	1.1	-1	2	# n,X,X,hn

Atoms

   1	1	1	0.486064	9.88182	0.925133	-99.693
   2	1	2	0.047133	9.58223	-0.435562	-99.727
   3	1	3	0.001076	10.695	-1.05726	-100.487
   4	1	2	0.034038	11.0444	1.24307	-100.391
   5	1	3	0.050122	11.5611	-0.0593136	-100.884
   6	1	5	-0.383076	8.66506	-1.02224	-99.1777
   7	1	5	-0.380811	11.5799	2.33186	-100.515
   8	1	3	-0.001248	10.9528	-2.40781	-100.746
   9	1	3	-0.036565	12.7326	-0.356079	-101.583
  10	1	3	-0.208842	13.015	-1.7117	-101.851
  11	1	3	-0.065319	12.1518	-2.76017	-101.423
  12	1	6	0.153391	10.2345	-3.14098	-100.394
  13	1	6	0.155343	13.4094	0.439344	-101.888
  14	1	6	0.174191	13.9337	-1.94926	-102.384
  15	1	7	-0.106637	12.5611	-4.23582	-101.714
  16	1	7	0.445763	11.7543	-5.29791	-100.874
  17	1	8	-0.144255	11.7648	-5.00206	-99.5543
  18	1	8	-0.136881	12.2898	-6.53549	-100.981
  19	1	8	-0.144092	10.4597	-5.4008	-101.25
  20	1	7	0.367264	12.2867	-4.47876	-103.247
  21	1	8	-0.12104	11.052	-4.05474	-103.601
  22	1	8	-0.122614	12.3635	-5.77899	-103.609
  23	1	8	-0.112321	13.158	-3.80001	-104.027
  24	1	3	-0.021957	14.0537	-4.41377	-101.308
  25	1	3	-0.054241	14.9736	-5.18242	-102.071
  26	1	3	-0.111709	16.2896	-5.31702	-101.608
  27	1	3	-0.087244	14.5089	-3.83493	-100.089
  28	1	3	-0.118951	15.8372	-3.98271	-99.6424
  29	1	3	-0.044875	16.7118	-4.73354	-100.432
  30	1	2	0.461883	18.1406	-5.08687	-100.218
  31	1	1	-0.007433	18.4897	-5.88308	-101.299
  32	1	2	0.491356	17.437	-6.06644	-102.186
  33	1	3	-0.019445	19.7759	-6.46408	-101.463
  34	1	3	-0.186861	20.8503	-5.65068	-101.871
  35	1	3	-0.068374	22.1349	-6.19207	-102.036
  36	1	3	-0.009193	19.9913	-7.83654	-101.207
  37	1	3	0.220761	21.2821	-8.37133	-101.379
  38	1	3	-0.402098	22.3483	-7.55728	-101.792
  39	1	6	0.148422	20.6906	-4.59158	-102.057
  40	1	6	0.146291	22.9593	-5.55388	-102.349
  41	1	6	0.158981	16.1739	-3.53994	-98.707
  42	1	6	0.141813	13.8212	-3.26576	-99.4683
  43	1	6	0.143633	14.6957	-5.68281	-102.993
  44	1	5	-0.474465	17.4268	-6.70927	-103.222
  45	1	5	-0.469737	18.8358	-4.74529	-99.2766
  46	1	7	-0.37887	18.8598	-8.74554	-100.735
  47	1	9	0.115886	18.1031	-8.87426	-101.519
  48	1	9	0.123845	18.3675	-8.33926	-99.8421
  49	1	9	0.138418	19.2332	-9.74421	-100.474
  50	1	6	0.21348	23.3368	-7.99062	-101.914
  51	1	1	0.486064	11.1625	5.56689	-84.5727
  52	1	2	0.047133	11.1745	4.24754	-85.018
  53	1	3	0.001076	10.4205	4.26306	-86.2956
  54	1	2	0.034038	10.4844	6.42516	-85.4363
  55	1	3	0.050122	10.0115	5.55666	-86.5461
  56	1	5	-0.383076	11.6826	3.2735	-84.4891
  57	1	5	-0.380811	10.2855	7.62203	-85.311
  58	1	3	-0.001248	10.1072	3.20725	-87.157
  59	1	3	-0.036565	9.26183	5.86778	-87.683
  60	1	3	-0.208842	8.93847	4.81811	-88.5694
  61	1	3	-0.065319	9.35648	3.47768	-88.3333
  62	1	6	0.153391	10.445	2.21333	-86.8845
  63	1	6	0.155343	8.93434	6.88929	-87.8648
  64	1	6	0.174191	8.34379	5.05234	-89.4501
  65	1	7	-0.106637	8.92207	2.3634	-89.3335
  66	1	7	0.445763	9.74838	1.02971	-89.1863
  67	1	8	-0.144255	9.51314	0.17444	-90.2076
  68	1	8	-0.136881	9.47263	0.354857	-88.0475
  69	1	8	-0.144092	11.0795	1.27004	-89.2
  70	1	7	0.367264	7.40445	2.06573	-89.0268
  71	1	8	-0.12104	7.18569	1.92444	-87.6992
  72	1	8	-0.122614	6.94467	0.935583	-89.6089
  73	1	8	-0.112321	6.60589	3.07655	-89.4381
  74	1	3	-0.021957	9.1743	2.86077	-90.7876
  75	1	3	-0.054241	8.30939	2.53069	-91.8652
  76	1	3	-0.111709	8.65476	2.93462	-93.1609
  77	1	3	-0.087244	10.3658	3.58395	-91.0802
  78	1	3	-0.118951	10.6917	3.9856	-92.3918
  79	1	3	-0.044875	9.81145	3.63918	-93.421
  80	1	2	0.461883	9.92802	3.82146	-94.8938
  81	1	1	-0.007433	8.8216	3.17885	-95.4335
  82	1	2	0.491356	7.98994	2.64542	-94.4585
  83	1	3	-0.019445	8.61713	2.98387	-96.8274
  84	1	3	-0.186861	7.61695	3.7298	-97.4754
  85	1	3	-0.068374	7.37232	3.55979	-98.8442
  86	1	3	-0.009193	9.38354	2.0386	-97.5513
  87	1	3	0.220761	9.13295	1.86897	-98.9377
  88	1	3	-0.402098	8.12955	2.63267	-99.5737
  89	1	6	0.148422	7.02109	4.44426	-96.9129
  90	1	6	0.146291	6.59474	4.14413	-99.3339
  91	1	6	0.158981	11.6166	4.51687	-92.6086
  92	1	6	0.141813	11.0682	3.81648	-90.2838
  93	1	6	0.143633	7.40823	1.94047	-91.7333
  94	1	5	-0.474465	6.96205	2.01013	-94.6125
  95	1	5	-0.469737	10.8572	4.34475	-95.4845
  96	1	7	-0.37887	10.4786	1.23494	-96.8303
  97	1	9	0.115886	10.7427	0.298807	-97.3338
  98	1	9	0.123845	10.1697	0.942351	-95.8193
  99	1	9	0.138418	11.396	1.83353	-96.7396
 100	1	6	0.21348	7.93606	2.50251	-100.636
 101	1	1	0.486064	6.39468	3.45663	-70.1362
 102	1	2	0.047133	5.73631	4.41374	-70.9045
 103	1	3	0.001076	6.811	5.12183	-71.6416
 104	1	2	0.034038	7.78173	3.52104	-70.2569
 105	1	3	0.050122	8.02552	4.59175	-71.2579
 106	1	5	-0.383076	4.53606	4.5682	-71.0543
 107	1	5	-0.380811	8.61787	2.7784	-69.7701
 108	1	3	-0.001248	6.70713	6.07903	-72.6555
 109	1	3	-0.036565	9.21414	5.0005	-71.8655
 110	1	3	-0.208842	9.13173	5.95508	-72.9012
 111	1	3	-0.065319	7.88634	6.49819	-73.3296
 112	1	6	0.153391	5.7151	6.42933	-72.9191
 113	1	6	0.155343	10.1636	4.55935	-71.5694
 114	1	6	0.174191	10.0517	6.24504	-73.4043
 115	1	7	-0.106637	7.87125	7.47382	-74.5481
 116	1	7	0.445763	6.42623	7.78121	-75.0964
 117	1	8	-0.144255	5.75424	6.64428	-75.3899
 118	1	8	-0.136881	6.45665	8.49124	-76.2471
 119	1	8	-0.144092	5.67278	8.48505	-74.2218
 120	1	7	0.367264	8.53465	8.82016	-74.0616
 121	1	8	-0.12104	8.0395	9.20568	-72.8636
 122	1	8	-0.122614	8.34395	9.86055	-74.9031
 123	1	8	-0.112321	9.87138	8.69511	-73.9028
 124	1	3	-0.021957	8.63327	6.79247	-75.7214
 125	1	3	-0.054241	9.38351	7.53265	-76.6737
 126	1	3	-0.111709	9.98555	6.8497	-77.7393
 127	1	3	-0.087244	8.5033	5.38618	-75.9117
 128	1	3	-0.118951	9.12737	4.71791	-76.9822
 129	1	3	-0.044875	9.86952	5.48276	-77.8842
 130	1	2	0.461883	10.572	5.0793	-79.129
 131	1	1	-0.007433	11.0441	6.25999	-79.6864
 132	1	2	0.491356	10.7584	7.36885	-78.9
 133	1	3	-0.019445	11.7088	6.32209	-80.9426
 134	1	3	-0.186861	13.0681	6.68216	-80.9646
 135	1	3	-0.068374	13.7841	6.70044	-82.1678
 136	1	3	-0.009193	11.0386	5.99614	-82.148
 137	1	3	0.220761	11.7759	5.98185	-83.3586
 138	1	3	-0.402098	13.1424	6.33856	-83.3597
 139	1	6	0.148422	13.576	6.94522	-80.04
 140	1	6	0.146291	14.8372	6.97648	-82.1696
 141	1	6	0.158981	9.01464	3.64486	-77.1254
 142	1	6	0.141813	7.89397	4.79595	-75.2324
 143	1	6	0.143633	9.4825	8.61244	-76.6251
 144	1	5	-0.474465	11.0428	8.53459	-79.1114
 145	1	5	-0.469737	10.6651	3.94579	-79.5685
 146	1	7	-0.37887	9.54314	5.64212	-82.1378
 147	1	9	0.115886	9.00668	6.12701	-81.3138
 148	1	9	0.123845	9.4007	4.55725	-82.0354
 149	1	9	0.138418	9.02489	5.96885	-83.0474
 150	1	6	0.21348	13.7084	6.32602	-84.2885
 151	1	1	0.486064	5.52015	-9.22937	-77.1962
 152	1	2	0.047133	4.20104	-9.07284	-76.7678
 153	1	3	0.001076	4.14066	-7.71245	-76.1781
 154	1	2	0.034038	6.30111	-8.09974	-76.9566
 155	1	3	0.050122	5.38785	-7.13444	-76.2952
 156	1	5	-0.383076	3.27353	-9.8592	-76.858
 157	1	5	-0.380811	7.47711	-7.91758	-77.2253
 158	1	3	-0.001248	3.06538	-7.04001	-75.5852
 159	1	3	-0.036565	5.62971	-5.8383	-75.8384
 160	1	3	-0.208842	4.56174	-5.14272	-75.2361
 161	1	3	-0.065319	3.27292	-5.72864	-75.0789
 162	1	6	0.153391	2.10827	-7.548	-75.5309
 163	1	6	0.155343	6.61427	-5.38901	-75.9491
 164	1	6	0.174191	4.74481	-4.12952	-74.8841
 165	1	7	-0.106637	2.14969	-4.89588	-74.3911
 166	1	7	0.445763	1.63013	-3.87487	-75.4741
 167	1	8	-0.144255	2.56518	-2.94586	-75.7782
 168	1	8	-0.136881	0.517996	-3.20833	-75.0914
 169	1	8	-0.144092	1.32872	-4.49487	-76.6377
 170	1	7	0.367264	0.93598	-5.75901	-73.8767
 171	1	8	-0.12104	0.167356	-6.2497	-74.8744
 172	1	8	-0.122614	0.118185	-5.03898	-73.0755
 173	1	8	-0.112321	1.34899	-6.81498	-73.14
 174	1	3	-0.021957	2.76676	-4.21859	-73.132
 175	1	3	-0.054241	2.54968	-2.85419	-72.8027
 176	1	3	-0.111709	3.19772	-2.31928	-71.6824
 177	1	3	-0.087244	3.59381	-4.99555	-72.2711
 178	1	3	-0.118951	4.23827	-4.43558	-71.1502
 179	1	3	-0.044875	4.0295	-3.0794	-70.8875
 180	1	2	0.461883	4.63279	-2.19288	-69.8566
 181	1	1	-0.007433	4.13454	-0.924927	-70.1226
 182	1	2	0.491356	3.2264	-0.923386	-71.1751
 183	1	3	-0.019445	4.58237	0.252407	-69.4589
 184	1	3	-0.186861	4.26796	0.422097	-68.0986
 185	1	3	-0.068374	4.67216	1.57164	-67.4071
 186	1	3	-0.009193	5.33644	1.2396	-70.1406
 187	1	3	0.220761	5.71178	2.41801	-69.4464
 188	1	3	-0.402098	5.38267	2.57332	-68.0827
 189	1	6	0.148422	3.7077	-0.346023	-67.5712
 190	1	6	0.146291	4.42308	1.68734	-66.3533
 191	1	6	0.158981	4.89763	-5.02912	-70.5199
 192	1	6	0.141813	3.76537	-6.04671	-72.4894
 193	1	6	0.143633	1.92449	-2.1971	-73.3992
 194	1	5	-0.474465	2.63576	0.0248104	-71.6611
 195	1	5	-0.469737	5.46077	-2.51644	-69.023
 196	1	7	-0.37887	5.72908	1.04172	-71.6145
 197	1	9	0.115886	6.69766	1.49265	-71.8603
 198	1	9	0.123845	4.97131	1.48092	-72.2788
 199	1	9	0.138418	5.83183	-0.0165505	-71.8801
 200	1	6	0.21348	5.67776	3.47377	-67.5489
 201	1	1	0.486064	4.19715	-22.4797	-70.7977
 202	1	2	0.047133	4.64036	-22.7738	-72.0899
 203	1	3	0.001076	5.53603	-21.6536	-72.4618
 204	1	2	0.034038	4.72725	-21.2835	-70.3112
 205	1	3	0.050122	5.57201	-20.7589	-71.4141
 206	1	5	-0.383076	4.29608	-23.6833	-72.8263
 207	1	5	-0.380811	4.50136	-20.7272	-69.2488
 208	1	3	-0.001248	6.19872	-21.412	-73.6691
 209	1	3	-0.036565	6.2568	-19.5482	-71.5251
 210	1	3	-0.208842	6.90163	-19.2658	-72.7474
 211	1	3	-0.065319	6.89221	-20.1835	-73.8373
 212	1	6	0.153391	6.12266	-22.1629	-74.4479
 213	1	6	0.155343	6.25395	-18.8364	-70.7024
 214	1	6	0.174191	7.3947	-18.3019	-72.8509
 215	1	7	-0.106637	7.57706	-19.7659	-75.175
 216	1	7	0.445763	9.13147	-19.6983	-74.9022
 217	1	8	-0.144255	9.87438	-19.5643	-76.0233
 218	1	8	-0.136881	9.56852	-20.8172	-74.2812
 219	1	8	-0.144092	9.4692	-18.6649	-74.0993
 220	1	7	0.367264	7.32445	-20.7673	-76.3686
 221	1	8	-0.12104	7.79489	-20.2849	-77.5411
 222	1	8	-0.122614	6.00761	-20.9926	-76.5797
 223	1	8	-0.112321	7.90756	-21.9716	-76.174
 224	1	3	-0.021957	6.94344	-18.4125	-75.6035
 225	1	3	-0.054241	7.7003	-17.3295	-76.1257
 226	1	3	-0.111709	7.02551	-16.1636	-76.5166
 227	1	3	-0.087244	5.5289	-18.2697	-75.5164
 228	1	3	-0.118951	4.87103	-17.096	-75.927
 229	1	3	-0.044875	5.65322	-16.0535	-76.4258
 230	1	2	0.461883	5.24843	-14.7249	-76.9494
 231	1	1	-0.007433	6.43079	-14.0953	-77.3146
 232	1	2	0.491356	7.54631	-14.8943	-77.094
 233	1	3	-0.019445	6.47542	-12.7961	-77.8932
 234	1	3	-0.186861	6.8919	-12.6814	-79.2314
 235	1	3	-0.068374	6.88599	-11.4408	-79.8785
 236	1	3	-0.009193	6.06381	-11.6468	-77.1733
 237	1	3	0.220761	6.00874	-10.3988	-77.8479
 238	1	3	-0.402098	6.43199	-10.3072	-79.1926
 239	1	6	0.148422	7.22211	-13.5626	-79.7765
 240	1	6	0.146291	7.21681	-11.3651	-80.9131
 241	1	6	0.158981	3.78808	-17.002	-75.8715
 242	1	6	0.141813	4.92005	-19.088	-75.1408
 243	1	6	0.143633	8.77872	-17.3732	-76.2449
 244	1	5	-0.474465	8.71491	-14.6322	-77.3181
 245	1	5	-0.469737	4.1075	-14.3066	-77.0418
 246	1	7	-0.37887	5.68583	-11.7638	-75.6886
 247	1	9	0.115886	4.61706	-11.9963	-75.5785
 248	1	9	0.123845	5.88661	-10.845	-75.1257
 249	1	9	0.138418	6.25259	-12.5524	-75.1796
 250	1	6	0.21348	6.41672	-9.34589	-79.703
 251	1	1	0.486064	-1.35537	-34.501	-65.563
 252	1	2	0.047133	-1.23324	-33.4224	-66.4377
 253	1	3	0.001076	-0.18122	-33.8248	-67.3991
 254	1	2	0.034038	-0.543836	-35.5797	-65.921
 255	1	3	0.050122	0.226962	-35.1063	-67.0983
 256	1	5	-0.383076	-1.84531	-32.3673	-66.4393
 257	1	5	-0.380811	-0.478207	-36.687	-65.4116
 258	1	3	-0.001248	0.391253	-33.0969	-68.4423
 259	1	3	-0.036565	1.22211	-35.7413	-67.8457
 260	1	3	-0.208842	1.82271	-35.0206	-68.9013
 261	1	3	-0.065319	1.43752	-33.682	-69.2011
 262	1	6	0.153391	0.0395341	-32.0859	-68.6349
 263	1	6	0.155343	1.52322	-36.7589	-67.607
 264	1	6	0.174191	2.59424	-35.5248	-69.4751
 265	1	7	-0.106637	2.09687	-32.8309	-70.3239
 266	1	7	0.445763	3.50195	-33.3639	-70.8002
 267	1	8	-0.144255	4.13675	-32.4593	-71.58
 268	1	8	-0.136881	3.42817	-34.5091	-71.5153
 269	1	8	-0.144092	4.32883	-33.607	-69.7579
 270	1	7	0.367264	1.09973	-32.8568	-71.5445
 271	1	8	-0.12104	0.746356	-34.1206	-71.8716
 272	1	8	-0.122614	1.61061	-32.2942	-72.6623
 273	1	8	-0.112321	-0.0553042	-32.2107	-71.2663
 274	1	3	-0.021957	2.3386	-31.4099	-69.7334
 275	1	3	-0.054241	1.97379	-30.2177	-70.4121
 276	1	3	-0.111709	2.18621	-28.9887	-69.7764
 277	1	3	-0.087244	2.94526	-31.2941	-68.4491
 278	1	3	-0.118951	3.15857	-30.0451	-67.8322
 279	1	3	-0.044875	2.75549	-28.9002	-68.5227
 280	1	2	0.461883	2.84554	-27.4633	-68.1471
 281	1	1	-0.007433	2.32246	-26.7716	-69.229
 282	1	2	0.491356	1.89466	-27.6114	-70.2464
 283	1	3	-0.019445	2.27517	-25.3576	-69.3282
 284	1	3	-0.186861	1.09914	-24.6982	-68.9344
 285	1	3	-0.068374	0.971802	-23.3152	-69.1004
 286	1	3	-0.009193	3.35458	-24.6349	-69.8882
 287	1	3	0.220761	3.20173	-23.2405	-70.1127
 288	1	3	-0.402098	2.01224	-22.5949	-69.7007
 289	1	6	0.148422	0.273713	-25.2628	-68.5076
 290	1	6	0.146291	0.0579536	-22.8111	-68.7898
 291	1	6	0.158981	3.61979	-29.9669	-66.8494
 292	1	6	0.141813	3.24889	-32.1878	-67.9105
 293	1	6	0.143633	1.52783	-30.2153	-71.4018
 294	1	5	-0.474465	1.39945	-27.3054	-71.3167
 295	1	5	-0.469737	3.3208	-27.0083	-67.1208
 296	1	7	-0.37887	4.64555	-25.3837	-70.2543
 297	1	9	0.115886	4.90792	-26.1361	-69.5009
 298	1	9	0.123845	5.51929	-24.7264	-70.3249
 299	1	9	0.138418	4.53761	-25.896	-71.2209
 300	1	6	0.21348	1.89573	-21.5229	-69.848
 301	1	1	0.486064	-0.941288	-25.2739	-53.0107
 302	1	2	0.047133	-1.67931	-26.3811	-52.5989
 303	1	3	0.001076	-1.80525	-27.2263	-53.813
 304	1	2	0.034038	-0.533454	-25.353	-54.3402
 305	1	3	0.050122	-1.12535	-26.6162	-54.8467
 306	1	5	-0.383076	-2.21741	-26.5747	-51.5211
 307	1	5	-0.380811	0.0859117	-24.5277	-54.9905
 308	1	3	-0.001248	-2.56719	-28.3797	-54.0146
 309	1	3	-0.036565	-1.16329	-27.1336	-56.1432
 310	1	3	-0.208842	-1.93263	-28.294	-56.37
 311	1	3	-0.065319	-2.6453	-28.9382	-55.3188
 312	1	6	0.153391	-3.12997	-28.7685	-53.1744
 313	1	6	0.155343	-0.655696	-26.6191	-56.9564
 314	1	6	0.174191	-2.01163	-28.6591	-57.3914
 315	1	7	-0.106637	-3.61214	-30.1129	-55.6444
 316	1	7	0.445763	-3.75602	-31.1356	-54.4516
 317	1	8	-0.144255	-2.55822	-31.4895	-53.937
 318	1	8	-0.136881	-4.36673	-32.2664	-54.8586
 319	1	8	-0.144092	-4.48116	-30.677	-53.4094
 320	1	7	0.367264	-5.01405	-29.4499	-55.9206
 321	1	8	-0.12104	-5.40843	-28.6566	-54.8987
 322	1	8	-0.122614	-5.99986	-30.3579	-56.1042
 323	1	8	-0.112321	-4.97682	-28.6524	-57.0122
 324	1	3	-0.021957	-3.05929	-30.9221	-56.8617
 325	1	3	-0.054241	-3.81438	-31.1778	-58.041
 326	1	3	-0.111709	-3.23373	-31.9253	-59.0749
 327	1	3	-0.087244	-1.74108	-31.4556	-56.7871
 328	1	3	-0.118951	-1.19004	-32.2346	-57.824
 329	1	3	-0.044875	-1.96569	-32.4494	-58.9653
 330	1	2	0.461883	-1.67641	-33.2371	-60.1915
 331	1	1	-0.007433	-2.81069	-33.1316	-60.9911
 332	1	2	0.491356	-3.79175	-32.3494	-60.3877
 333	1	3	-0.019445	-2.98277	-33.8297	-62.2308
 334	1	3	-0.186861	-4.0928	-34.6881	-62.3539
 335	1	3	-0.068374	-4.28678	-35.4762	-63.4903
 336	1	3	-0.009193	-2.06785	-33.717	-63.3133
 337	1	3	0.220761	-2.26217	-34.5307	-64.4655
 338	1	3	-0.402098	-3.36371	-35.4099	-64.5367
 339	1	6	0.148422	-4.82604	-34.7591	-61.5601
 340	1	6	0.146291	-5.14735	-36.1421	-63.5462
 341	1	6	0.158981	-0.197364	-32.6726	-57.7384
 342	1	6	0.141813	-1.13108	-31.2766	-55.9062
 343	1	6	0.143633	-4.8303	-30.8238	-58.1795
 344	1	5	-0.474465	-4.91804	-32.1137	-60.7904
 345	1	5	-0.469737	-0.658805	-33.8673	-60.4123
 346	1	7	-0.37887	-0.88237	-32.7397	-63.2334
 347	1	9	0.115886	0.0384201	-33.2578	-62.9365
 348	1	9	0.123845	-1.05107	-31.9372	-62.507
 349	1	9	0.138418	-0.687587	-32.2165	-64.1745
 350	1	6	0.21348	-3.5067	-36.0376	-65.4141
 351	1	1	0.486064	-8.42253	-21.3211	-56.3156
 352	1	2	0.047133	-8.50504	-20.813	-55.0132
 353	1	3	0.001076	-7.79095	-19.5134	-55.0456
 354	1	2	0.034038	-7.76369	-20.4351	-57.1771
 355	1	3	0.050122	-7.38727	-19.2688	-56.3374
 356	1	5	-0.383076	-9.10535	-21.2621	-54.0512
 357	1	5	-0.380811	-7.53778	-20.5568	-58.3703
 358	1	3	-0.001248	-7.49443	-18.6296	-54.0043
 359	1	3	-0.036565	-6.73967	-18.078	-56.6755
 360	1	3	-0.208842	-6.46967	-17.1482	-55.647
 361	1	3	-0.065319	-6.8038	-17.4199	-54.2874
 362	1	6	0.153391	-7.76207	-18.9167	-52.992
 363	1	6	0.155343	-6.44555	-17.8875	-57.7054
 364	1	6	0.174191	-5.96279	-16.2328	-55.9339
 365	1	7	-0.106637	-6.34614	-16.524	-53.0911
 366	1	7	0.445763	-7.64378	-15.9943	-52.3593
 367	1	8	-0.144255	-7.39747	-15.044	-51.43
 368	1	8	-0.136881	-8.31489	-16.9735	-51.7142
 369	1	8	-0.144092	-8.51701	-15.4582	-53.2408
 370	1	7	0.367264	-5.4677	-15.2809	-53.5064
 371	1	8	-0.12104	-4.37513	-15.6333	-54.2212
 372	1	8	-0.122614	-4.98188	-14.6234	-52.4292
 373	1	8	-0.112321	-6.15589	-14.3812	-54.2449
 374	1	3	-0.021957	-5.44073	-17.4311	-52.2123
 375	1	3	-0.054241	-4.49442	-18.2586	-52.8688
 376	1	3	-0.111709	-3.71058	-19.1316	-52.1148
 377	1	3	-0.087244	-5.51039	-17.4846	-50.7905
 378	1	3	-0.118951	-4.70878	-18.3806	-50.0472
 379	1	3	-0.044875	-3.82178	-19.2097	-50.7448
 380	1	2	0.461883	-2.90675	-20.2867	-50.2719
 381	1	1	-0.007433	-2.31547	-20.8058	-51.4188
 382	1	2	0.491356	-2.7165	-20.1333	-52.5663
 383	1	3	-0.019445	-1.4159	-21.9111	-51.4298
 384	1	3	-0.186861	-0.192873	-21.7828	-50.7463
 385	1	3	-0.068374	0.760426	-22.8081	-50.7806
 386	1	3	-0.009193	-1.70758	-23.1035	-52.141
 387	1	3	0.220761	-0.723168	-24.1224	-52.2051
 388	1	3	-0.402098	0.502511	-23.9685	-51.5221
 389	1	6	0.148422	0.0238087	-20.8758	-50.1865
 390	1	6	0.146291	1.70513	-22.6903	-50.2521
 391	1	6	0.158981	-4.78546	-18.4422	-48.9629
 392	1	6	0.141813	-6.19623	-16.8484	-50.2409
 393	1	6	0.143633	-4.37843	-18.2492	-53.9503
 394	1	5	-0.474465	-2.38381	-20.3352	-53.7215
 395	1	5	-0.469737	-2.75023	-20.645	-49.1179
 396	1	7	-0.37887	-3.05661	-23.2881	-52.8564
 397	1	9	0.115886	-3.44194	-24.3105	-52.7645
 398	1	9	0.123845	-2.96618	-23.0522	-53.926
 399	1	9	0.138418	-3.84542	-22.6498	-52.4435
 400	1	6	0.21348	1.26011	-24.7468	-51.5787
 401	1	1	0.486064	-11.7373	-28.8536	-47.3165
 402	1	2	0.047133	-11.0308	-28.3875	-48.4259
 403	1	3	0.001076	-10.4871	-29.6079	-49.0734
 404	1	2	0.034038	-11.6331	-30.2366	-47.1502
 405	1	3	0.050122	-10.8517	-30.7038	-48.3214
 406	1	5	-0.383076	-11.0263	-27.2655	-48.9049
 407	1	5	-0.380811	-12.1932	-30.9496	-46.333
 408	1	3	-0.001248	-9.88772	-29.7474	-50.3284
 409	1	3	-0.036565	-10.613	-32.0031	-48.7735
 410	1	3	-0.208842	-10.0436	-32.1668	-50.0539
 411	1	3	-0.065319	-9.72239	-31.0491	-50.8765
 412	1	6	0.153391	-9.65338	-28.8489	-50.8946
 413	1	6	0.155343	-10.9295	-32.8572	-48.179
 414	1	6	0.174191	-9.90504	-33.1815	-50.4105
 415	1	7	-0.106637	-9.2435	-31.2147	-52.3537
 416	1	7	0.445763	-9.82233	-32.5015	-53.0592
 417	1	8	-0.144255	-11.1516	-32.6331	-52.8501
 418	1	8	-0.136881	-9.24926	-33.6503	-52.6415
 419	1	8	-0.144092	-9.64553	-32.4535	-54.3995
 420	1	7	0.367264	-7.67789	-31.3132	-52.3068
 421	1	8	-0.12104	-7.2559	-32.2471	-51.4267
 422	1	8	-0.122614	-7.12301	-30.1481	-51.9035
 423	1	8	-0.112321	-7.14247	-31.6456	-53.5017
 424	1	3	-0.021957	-9.76867	-29.9985	-53.1802
 425	1	3	-0.054241	-8.94841	-29.2241	-54.0483
 426	1	3	-0.111709	-9.49008	-28.0788	-54.6515
 427	1	3	-0.087244	-11.1356	-29.6236	-53.0376
 428	1	3	-0.118951	-11.6541	-28.4611	-53.6359
 429	1	3	-0.044875	-10.7928	-27.6922	-54.4197
 430	1	2	0.461883	-11.0306	-26.3992	-55.1061
 431	1	1	-0.007433	-9.83446	-26.0781	-55.7327
 432	1	2	0.491356	-8.8651	-27.0584	-55.543
 433	1	3	-0.019445	-9.69276	-24.8887	-56.5078
 434	1	3	-0.186861	-10.4806	-24.7912	-57.6678
 435	1	3	-0.068374	-10.5502	-23.597	-58.3877
 436	1	3	-0.009193	-8.93032	-23.7738	-56.0655
 437	1	3	0.220761	-9.05218	-22.5331	-56.7614
 438	1	3	-0.402098	-9.85889	-22.4742	-57.9225
 439	1	6	0.148422	-11.0761	-25.6399	-57.9956
 440	1	6	0.146291	-11.1726	-23.5326	-59.2789
 441	1	6	0.158981	-12.6855	-28.1517	-53.4781
 442	1	6	0.141813	-11.7973	-30.2094	-52.4041
 443	1	6	0.143633	-7.90765	-29.4619	-54.2376
 444	1	5	-0.474465	-7.74343	-27.1069	-56.0163
 445	1	5	-0.469737	-12.0714	-25.7647	-55.0987
 446	1	7	-0.37887	-8.01914	-23.9302	-54.8386
 447	1	9	0.115886	-7.24594	-23.1572	-54.776
 448	1	9	0.123845	-7.46626	-24.8746	-54.8532
 449	1	9	0.138418	-8.60194	-23.8936	-53.9079
 450	1	6	0.21348	-9.94932	-21.542	-58.4765
 451	1	1	0.486064	-7.69901	-20.5146	-39.3718
 452	1	2	0.047133	-8.84817	-20.5573	-38.5858
 453	1	3	0.001076	-9.30814	-21.9654	-38.6487
 454	1	2	0.034038	-7.37872	-21.7484	-39.9349
 455	1	3	0.050122	-8.43857	-22.6714	-39.4552
 456	1	5	-0.383076	-9.39245	-19.6444	-37.9875
 457	1	5	-0.380811	-6.43224	-22.0343	-40.6494
 458	1	3	-0.001248	-10.4203	-22.567	-38.0503
 459	1	3	-0.036565	-8.63183	-24.0298	-39.7084
 460	1	3	-0.208842	-9.74038	-24.6594	-39.1061
 461	1	3	-0.065319	-10.6644	-23.9454	-38.2885
 462	1	6	0.153391	-11.0636	-21.9526	-37.43
 463	1	6	0.155343	-7.94894	-24.5747	-40.3579
 464	1	6	0.174191	-9.89259	-25.717	-39.3048
 465	1	7	-0.106637	-11.8932	-24.6995	-37.6943
 466	1	7	0.445763	-11.3719	-25.4763	-36.4291
 467	1	8	-0.144255	-10.5231	-26.4702	-36.7743
 468	1	8	-0.136881	-12.36	-26.0335	-35.6937
 469	1	8	-0.144092	-10.6883	-24.6641	-35.594
 470	1	7	0.367264	-13.0766	-23.7511	-37.2672
 471	1	8	-0.12104	-13.3936	-22.8766	-38.2485
 472	1	8	-0.122614	-12.81	-23.0252	-36.1587
 473	1	8	-0.112321	-14.2049	-24.4505	-37.0072
 474	1	3	-0.021957	-12.4615	-25.6242	-38.8087
 475	1	3	-0.054241	-12.5707	-25.1017	-40.123
 476	1	3	-0.111709	-13.0095	-25.9355	-41.1529
 477	1	3	-0.087244	-12.877	-26.9682	-38.5794
 478	1	3	-0.118951	-13.3365	-27.7872	-39.6316
 479	1	3	-0.044875	-13.3739	-27.2437	-40.919
 480	1	2	0.461883	-13.7227	-27.8662	-42.2225
 481	1	1	-0.007433	-13.5142	-26.874	-43.1712
 482	1	2	0.491356	-13.111	-25.6726	-42.6104
 483	1	3	-0.019445	-13.5966	-27.1081	-44.5669
 484	1	3	-0.186861	-14.7887	-26.7833	-45.2356
 485	1	3	-0.068374	-14.9437	-27.0802	-46.5946
 486	1	3	-0.009193	-12.5262	-27.716	-45.264
 487	1	3	0.220761	-12.7079	-28.0757	-46.6207
 488	1	3	-0.402098	-13.9153	-27.7438	-47.2771
 489	1	6	0.148422	-15.6026	-26.3049	-44.6967
 490	1	6	0.146291	-15.8705	-26.8242	-47.1055
 491	1	6	0.158981	-13.6401	-28.8179	-39.4565
 492	1	6	0.141813	-12.8434	-27.407	-37.5887
 493	1	6	0.143633	-12.2789	-24.0797	-40.3559
 494	1	5	-0.474465	-12.8258	-24.6321	-43.1766
 495	1	5	-0.469737	-14.0598	-29.0239	-42.4003
 496	1	7	-0.37887	-11.1925	-27.9947	-44.5662
 497	1	9	0.115886	-11.0694	-27.47	-43.6132
 498	1	9	0.123845	-10.3454	-27.6784	-45.1887
 499	1	9	0.138418	-11.0803	-29.0638	-44.3667
 500	1	6	0.21348	-14.0536	-28.0072	-48.323
 501	1	1	0.486064	4.47189	-17.1614	-31.1687
 502	1	2	0.047133	4.18514	-15.9444	-31.7851
 503	1	3	0.001076	3.38184	-16.2968	-32.9846
 504	1	2	0.034038	3.9527	-18.254	-31.8619
 505	1	3	0.050122	3.2416	-17.669	-33.0236
 506	1	5	-0.383076	4.48745	-14.8207	-31.4209
 507	1	5	-0.380811	4.03608	-19.4395	-31.5866
 508	1	3	-0.001248	2.80888	-15.4693	-33.9576
 509	1	3	-0.036565	2.51492	-18.2969	-34.0353
 510	1	3	-0.208842	1.91839	-17.4821	-35.0177
 511	1	3	-0.065319	2.04406	-16.064	-34.9978
 512	1	6	0.153391	2.9659	-14.3987	-33.8793
 513	1	6	0.155343	2.41561	-19.3801	-34.0529
 514	1	6	0.174191	1.3501	-17.9674	-35.8086
 515	1	7	-0.106637	1.36156	-15.2426	-36.1303
 516	1	7	0.445763	2.26334	-15.4168	-37.4121
 517	1	8	-0.144255	1.89594	-14.6124	-38.4346
 518	1	8	-0.136881	2.23955	-16.6852	-37.8806
 519	1	8	-0.144092	3.56129	-15.1426	-37.1482
 520	1	7	0.367264	1.22494	-13.7034	-35.8124
 521	1	8	-0.12104	2.40584	-13.046	-35.8317
 522	1	8	-0.122614	0.675925	-13.485	-34.596
 523	1	8	-0.112321	0.419127	-13.0806	-36.7021
 524	1	3	-0.021957	-0.0877839	-15.7882	-36.2965
 525	1	3	-0.054241	-0.66242	-16.1034	-37.5576
 526	1	3	-0.111709	-1.97657	-16.5889	-37.599
 527	1	3	-0.087244	-0.886542	-15.9631	-35.1306
 528	1	3	-0.118951	-2.21297	-16.4322	-35.1976
 529	1	3	-0.044875	-2.73305	-16.7406	-36.4564
 530	1	2	0.461883	-4.0804	-17.233	-36.8452
 531	1	1	-0.007433	-4.04238	-17.372	-38.228
 532	1	2	0.491356	-2.81305	-16.9981	-38.7585
 533	1	3	-0.019445	-5.15902	-17.7757	-39.0171
 534	1	3	-0.186861	-5.65683	-16.8624	-39.9656
 535	1	3	-0.068374	-6.78843	-17.1645	-40.7314
 536	1	3	-0.009193	-5.79267	-19.0336	-38.8447
 537	1	3	0.220761	-6.96277	-19.3183	-39.5945
 538	1	3	-0.402098	-7.4485	-18.3834	-40.5345
 539	1	6	0.148422	-5.164	-15.9034	-40.1092
 540	1	6	0.146291	-7.16286	-16.444	-41.4569
 541	1	6	0.158981	-2.8196	-16.5513	-34.3019
 542	1	6	0.141813	-0.475953	-15.7279	-34.152
 543	1	6	0.143633	-0.127198	-15.9826	-38.4944
 544	1	5	-0.474465	-2.4732	-16.9739	-39.9285
 545	1	5	-0.469737	-5.01409	-17.4382	-36.0887
 546	1	7	-0.37887	-5.23938	-20.0647	-37.8492
 547	1	9	0.115886	-5.33394	-21.0935	-38.2167
 548	1	9	0.123845	-5.76046	-19.9973	-36.8841
 549	1	9	0.138418	-4.16949	-19.9272	-37.6562
 550	1	6	0.21348	-8.35039	-18.5998	-41.1032
 551	1	1	0.486064	-1.89572	-25.2711	-26.0691
 552	1	2	0.047133	-0.806913	-25.624	-25.2712
 553	1	3	0.001076	-0.323902	-24.3472	-24.6842
 554	1	2	0.034038	-2.16823	-23.9036	-26.0334
 555	1	3	0.050122	-1.13234	-23.3282	-25.1436
 556	1	5	-0.383076	-0.337092	-26.7326	-25.076
 557	1	5	-0.380811	-3.06424	-23.2888	-26.5877
 558	1	3	-0.001248	0.743616	-24.1048	-23.8111
 559	1	3	-0.036565	-0.920505	-22.0037	-24.762
 560	1	3	-0.208842	0.154266	-21.735	-23.892
 561	1	3	-0.065319	1.00665	-22.7673	-23.4062
 562	1	6	0.153391	1.3355	-24.9504	-23.4764
 563	1	6	0.155343	-1.57067	-21.213	-25.1306
 564	1	6	0.174191	0.322621	-20.7033	-23.5913
 565	1	7	-0.106637	2.16501	-22.3786	-22.4405
 566	1	7	0.445763	3.26207	-23.4988	-22.2717
 567	1	8	-0.144255	3.70402	-23.9556	-23.4652
 568	1	8	-0.136881	2.82559	-24.5731	-21.5768
 569	1	8	-0.144092	4.35317	-23.0321	-21.6232
 570	1	7	0.367264	1.50049	-22.1013	-21.0383
 571	1	8	-0.12104	2.40092	-21.9348	-20.0434
 572	1	8	-0.122614	0.723255	-20.9947	-21.054
 573	1	8	-0.112321	0.691887	-23.1181	-20.6621
 574	1	3	-0.021957	2.88631	-21.1439	-23.0561
 575	1	3	-0.054241	3.22232	-21.1801	-24.4337
 576	1	3	-0.111709	3.85299	-20.0749	-25.0123
 577	1	3	-0.087244	3.23579	-19.9814	-22.309
 578	1	3	-0.118951	3.86569	-18.8735	-22.9167
 579	1	3	-0.044875	4.15882	-18.9472	-24.2824
 580	1	2	0.461883	4.7998	-17.9612	-25.1966
 581	1	1	-0.007433	4.82985	-18.5752	-26.4435
 582	1	2	0.491356	4.29699	-19.8584	-26.411
 583	1	3	-0.019445	5.37231	-17.9806	-27.6192
 584	1	3	-0.186861	6.74218	-17.6606	-27.6329
 585	1	3	-0.068374	7.34603	-17.1396	-28.7836
 586	1	3	-0.009193	4.5808	-17.7562	-28.7737
 587	1	3	0.220761	5.20803	-17.2843	-29.956
 588	1	3	-0.402098	6.58393	-16.9673	-29.9462
 589	1	6	0.148422	7.34645	-17.8173	-26.7424
 590	1	6	0.146291	8.40629	-16.8909	-28.777
 591	1	6	0.158981	4.12034	-17.9838	-22.344
 592	1	6	0.141813	3.02277	-19.9115	-21.248
 593	1	6	0.143633	2.99139	-22.0446	-25.0525
 594	1	5	-0.474465	4.19929	-20.6618	-27.322
 595	1	5	-0.469737	5.20231	-16.8513	-24.8932
 596	1	7	-0.37887	3.06822	-18.026	-28.7433
 597	1	9	0.115886	2.50667	-17.3583	-29.4075
 598	1	9	0.123845	2.64126	-17.8766	-27.7447
 599	1	9	0.138418	2.85343	-19.061	-29.0474
 600	1	6	0.21348	7.06053	-16.5819	-30.8451
 601	1	1	0.486064	-8.9069	-29.2681	-39.88
 602	1	2	0.047133	-8.22314	-28.0493	-39.9182
 603	1	3	0.001076	-7.84248	-27.7668	-38.5096
 604	1	2	0.034038	-9.05897	-29.7497	-38.5793
 605	1	3	0.050122	-8.36057	-28.7671	-37.7146
 606	1	5	-0.383076	-8.01932	-27.3207	-40.8747
 607	1	5	-0.380811	-9.64082	-30.7538	-38.2035
 608	1	3	-0.001248	-7.09096	-26.7135	-37.9724
 609	1	3	-0.036565	-8.202	-28.7456	-36.3281
 610	1	3	-0.208842	-7.47139	-27.68	-35.7642
 611	1	3	-0.065319	-6.8712	-26.6693	-36.5691
 612	1	6	0.153391	-6.69628	-25.963	-38.6475
 613	1	6	0.155343	-8.6394	-29.5275	-35.7107
 614	1	6	0.174191	-7.36905	-27.6496	-34.6812
 615	1	7	-0.106637	-6.05193	-25.533	-35.8842
 616	1	7	0.445763	-4.96702	-24.8838	-36.8271
 617	1	8	-0.144255	-4.24141	-25.8249	-37.4718
 618	1	8	-0.136881	-4.08664	-24.1327	-36.1275
 619	1	8	-0.144092	-5.48701	-24.075	-37.7776
 620	1	7	0.367264	-7.09183	-24.4287	-35.4654
 621	1	8	-0.12104	-6.50901	-23.2996	-35.0039
 622	1	8	-0.122614	-7.93174	-24.8781	-34.5061
 623	1	8	-0.112321	-7.87305	-24.0573	-36.502
 624	1	3	-0.021957	-5.27838	-26.1462	-34.676
 625	1	3	-0.054241	-5.30292	-25.5811	-33.3721
 626	1	3	-0.111709	-4.6343	-26.2403	-32.3348
 627	1	3	-0.087244	-4.52661	-27.3403	-34.8731
 628	1	3	-0.118951	-3.85616	-27.9855	-33.8131
 629	1	3	-0.044875	-3.93794	-27.4121	-32.541
 630	1	2	0.461883	-3.40572	-27.8766	-31.23
 631	1	1	-0.007433	-3.83638	-26.9368	-30.3032