pySIMM System Object

652 atoms
716 bonds
1248 angles
1920 dihedrals
208 impropers

9 atom types
11 bond types
18 angle types
7 dihedral types
4 improper types

-138.262013 138.262013 xlo xhi
-138.262013 138.262013 ylo yhi
-138.262013 138.262013 zlo zhi

Masses

   1	14.01	# n
   2	12.01	# c
   3	12.01	# ca
   4	1.008	# hn
   5	16.0	# o
   6	1.008	# ha
   7	12.01	# c3
   8	19.0	# f
   9	1.008	# hc

Pair Coeffs

   1	0.17	3.249998523775958	# n
   2	0.086	3.3996695084235347	# c
   3	0.086	3.3996695084235347	# ca
   4	0.0157	1.069078461768407	# hn
   5	0.21	2.959921901149463	# o
   6	0.015	2.59964245953351	# ha
   7	0.1094	3.3996695084235347	# c3
   8	0.061	3.1181455134911875	# f
   9	0.0157	2.649532787749369	# hc

Bond Coeffs

   1	427.6	1.3789	# c,n
   2	461.1	1.3984	# ca,ca
   3	345.9	1.4906	# c,ca
   4	345.8	1.086	# ca,ha
   5	637.7	1.2183	# c,o
   6	321.0	1.5156	# c3,ca
   7	300.9	1.5375	# c3,c3
   8	356.9	1.3497	# c3,f
   9	384.2	1.4121	# ca,n
  10	330.6	1.0969	# c3,hc
  11	403.2	1.0129	# hn,n

Angle Coeffs

   1	48.18	119.88	# ca,ca,ha
   2	63.15	112.07	# c3,c3,ca
   3	70.89	107.36	# f,c3,f
   4	67.87	120.19	# ca,ca,n
   5	68.72	122.6	# ca,c,o
   6	63.56	112.24	# ca,c3,ca
   7	63.82	123.71	# c,n,ca
   8	74.22	123.05	# n,c,o
   9	48.33	117.55	# c,n,hn
  10	67.68	115.25	# ca,c,n
  11	64.28	120.33	# c,ca,ca
  12	66.11	109.24	# c3,c3,f
  13	46.8	110.47	# ca,c3,hc
  14	39.4	107.58	# hc,c3,hc
  15	66.62	120.02	# ca,ca,ca
  16	63.53	120.77	# c3,ca,ca
  17	62.86	111.51	# c3,c3,c3
  18	63.74	127.08	# c,n,c

Dihedral Coeffs

   1	1	2.5	2	180	# X,c,n,X
   2	1	0.45	2	180	# X,ca,n,X
   3	2	2.5	2	180	2.0	1	0	# hn,n,c,o
   4	1	3.625	2	180	# X,ca,ca,X
   5	1	1.0	2	180	# X,c,ca,X
   6	1	0.15555555555555556	3	0	# X,c3,c3,X
   7	1	0.0	2	0	# X,c3,ca,X

Improper Coeffs

   1	1.1	-1	2	# ca,ca,ca,c3
   2	10.5	-1	2	# c,X,X,o
   3	1.1	-1	2	# ca,X,X,ha
   4	1.1	-1	2	# n,X,X,hn

Atoms

   1	1	1	0.486064	-2.04546	-45.7823	33.359
   2	1	2	0.047133	-2.7123	-46.5011	34.3541
   3	1	3	0.001076	-1.97957	-47.7859	34.4573
   4	1	2	0.034038	-0.876491	-46.412	32.9304
   5	1	3	0.050122	-0.883251	-47.7251	33.6238
   6	1	5	-0.383076	-3.79427	-46.2589	34.863
   7	1	5	-0.380811	-0.146037	-46.0983	32.0048
   8	1	3	-0.001248	-2.40894	-48.9922	35.0235
   9	1	3	-0.036565	-0.116692	-48.86	33.3626
  10	1	3	-0.208842	-0.545932	-50.09	33.9015
  11	1	3	-0.065319	-1.73287	-50.196	34.688
  12	1	6	0.153391	-3.32449	-48.9928	35.6074
  13	1	6	0.155343	0.724443	-48.8064	32.6744
  14	1	6	0.174191	0.0271343	-50.9621	33.6093
  15	1	7	-0.106637	-2.40558	-51.5685	35.0369
  16	1	7	0.445763	-3.82549	-51.5686	34.3292
  17	1	8	-0.144255	-4.7279	-50.8189	35.0007
  18	1	8	-0.136881	-4.39193	-52.7879	34.1975
  19	1	8	-0.144092	-3.75243	-51.0594	33.0778
  20	1	7	0.367264	-1.58988	-52.8114	34.5096
  21	1	8	-0.12104	-1.48122	-52.8262	33.1613
  22	1	8	-0.122614	-2.14413	-53.9931	34.8634
  23	1	8	-0.112321	-0.341656	-52.8433	35.0301
  24	1	3	-0.021957	-2.5001	-51.7504	36.5771
  25	1	3	-0.054241	-3.46365	-52.6198	37.1532
  26	1	3	-0.111709	-3.39001	-52.9076	38.52
  27	1	3	-0.087244	-1.50642	-51.1888	37.4283
  28	1	3	-0.118951	-1.45674	-51.4859	38.808
  29	1	3	-0.044875	-2.41279	-52.3659	39.3278
  30	1	2	0.461883	-2.54835	-52.9648	40.6862
  31	1	1	-0.007433	-3.60807	-53.8579	40.5924
  32	1	2	0.491356	-4.18158	-53.8689	39.3295
  33	1	3	-0.019445	-4.02324	-54.7258	41.6389
  34	1	3	-0.186861	-3.33071	-55.9361	41.8331
  35	1	3	-0.068374	-3.74546	-56.8493	42.8144
  36	1	3	-0.009193	-5.1452	-54.4216	42.4409
  37	1	3	0.220761	-5.5515	-55.342	43.4285
  38	1	3	-0.402098	-4.85915	-56.5494	43.6128
  39	1	6	0.148422	-2.47341	-56.1773	41.21
  40	1	6	0.146291	-3.20894	-57.7872	42.9477
  41	1	6	0.158981	-0.668975	-51.0872	39.4442
  42	1	6	0.141813	-0.724428	-50.5583	37.0135
  43	1	6	0.143633	-4.21613	-53.1298	36.5603
  44	1	5	-0.474465	-5.1012	-54.5593	38.9265
  45	1	5	-0.469737	-1.82752	-52.7501	41.6454
  46	1	7	-0.37887	-5.92784	-53.1258	42.2394
  47	1	9	0.115886	-6.40049	-53.1043	41.2489
  48	1	9	0.123845	-5.2743	-52.2492	42.3304
  49	1	9	0.138418	-6.72701	-53.0152	42.9832
  50	1	6	0.21348	-5.19479	-57.2497	44.3723
  51	1	1	0.486064	-2.02508	-31.3076	26.9558
  52	1	2	0.047133	-1.4371	-32.0055	28.0098
  53	1	3	0.001076	-2.54255	-32.764	28.641
  54	1	2	0.034038	-3.39361	-31.5557	26.8424
  55	1	3	0.050122	-3.70215	-32.4987	27.9484
  56	1	5	-0.383076	-0.26489	-32.0299	28.3455
  57	1	5	-0.380811	-4.17882	-31.1288	26.0119
  58	1	3	-0.001248	-2.51383	-33.6299	29.7379
  59	1	3	-0.036565	-4.90285	-33.1049	28.3122
  60	1	3	-0.208842	-4.89894	-33.9744	29.4238
  61	1	3	-0.065319	-3.71789	-34.2429	30.1868
  62	1	6	0.153391	-1.55368	-33.8049	30.2067
  63	1	6	0.155343	-5.81242	-32.9036	27.7496
  64	1	6	0.174191	-5.85449	-34.4194	29.6704
  65	1	7	-0.106637	-3.70658	-35.1995	31.4405
  66	1	7	0.445763	-2.78121	-34.5733	32.5654
  67	1	8	-0.144255	-2.93786	-35.1014	33.798
  68	1	8	-0.136881	-2.98856	-33.2436	32.6927
  69	1	8	-0.144092	-1.46929	-34.7566	32.2957
  70	1	7	0.367264	-5.17017	-35.3817	32.0229
  71	1	8	-0.12104	-5.78444	-34.1922	32.2138
  72	1	8	-0.122614	-5.24413	-36.0272	33.2066
  73	1	8	-0.112321	-5.94124	-36.1299	31.2009
  74	1	3	-0.021957	-3.15319	-36.5997	31.0441
  75	1	3	-0.054241	-3.02935	-37.6184	32.0253
  76	1	3	-0.111709	-2.6189	-38.8974	31.6366
  77	1	3	-0.087244	-2.81826	-36.9248	29.6964
  78	1	3	-0.118951	-2.39053	-38.2175	29.3296
  79	1	3	-0.044875	-2.30758	-39.1923	30.3273
  80	1	2	0.461883	-2.11608	-40.6618	30.2113
  81	1	1	-0.007433	-2.41333	-41.168	31.471
  82	1	2	0.491356	-2.64503	-40.168	32.4054
  83	1	3	-0.019445	-2.83975	-42.5082	31.6718
  84	1	3	-0.186861	-4.05978	-42.8574	31.064
  85	1	3	-0.068374	-4.59902	-44.135	31.2129
  86	1	3	-0.009193	-2.13793	-43.4501	32.4666
  87	1	3	0.220761	-2.6899	-44.7508	32.615
  88	1	3	-0.402098	-3.91125	-45.0769	31.9806
  89	1	6	0.148422	-4.59976	-42.1266	30.4665
  90	1	6	0.146291	-5.5446	-44.3896	30.7369
  91	1	6	0.158981	-2.19123	-38.4736	28.2907
  92	1	6	0.141813	-2.92343	-36.1967	28.8993
  93	1	6	0.143633	-3.30269	-37.4586	33.0639
  94	1	5	-0.474465	-3.00867	-40.2948	33.5615
  95	1	5	-0.469737	-1.96782	-41.2806	29.1714
  96	1	7	-0.37887	-0.808859	-43.0793	33.1365
  97	1	9	0.115886	-0.725178	-43.5071	34.1431
  98	1	9	0.123845	-0.679767	-41.998	33.2576
  99	1	9	0.138418	0.0409483	-43.4446	32.5433
 100	1	6	0.21348	-4.33848	-46.0709	32.0976
 101	1	1	0.486064	0.125607	-19.7766	17.455
 102	1	2	0.047133	-1.11479	-19.928	18.076
 103	1	3	0.001076	-0.822862	-20.5671	19.3756
 104	1	2	0.034038	1.16236	-20.3705	18.1763
 105	1	3	0.050122	0.523937	-20.8586	19.4281
 106	1	5	-0.383076	-2.21464	-19.5712	17.6891
 107	1	5	-0.380811	2.35307	-20.3974	17.9112
 108	1	3	-0.001248	-1.66364	-20.7284	20.4789
 109	1	3	-0.036565	1.0964	-21.399	20.5815
 110	1	3	-0.208842	0.264736	-21.5825	21.707
 111	1	3	-0.065319	-1.11526	-21.2275	21.687
 112	1	6	0.153391	-2.69109	-20.3886	20.3969
 113	1	6	0.155343	2.16319	-21.6084	20.6209
 114	1	6	0.174191	0.72536	-21.9389	22.6254
 115	1	7	-0.106637	-1.9265	-21.2202	23.0113
 116	1	7	0.445763	-1.64435	-19.8175	23.6757
 117	1	8	-0.144255	-0.335667	-19.6557	23.9788
 118	1	8	-0.136881	-2.3544	-19.6276	24.8106
 119	1	8	-0.144092	-1.9407	-18.7879	22.8495
 120	1	7	0.367264	-3.48734	-21.3744	22.8025
 121	1	8	-0.12104	-4.10255	-20.2493	22.3751
 122	1	8	-0.122614	-4.10296	-21.7257	23.9544
 123	1	8	-0.112321	-3.78939	-22.3306	21.8963
 124	1	3	-0.021957	-1.46068	-22.4311	23.8758
 125	1	3	-0.054241	-1.59969	-23.7398	23.3433
 126	1	3	-0.111709	-1.21332	-24.8381	24.1198
 127	1	3	-0.087244	-0.900414	-22.2945	25.1808
 128	1	3	-0.118951	-0.477358	-23.4123	25.9271
 129	1	3	-0.044875	-0.652986	-24.6798	25.3688
 130	1	2	0.461883	-0.343613	-26.0251	25.9184
 131	1	1	-0.007433	-0.790184	-26.9268	24.9621
 132	1	2	0.491356	-1.30913	-26.295	23.8395
 133	1	3	-0.019445	-0.667621	-28.3376	25.0894
 134	1	3	-0.186861	0.299512	-28.9779	24.2946
 135	1	3	-0.068374	0.493272	-30.3602	24.3756
 136	1	3	-0.009193	-1.46999	-29.0897	25.9858
 137	1	3	0.220761	-1.27457	-30.495	26.0586
 138	1	3	-0.402098	-0.290406	-31.1137	25.2563
 139	1	6	0.148422	0.910882	-28.397	23.6086
 140	1	6	0.146291	1.25353	-30.8417	23.7627
 141	1	6	0.158981	-0.0434637	-23.2997	26.9189
 142	1	6	0.141813	-0.778748	-21.325	25.6491
 143	1	6	0.143633	-2.00636	-23.9117	22.3501
 144	1	5	-0.474465	-1.74629	-26.8046	22.8227
 145	1	5	-0.469737	0.186485	-26.2633	26.99
 146	1	7	-0.37887	-2.54362	-28.3988	26.8428
 147	1	9	0.115886	-2.72096	-28.9135	27.7944
 148	1	9	0.123845	-3.50067	-28.3586	26.3047
 149	1	9	0.138418	-2.27829	-27.3737	27.1203
 150	1	6	0.21348	-0.122264	-32.1858	25.3321
 151	1	1	0.486064	-3.99418	-12.2498	7.61657
 152	1	2	0.047133	-3.84209	-12.9687	8.79833
 153	1	3	0.001076	-4.49173	-12.1353	9.83525
 154	1	2	0.034038	-4.74696	-11.0855	7.77916
 155	1	3	0.050122	-5.03285	-11.0177	9.23751
 156	1	5	-0.383076	-3.18365	-13.9765	8.99362
 157	1	5	-0.380811	-5.00047	-10.228	6.94957
 158	1	3	-0.001248	-4.50225	-12.3082	11.2182
 159	1	3	-0.036565	-5.63735	-10.015	10.0033
 160	1	3	-0.208842	-5.65555	-10.1671	11.4092
 161	1	3	-0.065319	-5.06502	-11.2979	12.042
 162	1	6	0.153391	-4.05227	-13.2087	11.627
 163	1	6	0.155343	-6.05686	-9.1345	9.52104
 164	1	6	0.174191	-6.12772	-9.38535	11.9969
 165	1	7	-0.106637	-5.04921	-11.4941	13.5847
 166	1	7	0.445763	-5.06858	-10.144	14.411
 167	1	8	-0.144255	-4.20544	-9.2258	13.9233
 168	1	8	-0.136881	-4.71834	-10.357	15.6996
 169	1	8	-0.144092	-6.2696	-9.5248	14.4425
 170	1	7	0.367264	-6.34807	-12.3163	13.9369
 171	1	8	-0.12104	-7.48237	-11.6735	13.5787
 172	1	8	-0.122614	-6.4422	-12.5847	15.2588
 173	1	8	-0.112321	-6.39915	-13.4929	13.2715
 174	1	3	-0.021957	-3.71836	-12.2433	13.929
 175	1	3	-0.054241	-3.68978	-13.5824	14.4049
 176	1	3	-0.111709	-2.46149	-14.2445	14.501
 177	1	3	-0.087244	-2.46896	-11.626	13.6219
 178	1	3	-0.118951	-1.23832	-12.3005	13.7683
 179	1	3	-0.044875	-1.26717	-13.6295	14.1961
 180	1	2	0.461883	-0.173487	-14.632	14.3358
 181	1	1	-0.007433	-0.803543	-15.8126	14.7034
 182	1	2	0.491356	-2.17905	-15.6624	14.8294
 183	1	3	-0.019445	-0.145318	-17.0597	14.8904
 184	1	3	-0.186861	0.417492	-17.7046	13.775
 185	1	3	-0.068374	0.962038	-18.9893	13.8942
 186	1	3	-0.009193	-0.144533	-17.6932	16.1539
 187	1	3	0.220761	0.303323	-19.0381	16.2483
 188	1	3	-0.402098	0.880881	-19.6632	15.1206
 189	1	6	0.148422	0.42762	-17.2087	12.807
 190	1	6	0.146291	1.40651	-19.4743	13.0263
 191	1	6	0.158981	-0.295104	-11.8237	13.5087
 192	1	6	0.141813	-2.43967	-10.6217	13.2131
 193	1	6	0.143633	-4.5831	-14.1474	14.6475
 194	1	5	-0.474465	-3.01304	-16.5123	15.088
 195	1	5	-0.469737	1.01336	-14.4453	14.1307
 196	1	7	-0.37887	-0.629148	-16.909	17.3848
 197	1	9	0.115886	-1.72368	-16.9527	17.4729
 198	1	9	0.123845	-0.339809	-15.8522	17.3308
 199	1	9	0.138418	-0.206115	-17.282	18.3245
 200	1	6	0.21348	1.2673	-20.6773	15.1992
 201	1	1	0.486064	3.62273	-2.86351	0.563071
 202	1	2	0.047133	3.78942	-4.10606	-0.0404152
 203	1	3	0.001076	3.68117	-5.08684	1.06132
 204	1	2	0.034038	3.31915	-2.95554	1.92279
 205	1	3	0.050122	3.3874	-4.41269	2.22778
 206	1	5	-0.383076	4.12806	-4.35023	-1.1864
 207	1	5	-0.380811	3.19533	-2.04974	2.73078
 208	1	3	-0.001248	4.02721	-6.43901	1.05142
 209	1	3	-0.036565	3.36543	-5.0847	3.45414
 210	1	3	-0.208842	3.70073	-6.45847	3.46649
 211	1	3	-0.065319	4.07208	-7.15093	2.27909
 212	1	6	0.153391	4.33776	-6.86714	0.105292
 213	1	6	0.155343	3.16813	-4.53955	4.37472
 214	1	6	0.174191	3.75041	-6.96854	4.42614
 215	1	7	-0.106637	4.70513	-8.57208	2.38712
 216	1	7	0.445763	4.79049	-9.32944	1.00646
 217	1	8	-0.144255	5.11804	-10.6321	1.16535
 218	1	8	-0.136881	5.71105	-8.80721	0.164452
 219	1	8	-0.144092	3.60146	-9.31726	0.362468
 220	1	7	0.367264	6.16981	-8.34	2.92997
 221	1	8	-0.12104	6.79439	-7.33632	2.27162
 222	1	8	-0.122614	6.97232	-9.42153	2.8102
 223	1	8	-0.112321	6.16908	-7.99001	4.23665
 224	1	3	-0.021957	3.8392	-9.47703	3.31159
 225	1	3	-0.054241	2.42512	-9.45564	3.18402
 226	1	3	-0.111709	1.66146	-10.3756	3.91853
 227	1	3	-0.087244	4.42144	-10.4355	4.19207
 228	1	3	-0.118951	3.63601	-11.346	4.92433
 229	1	3	-0.044875	2.25111	-11.2966	4.76019
 230	1	2	0.461883	1.19007	-12.1641	5.33362
 231	1	1	-0.007433	0.00283283	-11.7049	4.78396
 232	1	2	0.491356	0.193667	-10.6269	3.92875
 233	1	3	-0.019445	-1.26241	-12.2895	5.06239
 234	1	3	-0.186861	-1.75796	-13.2578	4.17123
 235	1	3	-0.068374	-2.98943	-13.8832	4.40457
 236	1	3	-0.009193	-2.00208	-11.9418	6.21755
 237	1	3	0.220761	-3.25765	-12.5637	6.44126
 238	1	3	-0.402098	-3.74009	-13.5348	5.53626
 239	1	6	0.148422	-1.17912	-13.5337	3.29294
 240	1	6	0.146291	-3.3542	-14.6392	3.71064
 241	1	6	0.158981	4.0908	-12.0932	5.5722
 242	1	6	0.141813	5.49582	-10.5227	4.29969
 243	1	6	0.143633	1.92916	-8.77301	2.49697
 244	1	5	-0.474465	-0.647242	-10.0105	3.2988
 245	1	5	-0.469737	1.34959	-13.0744	6.12851
 246	1	7	-0.37887	-1.45811	-10.903	7.21262
 247	1	9	0.115886	-1.92012	-9.92161	7.03949
 248	1	9	0.123845	-0.373082	-10.7715	7.14869
 249	1	9	0.138418	-1.64721	-11.1891	8.25472
 250	1	6	0.21348	-4.69045	-14.0304	5.7205
 251	1	1	0.486064	-4.04372	9.76298	-4.42393
 252	1	2	0.047133	-4.44329	8.57927	-3.81324
 253	1	3	0.001076	-3.48941	7.56155	-4.3012
 254	1	2	0.034038	-2.89131	9.61965	-5.19659
 255	1	3	0.050122	-2.55776	8.17543	-5.11039
 256	1	5	-0.383076	-5.43085	8.37185	-3.12824
 257	1	5	-0.380811	-2.34241	10.4504	-5.90134
 258	1	3	-0.001248	-3.50678	6.18279	-4.10067
 259	1	3	-0.036565	-1.56215	7.43476	-5.74955
 260	1	3	-0.208842	-1.5344	6.0415	-5.52783
 261	1	3	-0.065319	-2.50423	5.38637	-4.71307
 262	1	6	0.153391	-4.29483	5.78127	-3.47403
 263	1	6	0.155343	-0.837418	7.9255	-6.39588
 264	1	6	0.174191	-0.734856	5.47035	-5.99255
 265	1	7	-0.106637	-2.37988	3.85181	-4.46396
 266	1	7	0.445763	-3.46304	3.28542	-3.46706
 267	1	8	-0.144255	-3.28494	1.97463	-3.18785
 268	1	8	-0.136881	-4.72111	3.41728	-3.94524
 269	1	8	-0.144092	-3.40756	3.90813	-2.26697
 270	1	7	0.367264	-2.53943	3.1317	-5.86178
 271	1	8	-0.12104	-3.55498	3.66984	-6.57474
 272	1	8	-0.122614	-2.79871	1.80832	-5.7797
 273	1	8	-0.112321	-1.42726	3.24398	-6.62137
 274	1	3	-0.021957	-1.00418	3.59777	-3.79403
 275	1	3	-0.054241	-0.364579	2.33464	-3.87352
 276	1	3	-0.111709	0.817977	2.13573	-3.15172
 277	1	3	-0.087244	-0.416629	4.60608	-2.9739
 278	1	3	-0.118951	0.78413	4.39101	-2.27613
 279	1	3	-0.044875	1.37681	3.134	-2.38048
 280	1	2	0.461883	2.54354	2.57681	-1.65642
 281	1	1	-0.007433	2.58514	1.2379	-2.01028
 282	1	2	0.491356	1.61282	0.898812	-2.94411
 283	1	3	-0.019445	3.49156	0.315631	-1.42669
 284	1	3	-0.186861	4.86345	0.50025	-1.67271
 285	1	3	-0.068374	5.80915	-0.374045	-1.13029
 286	1	3	-0.009193	3.04318	-0.751412	-0.607371
 287	1	3	0.220761	4.00144	-1.66732	-0.107626
 288	1	3	-0.402098	5.37612	-1.46008	-0.362082
 289	1	6	0.148422	5.20041	1.33279	-2.2859
 290	1	6	0.146291	6.869	-0.22441	-1.32967
 291	1	6	0.158981	1.21226	5.15614	-1.63155
 292	1	6	0.141813	-0.904077	5.56617	-2.83405
 293	1	6	0.143633	-0.791529	1.50233	-4.42558
 294	1	5	-0.474465	1.38669	-0.191748	-3.43934
 295	1	5	-0.469737	3.25646	3.17485	-0.868882
 296	1	7	-0.37887	1.55031	-0.917205	-0.286178
 297	1	9	0.115886	1.0528	-1.54738	-1.03576
 298	1	9	0.123845	1.02505	0.0452947	-0.261453
 299	1	9	0.138418	1.37729	-1.36158	0.701508
 300	1	6	0.21348	6.11035	-2.16937	0.0135046
 301	1	1	0.486064	-11.6027	19.3893	-7.82056
 302	1	2	0.047133	-10.34	18.8562	-7.52276
 303	1	3	0.001076	-10.1606	19.0777	-6.06384
 304	1	2	0.034038	-12.3103	19.7405	-6.66767
 305	1	3	0.050122	-11.342	19.5708	-5.56182
 306	1	5	-0.383076	-9.46011	18.5122	-8.29555
 307	1	5	-0.380811	-13.3635	20.3491	-6.57768
 308	1	3	-0.001248	-8.97203	19.1351	-5.32229
 309	1	3	-0.036565	-11.4173	20.084	-4.27162
 310	1	3	-0.208842	-10.226	20.1949	-3.53063
 311	1	3	-0.065319	-8.96098	19.7865	-4.05347
 312	1	6	0.153391	-8.06762	18.7832	-5.80346
 313	1	6	0.155343	-12.3527	20.5014	-3.90526
 314	1	6	0.174191	-10.3303	20.6946	-2.58009
 315	1	7	-0.106637	-7.59428	20.1361	-3.35729
 316	1	7	0.445763	-6.68513	20.941	-4.40365
 317	1	8	-0.144255	-6.33291	20.2803	-5.52281
 318	1	8	-0.136881	-5.51385	21.3547	-3.87359
 319	1	8	-0.144092	-7.31757	22.0324	-4.89118
 320	1	7	0.367264	-7.74269	21.1503	-2.1258
 321	1	8	-0.12104	-8.16813	22.3809	-2.48882
 322	1	8	-0.122614	-6.57135	21.3175	-1.47187
 323	1	8	-0.112321	-8.61172	20.7857	-1.16043
 324	1	3	-0.021957	-6.94579	18.7823	-2.87892
 325	1	3	-0.054241	-6.18543	17.9579	-3.75627
 326	1	3	-0.111709	-5.7382	16.7021	-3.32779
 327	1	3	-0.087244	-7.20232	18.2454	-1.57745
 328	1	3	-0.118951	-6.76075	16.9717	-1.17095
 329	1	3	-0.044875	-6.03547	16.2062	-2.07953
 330	1	2	0.461883	-5.716	14.7534	-2.05332
 331	1	1	-0.007433	-5.30677	14.4604	-3.34658
 332	1	2	0.491356	-5.17603	15.5948	-4.13705
 333	1	3	-0.019445	-5.49574	13.1845	-3.93733
 334	1	3	-0.186861	-6.67016	13.0401	-4.69971
 335	1	3	-0.068374	-6.96697	11.8431	-5.35051
 336	1	3	-0.009193	-4.59258	12.1038	-3.79813
 337	1	3	0.220761	-4.89126	10.8968	-4.48141
 338	1	3	-0.402098	-6.07225	10.7775	-5.24686
 339	1	6	0.148422	-7.36333	13.8724	-4.79432
 340	1	6	0.146291	-7.88087	11.748	-5.93402
 341	1	6	0.158981	-7.04556	16.5597	-0.204755
 342	1	6	0.141813	-7.80753	18.7592	-0.850516
 343	1	6	0.143633	-5.99829	18.2016	-4.79165
 344	1	5	-0.474465	-4.93101	15.6489	-5.32934
 345	1	5	-0.469737	-6.03326	13.969	-1.17562
 346	1	7	-0.37887	-3.35595	12.2263	-2.89836
 347	1	9	0.115886	-3.00799	13.2619	-2.80958
 348	1	9	0.123845	-2.49959	11.654	-3.27569
 349	1	9	0.138418	-3.58096	11.8699	-1.8833
 350	1	6	0.21348	-6.30273	9.84098	-5.75049
 351	1	1	0.486064	-16.425	28.6643	-13.7464
 352	1	2	0.047133	-16.2889	27.3459	-13.2934
 353	1	3	0.001076	-17.5518	26.6658	-13.6802
 354	1	2	0.034038	-17.7092	28.9233	-14.2284
 355	1	3	0.050122	-18.4055	27.6157	-14.1936
 356	1	5	-0.383076	-15.3424	26.8227	-12.7289
 357	1	5	-0.380811	-18.1583	29.9614	-14.6872
 358	1	3	-0.001248	-17.8814	25.303	-13.6753
 359	1	3	-0.036565	-19.6719	27.2697	-14.6561
 360	1	3	-0.208842	-20.0482	25.9137	-14.5985
 361	1	3	-0.065319	-19.1605	24.89	-14.1481
 362	1	6	0.153391	-17.1274	24.6091	-13.3261
 363	1	6	0.155343	-20.3388	28.0314	-15.0545
 364	1	6	0.174191	-21.0543	25.6847	-14.927
 365	1	7	-0.106637	-19.6155	23.3886	-14.1525
 366	1	7	0.445763	-20.2447	23.0181	-15.5671
 367	1	8	-0.144255	-20.5471	21.7027	-15.6663
 368	1	8	-0.136881	-19.3987	23.3378	-16.5741
 369	1	8	-0.144092	-21.3994	23.6401	-15.8845
 370	1	7	0.367264	-20.7383	23.21	-13.0566
 371	1	8	-0.12104	-20.3726	23.7257	-11.8634
 372	1	8	-0.122614	-21.0322	21.9064	-12.8565
 373	1	8	-0.112321	-21.9	23.8348	-13.3501
 374	1	3	-0.021957	-18.4179	22.4094	-13.817
 375	1	3	-0.054241	-17.8375	22.3727	-12.5133
 376	1	3	-0.111709	-16.7658	21.5042	-12.247
 377	1	3	-0.087244	-17.8471	21.5275	-14.791
 378	1	3	-0.118951	-16.7999	20.6373	-14.4941
 379	1	3	-0.044875	-16.2782	20.6438	-13.205
 380	1	2	0.461883	-15.0636	19.9735	-12.6821
 381	1	1	-0.007433	-14.8348	20.5549	-11.4465
 382	1	2	0.491356	-15.848	21.434	-11.0739
 383	1	3	-0.019445	-13.5478	20.5358	-10.8451
 384	1	3	-0.186861	-12.5609	21.313	-11.4747
 385	1	3	-0.068374	-11.2675	21.3796	-10.9591
 386	1	3	-0.009193	-13.246	19.7945	-9.67702
 387	1	3	0.220761	-11.9431	19.9112	-9.11113
 388	1	3	-0.402098	-10.97	20.6982	-9.77645
 389	1	6	0.148422	-12.7988	21.87	-12.3779
 390	1	6	0.146291	-10.5096	21.9807	-11.459
 391	1	6	0.158981	-16.3661	19.9979	-15.2609
 392	1	6	0.141813	-18.1804	21.5033	-15.8192
 393	1	6	0.143633	-18.143	23.057	-11.7282
 394	1	5	-0.474465	-15.8804	22.1681	-10.1027
 395	1	5	-0.469737	-14.3277	19.2308	-13.3091
 396	1	7	-0.37887	-14.3361	18.9088	-9.06294
 397	1	9	0.115886	-15.0637	19.521	-8.51183
 398	1	9	0.123845	-13.9396	18.1617	-8.36619
 399	1	9	0.138418	-14.8836	18.3519	-9.83353
 400	1	6	0.21348	-9.96641	20.7936	-9.36554
 401	1	1	0.486064	-4.79518	23.4213	-21.0499
 402	1	2	0.047133	-4.88702	24.7176	-21.5695
 403	1	3	0.001076	-5.97921	25.3615	-20.8024
 404	1	2	0.034038	-5.84183	23.1296	-20.1685
 405	1	3	0.050122	-6.57548	24.4078	-20.0088
 406	1	5	-0.383076	-4.12569	25.2908	-22.3322
 407	1	5	-0.380811	-5.98296	22.1506	-19.4548
 408	1	3	-0.001248	-6.28062	26.72	-20.6656
 409	1	3	-0.036565	-7.58044	24.7462	-19.1017
 410	1	3	-0.208842	-7.94191	26.1046	-18.9886
 411	1	3	-0.065319	-7.26104	27.1217	-19.719
 412	1	6	0.153391	-5.72204	27.4346	-21.2621
 413	1	6	0.155343	-8.03506	23.9806	-18.4763
 414	1	6	0.174191	-8.73544	26.3522	-18.2894
 415	1	7	-0.106637	-7.58459	28.6307	-19.5064
 416	1	7	0.445763	-8.34377	29.1252	-20.7978
 417	1	8	-0.144255	-9.46578	28.3996	-21.0073
 418	1	8	-0.136881	-7.62555	28.9917	-21.9351
 419	1	8	-0.144092	-8.68959	30.4301	-20.722
 420	1	7	0.367264	-6.26169	29.4844	-19.3259
 421	1	8	-0.12104	-5.58951	29.7352	-20.4699
 422	1	8	-0.122614	-5.36821	28.8686	-18.5191
 423	1	8	-0.112321	-6.52319	30.6913	-18.7744
 424	1	3	-0.021957	-8.42875	28.8316	-18.1981
 425	1	3	-0.054241	-9.75259	29.3548	-18.1997
 426	1	3	-0.111709	-10.4104	29.5653	-16.9827
 427	1	3	-0.087244	-7.85952	28.4955	-16.9329
 428	1	3	-0.118951	-8.54167	28.7129	-15.7171
 429	1	3	-0.044875	-9.82214	29.2687	-15.773
 430	1	2	0.461883	-10.7934	29.5871	-14.6899
 431	1	1	-0.007433	-11.9334	30.0393	-15.3397
 432	1	2	0.491356	-11.7809	30.0752	-16.7185
 433	1	3	-0.019445	-13.1632	30.3122	-14.6807
 434	1	3	-0.186861	-13.3905	31.611	-14.1963
 435	1	3	-0.068374	-14.592	31.9298	-13.5543
 436	1	3	-0.009193	-14.1541	29.3093	-14.5397
 437	1	3	0.220761	-15.3621	29.6199	-13.8506
 438	1	3	-0.402098	-15.5652	30.9376	-13.3743
 439	1	6	0.148422	-12.638	32.3836	-14.3336
 440	1	6	0.146291	-14.7713	32.9474	-13.2097
 441	1	6	0.158981	-8.09222	28.4525	-14.7605
 442	1	6	0.141813	-6.87361	28.0446	-16.88
 443	1	6	0.143633	-10.2912	29.6112	-19.105
 444	1	5	-0.474465	-12.6246	30.3326	-17.5589
 445	1	5	-0.469737	-10.6278	29.4137	-13.4953
 446	1	7	-0.37887	-13.9076	27.92	-15.1546
 447	1	9	0.115886	-14.8281	27.4571	-15.5275
 448	1	9	0.123845	-13.4629	27.2437	-14.4115
 449	1	9	0.138418	-13.236	27.9365	-16.0178
 450	1	6	0.21348	-16.5092	31.2063	-12.9032
 451	1	1	0.486064	6.25615	12.7595	-16.5638
 452	1	2	0.047133	5.60116	12.2718	-17.694
 453	1	3	0.001076	4.60242	13.3123	-18.0508
 454	1	2	0.034038	5.7479	13.9919	-16.1446
 455	1	3	0.050122	4.69476	14.3402	-17.1383
 456	1	5	-0.383076	5.82374	11.2441	-18.3115
 457	1	5	-0.380811	6.08965	14.6703	-15.1909
 458	1	3	-0.001248	3.72116	13.3673	-19.1353
 459	1	3	-0.036565	3.91862	15.4963	-17.2791
 460	1	3	-0.208842	3.03187	15.579	-18.379
 461	1	3	-0.065319	2.89553	14.512	-19.3134
 462	1	6	0.153391	3.72816	12.5393	-19.835
 463	1	6	0.155343	4.02438	16.3155	-16.5706
 464	1	6	0.174191	2.46386	16.4974	-18.5098
 465	1	7	-0.106637	1.96367	14.6415	-20.5619
 466	1	7	0.445763	2.88375	15.1139	-21.7539
 467	1	8	-0.144255	3.99414	14.3543	-21.8874
 468	1	8	-0.136881	3.3278	16.3766	-21.5555
 469	1	8	-0.144092	2.25906	15.0753	-22.9534
 470	1	7	0.367264	1.28775	13.2678	-20.9399
 471	1	8	-0.12104	0.810211	12.639	-19.8421
 472	1	8	-0.122614	2.11579	12.3981	-21.5583
 473	1	8	-0.112321	0.237234	13.4395	-21.7753
 474	1	3	-0.021957	0.771698	15.618	-20.293
 475	1	3	-0.054241	0.391413	16.6227	-21.2221
 476	1	3	-0.111709	-0.726372	17.4153	-20.9594
 477	1	3	-0.087244	-0.0319711	15.4613	-19.1264
 478	1	3	-0.118951	-1.14356	16.2963	-18.8648
 479	1	3	-0.044875	-1.46772	17.2805	-19.8073
 480	1	2	0.461883	-2.41923	18.4287	-19.738
 481	1	1	-0.007433	-2.11097	19.2189	-20.8425
 482	1	2	0.491356	-1.1892	18.619	-21.6852
 483	1	3	-0.019445	-2.28085	20.6286	-20.8551
 484	1	3	-0.186861	-1.14351	21.3759	-20.5012
 485	1	3	-0.068374	-1.18243	22.7668	-20.4605
 486	1	3	-0.009193	-3.49875	21.2757	-21.1722
 487	1	3	0.220761	-3.56522	22.6918	-21.0364
 488	1	3	-0.402098	-2.39236	23.4152	-20.7057
 489	1	6	0.148422	-0.210046	20.8713	-20.2662
 490	1	6	0.146291	-0.289763	23.3336	-20.2017
 491	1	6	0.158981	-1.71609	16.2044	-17.9435
 492	1	6	0.141813	0.222615	14.6951	-18.3981
 493	1	6	0.143633	0.944062	16.8383	-22.129
 494	1	5	-0.474465	-0.652071	19.0986	-22.6686
 495	1	5	-0.469737	-3.11381	18.7228	-18.7802
 496	1	7	-0.37887	-4.69167	20.4344	-21.64
 497	1	9	0.115886	-4.37984	19.6689	-22.362
 498	1	9	0.123845	-5.4647	21.0309	-22.1389
 499	1	9	0.138418	-5.16491	19.9219	-20.7906
 500	1	6	0.21348	-2.41937	24.4992	-20.6164
 501	1	1	0.486064	18.056	13.7772	-23.4647
 502	1	2	0.047133	18.8019	13.0594	-22.5223
 503	1	3	0.001076	17.8386	12.1163	-21.9171
 504	1	2	0.034038	16.8313	13.1665	-23.7419
 505	1	3	0.050122	16.6636	12.1863	-22.636
 506	1	5	-0.383076	19.8987	13.3271	-22.058
 507	1	5	-0.380811	15.9676	13.5121	-24.5318
 508	1	3	-0.001248	17.9167	11.4956	-20.6636
 509	1	3	-0.036565	15.4884	11.6305	-22.1313
 510	1	3	-0.208842	15.5376	11.0189	-20.8624
 511	1	3	-0.065319	16.7366	10.9484	-20.0955
 512	1	6	0.153391	18.8618	11.5367	-20.1325
 513	1	6	0.155343	14.5492	11.7506	-22.6661
 514	1	6	0.174191	14.6074	10.6316	-20.458
 515	1	7	-0.106637	16.6781	10.3366	-18.6634
 516	1	7	0.445763	17.9799	10.6011	-17.7821
 517	1	8	-0.144255	19.0859	9.95136	-18.2076
 518	1	8	-0.136881	17.7836	10.2269	-16.4981
 519	1	8	-0.144092	18.3628	11.8953	-17.7433
 520	1	7	0.367264	16.5435	8.76399	-18.8198
 521	1	8	-0.12104	15.5626	8.39503	-19.6732
 522	1	8	-0.122614	16.2867	8.1602	-17.6373
 523	1	8	-0.112321	17.6458	8.17595	-19.3336
 524	1	3	-0.021957	15.4329	10.981	-17.9455
 525	1	3	-0.054241	14.1831	10.3041	-17.8352
 526	1	3	-0.111709	13.0931	10.9447	-17.2323
 527	1	3	-0.087244	15.4848	12.3175	-17.4406
 528	1	3	-0.118951	14.3929	12.9228	-16.7843
 529	1	3	-0.044875	13.1997	12.2059	-16.6934
 530	1	2	0.461883	11.8898	12.5726	-16.0912
 531	1	1	-0.007433	11.0506	11.4937	-16.339
 532	1	2	0.491356	11.696	10.4746	-17.0271
 533	1	3	-0.019445	9.70748	11.4247	-15.8684
 534	1	3	-0.186861	9.46078	10.7039	-14.6875
 535	1	3	-0.068374	8.17808	10.6655	-14.1282
 536	1	3	-0.009193	8.64815	12.098	-16.5262
 537	1	3	0.220761	7.35005	12.0825	-15.9436
 538	1	3	-0.402098	7.1307	11.3642	-14.7455
 539	1	6	0.148422	10.2737	10.1776	-14.1929
 540	1	6	0.146291	8.00469	10.1077	-13.2093
 541	1	6	0.158981	14.463	13.9291	-16.3781
 542	1	6	0.141813	16.3691	12.9305	-17.5541
 543	1	6	0.143633	14.017	9.30378	-18.2139
 544	1	5	-0.474465	11.2352	9.4132	-17.4072
 545	1	5	-0.469737	11.6351	13.6018	-15.4907
 546	1	7	-0.37887	8.92884	12.7905	-17.8677
 547	1	9	0.115886	9.81031	13.4401	-17.8093
 548	1	9	0.123845	8.10756	13.4212	-18.2227
 549	1	9	0.138418	9.11184	12.0375	-18.6473
 550	1	6	0.21348	6.14227	11.3489	-14.2925
 551	1	1	0.486064	12.8983	18.7178	-10.5608
 552	1	2	0.047133	14.2692	18.4143	-10.5244
 553	1	3	0.001076	14.8421	19.0712	-11.7304
 554	1	2	0.034038	12.6835	19.814	-11.4186
 555	1	3	0.050122	13.8855	19.8892	-12.2765
 556	1	5	-0.383076	14.8594	17.5888	-9.84626
 557	1	5	-0.380811	11.6678	20.4451	-11.6399
 558	1	3	-0.001248	15.8986	18.5861	-12.502
 559	1	3	-0.036565	13.9408	20.278	-13.6201
 560	1	3	-0.208842	14.9336	19.6987	-14.442
 561	1	3	-0.065319	15.8977	18.797	-13.9114
 562	1	6	0.153391	16.5322	17.8434	-12.0328
 563	1	6	0.155343	13.1239	20.8536	-14.0505
 564	1	6	0.174191	14.8559	19.8612	-15.5131
 565	1	7	-0.106637	16.7081	17.8186	-14.8295
 566	1	7	0.445763	18.2026	17.7071	-14.3452
 567	1	8	-0.144255	18.9888	17.1031	-15.2651
 568	1	8	-0.136881	18.3585	17.0005	-13.2053
 569	1	8	-0.144092	18.7301	18.9326	-14.1267
 570	1	7	0.367264	15.9919	16.4066	-14.6933
 571	1	8	-0.12104	15.6783	16.0463	-13.4305
 572	1	8	-0.122614	14.8161	16.4029	-15.3626
 573	1	8	-0.112321	16.7414	15.3772	-15.1475
 574	1	3	-0.021957	16.7947	18.2602	-16.3372
 575	1	3	-0.054241	16.7178	17.3062	-17.3913
 576	1	3	-0.111709	17.0227	17.6788	-18.7
 577	1	3	-0.087244	17.1683	19.5879	-16.6989
 578	1	3	-0.118951	17.4472	19.9521	-18.0414
 579	1	3	-0.044875	17.3766	18.9624	-19.0329
 580	1	2	0.461883	17.7704	18.9663	-20.4768
 581	1	1	-0.007433	17.6752	17.6424	-20.9053
 582	1	2	0.491356	17.2023	16.812	-19.8873
 583	1	3	-0.019445	18.2107	17.1204	-22.1321
 584	1	3	-0.186861	19.5224	17.4631	-22.5126
 585	1	3	-0.068374	20.1921	16.7469	-23.5152
 586	1	3	-0.009193	17.5525	16.073	-22.8184
 587	1	3	0.220761	18.3275	15.1755	-23.6051
 588	1	3	-0.402098	19.6212	15.568	-24.0148
 589	1	6	0.148422	20.0486	18.2655	-22.0013
 590	1	6	0.146291	21.2147	17.0134	-23.7778
 591	1	6	0.158981	17.775	20.9577	-18.2961
 592	1	6	0.141813	17.2926	20.3393	-15.9227
 593	1	6	0.143633	16.5016	16.2587	-17.2366
 594	1	5	-0.474465	17.1017	15.5943	-19.8773
 595	1	5	-0.469737	18.1892	19.9252	-21.1019
 596	1	7	-0.37887	16.0328	15.9096	-22.6637
 597	1	9	0.115886	15.56	15.8028	-23.6491
 598	1	9	0.123845	15.5627	16.7922	-22.217
 599	1	9	0.138418	15.7559	15.0408	-22.0542
 600	1	6	0.21348	20.2433	14.8849	-24.5898
 601	1	1	0.486064	13.0866	18.8978	-21.9893
 602	1	2	0.047133	13.0541	18.8972	-20.6017
 603	1	3	0.001076	11.9675	19.8605	-20.2674
 604	1	2	0.034038	12.1683	19.7401	-22.5945
 605	1	3	0.050122	11.4516	20.3621	-21.4503
 606	1	5	-0.383076	13.7623	18.272	-19.8293
 607	1	5	-0.380811	11.9789	19.9271	-23.7845
 608	1	3	-0.001248	11.4688	20.2652	-19.0217
 609	1	3	-0.036565	10.4281	21.3093	-21.4459
 610	1	3	-0.208842	9.91283	21.7271	-20.2013
 611	1	3	-0.065319	10.3992	21.2019	-18.9662
 612	1	6	0.153391	11.8976	19.8407	-18.1176
 613	1	6	0.155343	10.0488	21.7112	-22.3836
 614	1	6	0.174191	9.12716	22.4739	-20.2321
 615	1	7	-0.106637	9.84518	21.6535	-17.5709
 616	1	7	0.445763	10.9601	22.5819	-16.9484
 617	1	8	-0.144255	11.4244	23.476	-17.8519
 618	1	8	-0.136881	12.0298	21.863	-16.5375
 619	1	8	-0.144092	10.547	23.3045	-15.8846
 620	1	7	0.367264	8.49611	22.4604	-17.6663
 621	1	8	-0.12104	8.64394	23.6774	-18.2375
 622	1	8	-0.122614	7.94073	22.681	-16.4537
 623	1	8	-0.112321	7.56953	21.7783	-18.3773
 624	1	3	-0.021957	9.53693	20.4047	-16.6809
 625	1	3	-0.054241	9.49654	20.4851	-15.2606
 626	1	3	-0.111709	9.22945	19.326	-14.5164
 627	1	3	-0.087244	9.21202	19.1515	-17.2772
 628	1	3	-0.118951	9.01294	17.9871	-16.5039
 629	1	3	-0.044875	9.06155	18.103	-15.1116
 630	1	2	0.461883	9.05461	17.0603	-14.0466
 631	1	1	-0.007433	9.26154	17.7336	-12.8315
 632	1	2	0.491356	9.19128	19.1169	-13.0488
 633	1	3	-0.019445	9.88802	17.1563	-11.6546
 634	1	3	-0.186861	10.2556	15.7943	-11.6054
 635	1	3	-0.068374	11.3349	15.3757	-10.8151
 636	1	3	-0.009193	10.5506	18.0197	-10.7517
 637	1	3	0.220761	11.8655	17.7191	-10.3301
 638	1	3	-0.402098	12.1922	16.3402	-10.2645
 639	1	6	0.148422	9.75411	15.047	-12.2127