pySIMM System Object

1602 atoms
1761 bonds
3072 angles
4732 dihedrals
512 impropers

9 atom types
11 bond types
18 angle types
7 dihedral types
4 improper types

-189.712680 189.712680 xlo xhi
-189.712680 189.712680 ylo yhi
-189.712680 189.712680 zlo zhi

Masses

   1	14.01	# n
   2	12.01	# c
   3	12.01	# ca
   4	1.008	# hn
   5	16.0	# o
   6	1.008	# ha
   7	12.01	# c3
   8	19.0	# f
   9	1.008	# hc

Pair Coeffs

   1	0.17	3.249998523775958	# n
   2	0.086	3.3996695084235347	# c
   3	0.086	3.3996695084235347	# ca
   4	0.0157	1.069078461768407	# hn
   5	0.21	2.959921901149463	# o
   6	0.015	2.59964245953351	# ha
   7	0.1094	3.3996695084235347	# c3
   8	0.061	3.1181455134911875	# f
   9	0.0157	2.649532787749369	# hc

Bond Coeffs

   1	427.6	1.3789	# c,n
   2	461.1	1.3984	# ca,ca
   3	345.9	1.4906	# c,ca
   4	345.8	1.086	# ca,ha
   5	637.7	1.2183	# c,o
   6	321.0	1.5156	# c3,ca
   7	300.9	1.5375	# c3,c3
   8	356.9	1.3497	# c3,f
   9	384.2	1.4121	# ca,n
  10	330.6	1.0969	# c3,hc
  11	403.2	1.0129	# hn,n

Angle Coeffs

   1	48.18	119.88	# ca,ca,ha
   2	63.15	112.07	# c3,c3,ca
   3	70.89	107.36	# f,c3,f
   4	67.87	120.19	# ca,ca,n
   5	68.72	122.6	# ca,c,o
   6	63.56	112.24	# ca,c3,ca
   7	63.82	123.71	# c,n,ca
   8	74.22	123.05	# n,c,o
   9	48.33	117.55	# c,n,hn
  10	67.68	115.25	# ca,c,n
  11	64.28	120.33	# c,ca,ca
  12	66.11	109.24	# c3,c3,f
  13	46.8	110.47	# ca,c3,hc
  14	39.4	107.58	# hc,c3,hc
  15	66.62	120.02	# ca,ca,ca
  16	63.53	120.77	# c3,ca,ca
  17	62.86	111.51	# c3,c3,c3
  18	63.74	127.08	# c,n,c

Dihedral Coeffs

   1	1	2.5	2	180	# X,c,n,X
   2	1	0.45	2	180	# X,ca,n,X
   3	2	2.5	2	180	2.0	1	0	# hn,n,c,o
   4	1	3.625	2	180	# X,ca,ca,X
   5	1	1.0	2	180	# X,c,ca,X
   6	1	0.15555555555555556	3	0	# X,c3,c3,X
   7	1	0.0	2	0	# X,c3,ca,X

Improper Coeffs

   1	1.1	-1	2	# ca,ca,ca,c3
   2	10.5	-1	2	# c,X,X,o
   3	1.1	-1	2	# ca,X,X,ha
   4	1.1	-1	2	# n,X,X,hn

Atoms

   1	1	1	0.486064	7.16545	59.3735	-16.7337
   2	1	2	0.047133	5.78686	59.5544	-16.6679
   3	1	3	0.001076	5.37808	59.8899	-18.0523
   4	1	2	0.034038	7.68662	59.6049	-18.0055
   5	1	3	0.050122	6.50502	59.9278	-18.8469
   6	1	5	-0.383076	5.04425	59.3714	-15.7182
   7	1	5	-0.380811	8.83944	59.4842	-18.3853
   8	1	3	-0.001248	4.09567	60.0706	-18.5756
   9	1	3	-0.036565	6.4114	60.1795	-20.2175
  10	1	3	-0.208842	5.12526	60.3698	-20.7673
  11	1	3	-0.065319	3.94633	60.2908	-19.9712
  12	1	6	0.153391	3.25767	60.0062	-17.8905
  13	1	6	0.155343	7.30656	60.2039	-20.8356
  14	1	6	0.174191	5.04464	60.5517	-21.8372
  15	1	7	-0.106637	2.55349	60.4447	-20.6574
  16	1	7	0.445763	1.35207	59.9754	-19.7526
  17	1	8	-0.144255	1.55579	58.7263	-19.2746
  18	1	8	-0.136881	0.187677	59.9232	-20.4385
  19	1	8	-0.144092	1.13821	60.7874	-18.6928
  20	1	7	0.367264	2.38977	61.9776	-20.9841
  21	1	8	-0.12104	2.73725	62.747	-19.927
  22	1	8	-0.122614	1.12786	62.3339	-21.3115
  23	1	8	-0.112321	3.18387	62.355	-22.0112
  24	1	3	-0.021957	2.51012	59.534	-21.92
  25	1	3	-0.054241	1.74999	59.8733	-23.0713
  26	1	3	-0.111709	1.7052	58.9734	-24.1441
  27	1	3	-0.087244	3.17046	58.2716	-21.8992
  28	1	3	-0.118951	3.12718	57.3891	-22.9964
  29	1	3	-0.044875	2.3813	57.7715	-24.1135
  30	1	2	0.461883	2.11076	57.0471	-25.383
  31	1	1	-0.007433	1.26	57.8723	-26.1037
  32	1	2	0.491356	0.966845	59.0519	-25.4334
  33	1	3	-0.019445	0.735192	57.5312	-27.3779
  34	1	3	-0.186861	1.35772	58.0404	-28.5328
  35	1	3	-0.068374	0.880987	57.7036	-29.8083
  36	1	3	-0.009193	-0.384066	56.6774	-27.4977
  37	1	3	0.220761	-0.855504	56.3433	-28.783
  38	1	3	-0.402098	-0.226609	56.8507	-29.9313
  39	1	6	0.148422	2.21765	58.6988	-28.4417
  40	1	6	0.146291	1.37101	58.1014	-30.6954
  41	1	6	0.158981	3.63698	56.428	-22.9725
  42	1	6	0.141813	3.72012	57.9567	-21.0162
  43	1	6	0.143633	1.17814	60.7926	-23.1425
  44	1	5	-0.474465	0.24463	59.964	-25.7957
  45	1	5	-0.469737	2.5401	55.9492	-25.6941
  46	1	7	-0.37887	-1.0877	56.1228	-26.2601
  47	1	9	0.115886	-1.53011	56.9312	-25.6639
  48	1	9	0.123845	-0.39141	55.5634	-25.6222
  49	1	9	0.138418	-1.89826	55.4347	-26.531
  50	1	6	0.21348	-0.603946	56.5801	-30.9131
  51	1	1	0.486064	13.3759	45.8084	-12.4911
  52	1	2	0.047133	12.0014	45.7826	-12.7211
  53	1	3	0.001076	11.5237	47.1436	-12.364
  54	1	2	0.034038	13.8253	47.0403	-12.0233
  55	1	3	0.050122	12.6111	47.8884	-11.9537
  56	1	5	-0.383076	11.32	44.8613	-13.1377
  57	1	5	-0.380811	14.9632	47.3758	-11.7397
  58	1	3	-0.001248	10.2347	47.6883	-12.4205
  59	1	3	-0.036565	12.4754	49.2233	-11.5737
  60	1	3	-0.208842	11.1903	49.7961	-11.6378
  61	1	3	-0.065319	10.0536	49.0538	-12.069
  62	1	6	0.153391	9.42084	47.0509	-12.7507
  63	1	6	0.155343	13.3426	49.7974	-11.2541
  64	1	6	0.174191	11.0842	50.8429	-11.361
  65	1	7	-0.106637	8.68213	49.7877	-12.157
  66	1	7	0.445763	7.58356	49.0072	-12.9759
  67	1	8	-0.144255	6.49654	49.7759	-13.2128
  68	1	8	-0.136881	7.14659	47.8922	-12.3488
  69	1	8	-0.144092	8.03614	48.6218	-14.1906
  70	1	7	0.367264	8.17251	49.9776	-10.6768
  71	1	8	-0.12104	8.20427	48.8126	-9.9905
  72	1	8	-0.122614	6.90374	50.4378	-10.602
  73	1	8	-0.112321	8.94343	50.8423	-9.97957
  74	1	3	-0.021957	8.93595	51.1212	-12.9172
  75	1	3	-0.054241	8.42562	52.3763	-12.4878
  76	1	3	-0.111709	8.75242	53.5234	-13.2252
  77	1	3	-0.087244	9.72249	51.0811	-14.1038
  78	1	3	-0.118951	10.0326	52.2432	-14.8327
  79	1	3	-0.044875	9.53747	53.4581	-14.3583
  80	1	2	0.461883	9.68952	54.827	-14.9087
  81	1	1	-0.007433	8.95676	55.6471	-14.0637
  82	1	2	0.491356	8.3712	54.9476	-13.0164
  83	1	3	-0.019445	8.78396	57.0374	-14.2991
  84	1	3	-0.186861	9.45523	57.9548	-13.472
  85	1	3	-0.068374	9.37303	59.331	-13.7197
  86	1	3	-0.009193	7.99537	57.4942	-15.3813
  87	1	3	0.220761	7.93071	58.8865	-15.6405
  88	1	3	-0.402098	8.62062	59.7948	-14.8078
  89	1	6	0.148422	10.0536	57.5981	-12.6372
  90	1	6	0.146291	9.90192	60.0321	-13.0758
  91	1	6	0.158981	10.6386	52.2037	-15.7357
  92	1	6	0.141813	10.113	50.1336	-14.466
  93	1	6	0.143633	7.79775	52.4842	-11.6086
  94	1	5	-0.474465	7.67327	55.3827	-12.1178
  95	1	5	-0.469737	10.2993	55.1344	-15.9187
  96	1	7	-0.37887	7.25115	56.4773	-16.2636
  97	1	9	0.115886	6.37837	56.8958	-16.776
  98	1	9	0.123845	6.8618	55.6387	-15.6728
  99	1	9	0.138418	7.92215	56.0651	-17.03
 100	1	6	0.21348	8.57012	60.8628	-15.0063
 101	1	1	0.486064	20.5456	34.5347	-3.48277
 102	1	2	0.047133	19.999	35.7184	-2.99119
 103	1	3	0.001076	19.8043	36.5815	-4.18241
 104	1	2	0.034038	20.6983	34.5448	-4.86882
 105	1	3	0.050122	20.2243	35.8869	-5.29755
 106	1	5	-0.383076	19.7716	36.0243	-1.83279
 107	1	5	-0.380811	21.1678	33.6775	-5.58654
 108	1	3	-0.001248	19.3451	37.9003	-4.26132
 109	1	3	-0.036565	20.2211	36.4827	-6.56093
 110	1	3	-0.208842	19.7678	37.8156	-6.66281
 111	1	3	-0.065319	19.3049	38.5424	-5.52868
 112	1	6	0.153391	19.0574	38.3942	-3.3399
 113	1	6	0.155343	20.5827	35.9348	-7.42855
 114	1	6	0.174191	19.7913	38.293	-7.64043
 115	1	7	-0.106637	18.8625	40.0284	-5.70117
 116	1	7	0.445763	17.9424	40.5473	-4.53235
 117	1	8	-0.144255	16.9313	39.6837	-4.28527
 118	1	8	-0.136881	17.3632	41.7319	-4.83418
 119	1	8	-0.144092	18.6057	40.7333	-3.36918
 120	1	7	0.367264	20.1914	40.8747	-5.73273
 121	1	8	-0.12104	21.0325	40.5201	-4.73416
 122	1	8	-0.122614	19.9889	42.2048	-5.60121
 123	1	8	-0.112321	20.8703	40.6839	-6.88669
 124	1	3	-0.021957	18.0138	40.1665	-7.00064
 125	1	3	-0.054241	18.0816	41.3154	-7.83338
 126	1	3	-0.111709	17.2494	41.3897	-8.95616
 127	1	3	-0.087244	17.0697	39.1528	-7.33214
 128	1	3	-0.118951	16.2489	39.2424	-8.47537
 129	1	3	-0.044875	16.3649	40.3815	-9.27714
 130	1	2	0.461883	15.6128	40.7898	-10.495
 131	1	1	-0.007433	16.0921	42.0514	-10.8175
 132	1	2	0.491356	17.0849	42.4824	-9.94929
 133	1	3	-0.019445	15.5846	42.8476	-11.879
 134	1	3	-0.186861	16.0605	42.6144	-13.1813
 135	1	3	-0.068374	15.6301	43.4081	-14.2519
 136	1	3	-0.009193	14.6532	43.8847	-11.6344
 137	1	3	0.220761	14.2407	44.7027	-12.7156
 138	1	3	-0.402098	14.7276	44.4543	-14.0181
 139	1	6	0.148422	16.7761	41.8168	-13.364
 140	1	6	0.146291	16.0097	43.2206	-15.2552
 141	1	6	0.158981	15.5292	38.4633	-8.71911
 142	1	6	0.141813	16.9616	38.2823	-6.68991
 143	1	6	0.143633	18.7367	42.1545	-7.62424
 144	1	5	-0.474465	17.6751	43.5483	-9.95136
 145	1	5	-0.469737	14.7325	40.1554	-11.0499
 146	1	7	-0.37887	14.1259	44.1347	-10.2136
 147	1	9	0.115886	14.1084	43.2213	-9.60753
 148	1	9	0.123845	13.0933	44.5047	-10.2076
 149	1	9	0.138418	14.7539	44.8703	-9.69117
 150	1	6	0.21348	14.4106	45.0813	-14.8485
 151	1	1	0.486064	13.3802	20.9078	-1.70295
 152	1	2	0.047133	14.3956	20.8846	-0.747607
 153	1	3	0.001076	14.9511	22.2628	-0.738371
 154	1	2	0.034038	13.2173	22.1615	-2.28831
 155	1	3	0.050122	14.2438	23.0217	-1.64783
 156	1	5	-0.383076	14.7724	19.9464	-0.0655432
 157	1	5	-0.380811	12.418	22.4994	-3.14571
 158	1	3	-0.001248	15.9968	22.8046	0.0180686
 159	1	3	-0.036565	14.5252	24.3764	-1.83392
 160	1	3	-0.208842	15.5673	24.9458	-1.0727
 161	1	3	-0.065319	16.3403	24.1731	-0.159295
 162	1	6	0.153391	16.5041	22.1599	0.72749
 163	1	6	0.155343	13.9441	24.9671	-2.53899
 164	1	6	0.174191	15.7679	26.0078	-1.19666
 165	1	7	-0.106637	17.4685	24.8605	0.668315
 166	1	7	0.445763	16.7761	25.4354	1.96061
 167	1	8	-0.144255	15.9335	26.4493	1.65877
 168	1	8	-0.136881	17.6597	25.8965	2.87433
 169	1	8	-0.144092	16.0243	24.5027	2.58893
 170	1	7	0.367264	18.6147	23.8642	1.09667
 171	1	8	-0.12104	18.2641	23.0266	2.09778
 172	1	8	-0.122614	19.7139	24.5261	1.52458
 173	1	8	-0.112321	19.0133	23.0897	0.0623187
 174	1	3	-0.021957	18.1541	25.9552	-0.210123
 175	1	3	-0.054241	18.4299	27.2695	0.258652
 176	1	3	-0.111709	19.0739	28.1762	-0.594473
 177	1	3	-0.087244	18.5695	25.6169	-1.52981
 178	1	3	-0.118951	19.2211	26.5433	-2.37022
 179	1	3	-0.044875	19.4593	27.8273	-1.87154
 180	1	2	0.461883	20.1469	28.9945	-2.48997
 181	1	1	-0.007433	20.1366	29.9885	-1.52012
 182	1	2	0.491356	19.5034	29.5801	-0.353149
 183	1	3	-0.019445	20.7832	31.2486	-1.66819
 184	1	3	-0.186861	21.9728	31.4599	-0.948062
 185	1	3	-0.068374	22.675	32.6648	-1.06001
 186	1	3	-0.009193	20.2725	32.2657	-2.51359
 187	1	3	0.220761	20.9973	33.4803	-2.63916
 188	1	3	-0.402098	22.1903	33.6687	-1.90669
 189	1	6	0.148422	22.3565	30.6828	-0.291169
 190	1	6	0.146291	23.5917	32.8161	-0.492143
 191	1	6	0.158981	19.5432	26.2701	-3.37324
 192	1	6	0.141813	18.3866	24.616	-1.91276
 193	1	6	0.143633	18.1734	27.6043	1.25844
 194	1	5	-0.474465	19.3453	30.2121	0.676301
 195	1	5	-0.469737	20.6371	29.0359	-3.60505
 196	1	7	-0.37887	18.9603	32.0418	-3.27685
 197	1	9	0.115886	19.1514	31.5154	-4.22249
 198	1	9	0.123845	18.4368	32.9751	-3.51421
 199	1	9	0.138418	18.2489	31.4408	-2.69778
 200	1	6	0.21348	22.7367	34.6061	-1.98815
 201	1	1	0.486064	16.2787	8.34113	-11.1227
 202	1	2	0.047133	15.1218	9.06113	-11.4121
 203	1	3	0.001076	15.1747	10.2485	-10.523
 204	1	2	0.034038	17.0369	8.91697	-10.1053
 205	1	3	0.050122	16.3092	10.16	-9.74325
 206	1	5	-0.383076	14.2751	8.82547	-12.2576
 207	1	5	-0.380811	18.0983	8.53469	-9.64154
 208	1	3	-0.001248	14.327	11.3591	-10.4703
 209	1	3	-0.036565	16.6505	11.1749	-8.84711
 210	1	3	-0.208842	15.8062	12.303	-8.77411
 211	1	3	-0.065319	14.6393	12.4244	-9.5815
 212	1	6	0.153391	13.4764	11.3768	-11.1424
 213	1	6	0.155343	17.5592	11.1017	-8.2531
 214	1	6	0.174191	16.0829	13.1087	-8.09702
 215	1	7	-0.106637	13.8225	13.7533	-9.53092
 216	1	7	0.445763	14.7032	14.8269	-10.2821
 217	1	8	-0.144255	14.0304	15.9493	-10.6199
 218	1	8	-0.136881	15.2121	14.3332	-11.4344
 219	1	8	-0.144092	15.76	15.2157	-9.53302
 220	1	7	0.367264	12.4178	13.6532	-10.2349
 221	1	8	-0.12104	11.655	14.7468	-10.0092
 222	1	8	-0.122614	11.7088	12.6018	-9.76507
 223	1	8	-0.112321	12.5073	13.521	-11.5779
 224	1	3	-0.021957	13.5388	14.1347	-8.04778
 225	1	3	-0.054241	13.4034	15.4876	-7.63729
 226	1	3	-0.111709	13.1022	15.7659	-6.29917
 227	1	3	-0.087244	13.3183	13.115	-7.07781
 228	1	3	-0.118951	13.0298	13.4184	-5.73055
 229	1	3	-0.044875	12.9337	14.7651	-5.36681
 230	1	2	0.461883	12.5976	15.3959	-4.06076
 231	1	1	-0.007433	12.5715	16.7644	-4.30235
 232	1	2	0.491356	12.8604	17.069	-5.62784
 233	1	3	-0.019445	12.1987	17.738	-3.3298
 234	1	3	-0.186861	10.903	17.6564	-2.78607
 235	1	3	-0.068374	10.4404	18.6162	-1.87877
 236	1	3	-0.009193	13.0638	18.7931	-2.94061
 237	1	3	0.220761	12.5796	19.7814	-2.04438
 238	1	3	-0.402098	11.2724	19.6834	-1.51936
 239	1	6	0.148422	10.2422	16.8424	-3.07575
 240	1	6	0.146291	9.43204	18.5409	-1.47443
 241	1	6	0.158981	12.8631	12.6332	-4.99567
 242	1	6	0.141813	13.3601	12.0685	-7.36826
 243	1	6	0.143633	13.498	16.3194	-8.32755
 244	1	5	-0.474465	12.8889	18.1644	-6.16182
 245	1	5	-0.469737	12.3561	14.8097	-3.01955
 246	1	7	-0.37887	14.4939	18.8879	-3.4936
 247	1	9	0.115886	14.8517	17.9418	-3.91381
 248	1	9	0.123845	15.2206	19.1484	-2.71428
 249	1	9	0.138418	14.5552	19.6423	-4.29024
 250	1	6	0.21348	10.8984	20.4465	-0.840151
 251	1	1	0.486064	25.3249	0.95665	-19.2168
 252	1	2	0.047133	24.2336	1.53716	-18.5753
 253	1	3	0.001076	23.7321	2.56442	-19.5204
 254	1	2	0.034038	25.599	1.53374	-20.4555
 255	1	3	0.050122	24.5519	2.57503	-20.6301
 256	1	5	-0.383076	23.7367	1.23442	-17.5036
 257	1	5	-0.380811	26.4287	1.19066	-21.2815
 258	1	3	-0.001248	22.5765	3.3481	-19.4517
 259	1	3	-0.036565	24.2765	3.40354	-21.7209
 260	1	3	-0.208842	23.1264	4.2205	-21.6632
 261	1	3	-0.065319	22.2528	4.20357	-20.5376
 262	1	6	0.153391	21.925	3.24994	-18.5869
 263	1	6	0.155343	24.9149	3.38328	-22.6017
 264	1	6	0.174191	22.9047	4.82724	-22.5351
 265	1	7	-0.106637	20.899	4.97402	-20.5153
 266	1	7	0.445763	20.8772	6.2532	-21.4357
 267	1	8	-0.144255	19.8094	7.03822	-21.1652
 268	1	8	-0.136881	20.8176	5.97352	-22.7572
 269	1	8	-0.144092	21.9728	7.02239	-21.2458
 270	1	7	0.367264	19.8195	3.94898	-21.0327
 271	1	8	-0.12104	20.1879	3.37443	-22.2004
 272	1	8	-0.122614	18.6097	4.51273	-21.2475
 273	1	8	-0.112321	19.6446	2.92984	-20.1603
 274	1	3	-0.021957	20.6355	5.47248	-19.0619
 275	1	3	-0.054241	19.3927	5.29371	-18.3958
 276	1	3	-0.111709	19.2623	5.73435	-17.0734
 277	1	3	-0.087244	21.6818	6.13879	-18.3625
 278	1	3	-0.118951	21.5275	6.57787	-17.0314
 279	1	3	-0.044875	20.2988	6.35044	-16.4051
 280	1	2	0.461883	19.8557	6.63131	-15.0126
 281	1	1	-0.007433	18.556	6.14586	-14.9307
 282	1	2	0.491356	18.1182	5.60565	-16.133
 283	1	3	-0.019445	17.7965	6.11182	-13.7264
 284	1	3	-0.186861	17.5093	4.8521	-13.1688
 285	1	3	-0.068374	16.8128	4.74202	-11.9597
 286	1	3	-0.009193	17.3617	7.2916	-13.0727
 287	1	3	0.220761	16.6774	7.17621	-11.8347
 288	1	3	-0.402098	16.4068	5.90239	-11.2889
 289	1	6	0.148422	17.8335	3.94653	-13.6766
 290	1	6	0.146291	16.6027	3.75903	-11.5407
 291	1	6	0.158981	22.3409	7.06332	-16.4957
 292	1	6	0.141813	22.6399	6.30176	-18.85
 293	1	6	0.143633	18.5393	4.80886	-18.8585
 294	1	5	-0.474465	17.048	5.07554	-16.3739
 295	1	5	-0.469737	20.5267	7.14186	-14.132
 296	1	7	-0.37887	17.6437	8.67426	-13.6803
 297	1	9	0.115886	16.7928	9.35784	-13.5726
 298	1	9	0.123845	17.8409	8.63111	-14.7571
 299	1	9	0.138418	18.5199	9.13717	-13.2054
 300	1	6	0.21348	15.8851	5.81408	-10.339
 301	1	1	0.486064	37.0513	0.0305758	-8.68932
 302	1	2	0.047133	36.9156	-1.22585	-9.28518
 303	1	3	0.001076	35.6434	-1.16488	-10.0505
 304	1	2	0.034038	36.0052	0.893126	-9.02464
 305	1	3	0.050122	35.1082	0.0971846	-9.90215
 306	1	5	-0.383076	37.6846	-2.17202	-9.24451
 307	1	5	-0.380811	35.8621	2.06676	-8.72154
 308	1	3	-0.001248	35.0048	-2.15222	-10.8107
 309	1	3	-0.036565	33.9066	0.449939	-10.5214
 310	1	3	-0.208842	33.2422	-0.53193	-11.2873
 311	1	3	-0.065319	33.7738	-1.8428	-11.4515
 312	1	6	0.153391	35.4603	-3.13525	-10.8635
 313	1	6	0.155343	33.4947	1.44892	-10.3942
 314	1	6	0.174191	32.287	-0.270027	-11.7377
 315	1	7	-0.106637	32.9467	-2.91754	-12.2189
 316	1	7	0.445763	33.8374	-4.05282	-12.8625
 317	1	8	-0.144255	34.9126	-3.5409	-13.5034
 318	1	8	-0.136881	33.144	-4.76403	-13.7804
 319	1	8	-0.144092	34.316	-4.94379	-11.9652
 320	1	7	0.367264	31.9882	-3.57077	-11.1526
 321	1	8	-0.12104	32.6594	-3.98987	-10.0548
 322	1	8	-0.122614	31.321	-4.6472	-11.6271
 323	1	8	-0.112321	31.0712	-2.68488	-10.701
 324	1	3	-0.021957	32.1881	-2.23829	-13.4027
 325	1	3	-0.054241	30.7981	-2.42016	-13.6388
 326	1	3	-0.111709	30.2182	-1.84193	-14.7742
 327	1	3	-0.087244	32.9271	-1.46168	-14.3401
 328	1	3	-0.118951	32.3303	-0.920747	-15.4988
 329	1	3	-0.044875	30.9631	-1.13763	-15.6962
 330	1	2	0.461883	30.0854	-0.816434	-16.8576
 331	1	1	-0.007433	28.8353	-1.33479	-16.5369
 332	1	2	0.491356	28.8328	-1.96072	-15.2961
 333	1	3	-0.019445	27.7048	-1.3233	-17.4089
 334	1	3	-0.186861	27.1734	-2.56745	-17.8
 335	1	3	-0.068374	26.0497	-2.6478	-18.6289
 336	1	3	-0.009193	27.0926	-0.123692	-17.8583
 337	1	3	0.220761	25.9757	-0.210186	-18.729
 338	1	3	-0.402098	25.459	-1.47049	-19.1009
 339	1	6	0.148422	27.6207	-3.48564	-17.4313
 340	1	6	0.146291	25.6378	-3.62011	-18.8954
 341	1	6	0.158981	32.918	-0.383465	-16.2399
 342	1	6	0.141813	33.9924	-1.30762	-14.1916
 343	1	6	0.143633	30.1649	-3.02635	-13.0007
 344	1	5	-0.474465	27.9036	-2.52608	-14.7439
 345	1	5	-0.469737	30.4252	-0.266135	-17.892
 346	1	7	-0.37887	27.607	1.24996	-17.4064
 347	1	9	0.115886	28.2312	1.70649	-18.1871
 348	1	9	0.123845	28.2133	1.19765	-16.4954
 349	1	9	0.138418	26.7887	1.94275	-17.1721
 350	1	6	0.21348	24.5765	-1.52766	-19.7344
 351	1	1	0.486064	36.5445	0.205573	3.73777
 352	1	2	0.047133	37.5713	-0.717289	3.95588
 353	1	3	0.001076	38.6406	-0.344049	3.00155
 354	1	2	0.034038	36.9237	1.21373	2.84617
 355	1	3	0.050122	38.2825	0.832133	2.38157
 356	1	5	-0.383076	37.6091	-1.65278	4.73792
 357	1	5	-0.380811	36.2702	2.16539	2.45055
 358	1	3	-0.001248	39.7784	-1.06158	2.62384
 359	1	3	-0.036565	39.1202	1.4308	1.43805
 360	1	3	-0.208842	40.3036	0.749466	1.08055
 361	1	3	-0.065319	40.6036	-0.549618	1.58562
 362	1	6	0.153391	39.9535	-2.01558	3.10787
 363	1	6	0.155343	38.8408	2.37314	0.971251
 364	1	6	0.174191	40.9497	1.20237	0.330944
 365	1	7	-0.106637	41.8098	-1.35242	0.995428
 366	1	7	0.445763	41.738	-2.89455	1.31622
 367	1	8	-0.144255	42.6582	-3.61028	0.631189
 368	1	8	-0.136881	40.5346	-3.40462	0.968759
 369	1	8	-0.144092	41.9458	-3.17665	2.62208
 370	1	7	0.367264	43.0995	-0.735796	1.65718
 371	1	8	-0.12104	43.3919	0.471803	1.12419
 372	1	8	-0.122614	44.2047	-1.50307	1.52826
 373	1	8	-0.112321	42.934	-0.542545	2.98585
 374	1	3	-0.021957	41.8259	-1.23806	-0.565875
 375	1	3	-0.054241	40.637	-0.961616	-1.29874
 376	1	3	-0.111709	40.7096	-0.791008	-2.68786
 377	1	3	-0.087244	43.0248	-1.44702	-1.3084
 378	1	3	-0.118951	43.061	-1.34398	-2.71323
 379	1	3	-0.044875	41.8822	-0.998309	-3.37723
 380	1	2	0.461883	41.639	-0.712678	-4.81339
 381	1	1	-0.007433	40.3228	-0.265395	-4.89552
 382	1	2	0.491356	39.6875	-0.300031	-3.65452
 383	1	3	-0.019445	39.7878	0.316884	-6.0897
 384	1	3	-0.186861	40.5263	1.36854	-6.66668
 385	1	3	-0.068374	40.1291	1.96053	-7.86725
 386	1	3	-0.009193	38.6026	-0.145532	-6.72629
 387	1	3	0.220761	38.2067	0.450858	-7.96035
 388	1	3	-0.402098	38.9793	1.49751	-8.51187
 389	1	6	0.148422	41.4377	1.72199	-6.18954
 390	1	6	0.146291	40.7197	2.76715	-8.29905
 391	1	6	0.158981	43.9854	-1.49416	-3.26797
 392	1	6	0.141813	43.951	-1.70543	-0.808455
 393	1	6	0.143633	39.6747	-0.834372	-0.810227
 394	1	5	-0.474465	38.5906	0.138847	-3.35447
 395	1	5	-0.469737	42.4743	-0.771494	-5.6997
 396	1	7	-0.37887	37.7726	-1.25347	-6.06014
 397	1	9	0.115886	38.4131	-2.05036	-5.66323
 398	1	9	0.123845	37.063	-1.74989	-6.72728
 399	1	9	0.138418	37.1835	-0.849368	-5.22606
 400	1	6	0.21348	38.6743	1.9645	-9.44595
 401	1	1	0.486064	34.8843	-10.842	6.1742
 402	1	2	0.047133	34.6223	-9.62489	5.54515
 403	1	3	0.001076	33.2065	-9.70978	5.11182
 404	1	2	0.034038	33.7915	-11.7111	6.13999
 405	1	3	0.050122	32.713	-10.9475	5.4635
 406	1	5	-0.383076	35.3414	-8.64349	5.45951
 407	1	5	-0.380811	33.6796	-12.8133	6.65095
 408	1	3	-0.001248	32.3876	-8.72474	4.55496
 409	1	3	-0.036565	31.3725	-11.2781	5.25154
 410	1	3	-0.208842	30.5215	-10.2906	4.70992
 411	1	3	-0.065319	31.0007	-8.98706	4.39266
 412	1	6	0.153391	32.8199	-7.7554	4.31753
 413	1	6	0.155343	30.9973	-12.2584	5.53807
 414	1	6	0.174191	29.4782	-10.5543	4.56984
 415	1	7	-0.106637	30.0688	-7.84051	3.89568
 416	1	7	0.445763	28.5575	-8.02458	4.30186
 417	1	8	-0.144255	28.4244	-8.33117	5.61225
 418	1	8	-0.136881	27.9242	-8.99421	3.6043
 419	1	8	-0.144092	27.8514	-6.88806	4.10568
 420	1	7	0.367264	30.1879	-7.82699	2.32615
 421	1	8	-0.12104	29.973	-9.05299	1.79678
 422	1	8	-0.122614	31.4274	-7.4623	1.92682
 423	1	8	-0.112321	29.3074	-6.9898	1.73324
 424	1	3	-0.021957	30.5467	-6.52029	4.57496
 425	1	3	-0.054241	30.757	-5.31057	3.85971
 426	1	3	-0.111709	31.3197	-4.21762	4.53148
 427	1	3	-0.087244	30.8378	-6.53545	5.96996
 428	1	3	-0.118951	31.4196	-5.43049	6.62159
 429	1	3	-0.044875	31.6732	-4.28592	5.86258
 430	1	2	0.461883	32.3929	-3.03598	6.22128
 431	1	1	-0.007433	32.4474	-2.29057	5.05158
 432	1	2	0.491356	31.7636	-2.8995	4.00549
 433	1	3	-0.019445	33.2051	-1.08937	4.94203
 434	1	3	-0.186861	32.727	0.0557334	5.60141
 435	1	3	-0.068374	33.4761	1.23666	5.61544
 436	1	3	-0.009193	34.4579	-1.06172	4.27528
 437	1	3	0.220761	35.2461	0.125557	4.33669
 438	1	3	-0.402098	34.732	1.265	4.99735
 439	1	6	0.148422	31.772	0.0260515	6.12001
 440	1	6	0.146291	33.0913	2.12022	6.12224
 441	1	6	0.158981	31.7041	-5.47464	7.67118
 442	1	6	0.141813	30.6689	-7.44004	6.54927
 443	1	6	0.143633	30.55	-5.21046	2.79918
 444	1	5	-0.474465	31.6179	-2.49778	2.86395
 445	1	5	-0.469737	32.8966	-2.7798	7.30142
 446	1	7	-0.37887	34.9381	-2.32276	3.53273
 447	1	9	0.115886	35.7221	-2.12448	2.79565
 448	1	9	0.123845	34.1432	-2.8008	2.95345
 449	1	9	0.138418	35.3313	-3.06511	4.24134
 450	1	6	0.21348	35.3109	2.18647	5.01817
 451	1	1	0.486064	47.4519	-15.0355	2.44146
 452	1	2	0.047133	47.4665	-15.4161	3.7826
 453	1	3	0.001076	46.0765	-15.8404	4.08312
 454	1	2	0.034038	46.1834	-15.1354	1.86699
 455	1	3	0.050122	45.3136	-15.6712	2.94647
 456	1	5	-0.383076	48.411	-15.4408	4.55407
 457	1	5	-0.380811	45.8489	-14.8973	0.717953
 458	1	3	-0.001248	45.5468	-16.3921	5.25441
 459	1	3	-0.036565	43.9657	-16.0369	2.9215
 460	1	3	-0.208842	43.4102	-16.5959	4.09218
 461	1	3	-0.065319	44.1806	-16.7842	5.27478
 462	1	6	0.153391	46.2133	-16.5288	6.09886
 463	1	6	0.155343	43.3785	-15.9134	2.01405
 464	1	6	0.174191	42.3687	-16.9096	4.06772
 465	1	7	-0.106637	43.5287	-17.5019	6.49503
 466	1	7	0.445763	43.5233	-19.0384	6.13994
 467	1	8	-0.144255	42.6324	-19.3219	5.16285
 468	1	8	-0.136881	43.2249	-19.8351	7.19098
 469	1	8	-0.144092	44.7274	-19.4486	5.68012
 470	1	7	0.367264	44.3126	-17.2893	7.84542
 471	1	8	-0.12104	44.5779	-15.9816	8.06453
 472	1	8	-0.122614	45.4915	-17.9499	7.89122
 473	1	8	-0.112321	43.5956	-17.7109	8.91216
 474	1	3	-0.021957	42.1064	-16.9111	6.72601
 475	1	3	-0.054241	41.9271	-15.5041	6.66346
 476	1	3	-0.111709	40.6584	-14.9661	6.91446
 477	1	3	-0.087244	40.9826	-17.7185	7.06895
 478	1	3	-0.118951	39.7148	-17.156	7.31826
 479	1	3	-0.044875	39.5824	-15.7683	7.23023
 480	1	2	0.461883	38.4007	-14.8991	7.46778
 481	1	1	-0.007433	38.8522	-13.5998	7.27489
 482	1	2	0.491356	40.2002	-13.5512	6.94166
 483	1	3	-0.019445	38.0318	-12.4514	7.45604
 484	1	3	-0.186861	38.3197	-11.595	8.53434
 485	1	3	-0.068374	37.5106	-10.4862	8.80352
 486	1	3	-0.009193	36.9229	-12.19	6.61339
 487	1	3	0.220761	36.0736	-11.0946	6.91914
 488	1	3	-0.402098	36.3849	-10.2467	8.00676
 489	1	6	0.148422	39.1795	-11.7897	9.17081
 490	1	6	0.146291	37.7481	-9.82693	9.63741
 491	1	6	0.158981	38.8626	-17.7769	7.58862
 492	1	6	0.141813	41.0702	-18.7944	7.16494
 493	1	6	0.143633	42.7558	-14.8367	6.43653
 494	1	5	-0.474465	40.8927	-12.5681	6.74589
 495	1	5	-0.469737	37.2848	-15.272	7.78752
 496	1	7	-0.37887	36.6545	-13.0852	5.39487
 497	1	9	0.115886	37.5791	-13.4951	4.9714
 498	1	9	0.123845	36.1671	-12.545	4.5744
 499	1	9	0.138418	36.0091	-13.9314	5.67142
 500	1	6	0.21348	35.7518	-9.38942	8.22699
 501	1	1	0.486064	51.0449	-24.7043	-7.60023
 502	1	2	0.047133	52.014	-23.7264	-7.84849
 503	1	3	0.001076	51.5823	-22.5336	-7.07547
 504	1	2	0.034038	50.0581	-24.2532	-6.71717
 505	1	3	0.050122	50.4374	-22.8602	-6.38175
 506	1	5	-0.383076	52.9803	-23.782	-8.59125
 507	1	5	-0.380811	49.0225	-24.8031	-6.38101
 508	1	3	-0.001248	52.101	-21.2327	-7.06835
 509	1	3	-0.036565	49.7745	-21.9217	-5.58989
 510	1	3	-0.208842	50.2964	-20.6139	-5.54323
 511	1	3	-0.065319	51.4442	-20.2358	-6.29569
 512	1	6	0.153391	52.9662	-21.0231	-7.68823
 513	1	6	0.155343	48.8654	-22.1929	-5.0574
 514	1	6	0.174191	49.7675	-19.8729	-4.94718
 515	1	7	-0.106637	51.8614	-18.7352	-6.3079
 516	1	7	0.445763	50.8074	-17.995	-7.22172
 517	1	8	-0.144255	51.1402	-16.7127	-7.49042
 518	1	8	-0.136881	49.5758	-17.9713	-6.66322
 519	1	8	-0.144092	50.6592	-18.6161	-8.4142
 520	1	7	0.367264	53.3028	-18.4757	-6.89003
 521	1	8	-0.12104	53.3862	-18.684	-8.22325
 522	1	8	-0.122614	54.2318	-19.268	-6.30945
 523	1	8	-0.112321	53.7062	-17.2038	-6.67001
 524	1	3	-0.021957	51.8802	-18.2323	-4.83513
 525	1	3	-0.054241	51.2666	-17.0194	-4.42057
 526	1	3	-0.111709	51.3053	-16.6713	-3.06439
 527	1	3	-0.087244	52.5396	-19.0238	-3.85258
 528	1	3	-0.118951	52.5792	-18.6473	-2.49539
 529	1	3	-0.044875	51.9438	-17.4584	-2.12861
 530	1	2	0.461883	51.7367	-16.8535	-0.786397
 531	1	1	-0.007433	50.9311	-15.7445	-1.00415
 532	1	2	0.491356	50.6578	-15.5393	-2.34903
 533	1	3	-0.019445	50.3474	-14.9823	0.0436033
 534	1	3	-0.186861	50.9623	-13.7762	0.421404
 535	1	3	-0.068374	50.4268	-12.9975	1.45426
 536	1	3	-0.009193	49.1721	-15.4249	0.69998
 537	1	3	0.220761	48.6234	-14.6262	1.73851
 538	1	3	-0.402098	49.2641	-13.4229	2.11011
 539	1	6	0.148422	51.8643	-13.442	-0.0856572
 540	1	6	0.146291	50.9157	-12.0697	1.74718
 541	1	6	0.158981	53.065	-19.2707	-1.74717
 542	1	6	0.141813	53.0171	-19.9569	-4.14061
 543	1	6	0.143633	50.7433	-16.3598	-5.10558
 544	1	5	-0.474465	49.9555	-14.679	-2.84984
 545	1	5	-0.469737	52.0981	-17.321	0.279702
 546	1	7	-0.37887	48.504	-16.7408	0.267201
 547	1	9	0.115886	47.9129	-17.2042	1.06502
 548	1	9	0.123845	49.2295	-17.5054	-0.0301551
 549	1	9	0.138418	47.8307	-16.5661	-0.583701
 550	1	6	0.21348	48.862	-12.8223	2.92321
 551	1	1	0.486064	42.1208	-30.4039	-2.30748
 552	1	2	0.047133	42.1109	-31.2024	-3.45322
 553	1	3	0.001076	43.517	-31.6544	-3.62843
 554	1	2	0.034038	43.3892	-30.3084	-1.73319
 555	1	3	0.050122	44.2737	-31.1122	-2.61069
 556	1	5	-0.383076	41.1633	-31.5036	-4.15996
 557	1	5	-0.380811	43.7211	-29.732	-0.710207
 558	1	3	-0.001248	44.0785	-32.5046	-4.59028
 559	1	3	-0.036565	45.6413	-31.3672	-2.50711
 560	1	3	-0.208842	46.2305	-32.2047	-3.47519
 561	1	3	-0.065319	45.4702	-32.7957	-4.52347
 562	1	6	0.153391	43.4237	-32.919	-5.34957
 563	1	6	0.155343	46.222	-30.9344	-1.69529
 564	1	6	0.174191	47.2965	-32.4063	-3.3965
 565	1	7	-0.106637	46.1967	-33.7574	-5.5133
 566	1	7	0.445763	45.3461	-34.118	-6.79048
 567	1	8	-0.144255	44.8814	-33.0114	-7.41338
 568	1	8	-0.136881	44.2765	-34.8967	-6.51169
 569	1	8	-0.144092	46.0819	-34.7799	-7.71238
 570	1	7	0.367264	46.4941	-35.0839	-4.71165
 571	1	8	-0.12104	46.9129	-36.1052	-5.49213
 572	1	8	-0.122614	47.4434	-34.9048	-3.76538
 573	1	8	-0.112321	45.3938	-35.5258	-4.06079
 574	1	3	-0.021957	47.4747	-33.0351	-6.03089
 575	1	3	-0.054241	47.3692	-31.6768	-6.42287
 576	1	3	-0.111709	48.4957	-31.0242	-6.93224
 577	1	3	-0.087244	48.7347	-33.6837	-6.18736
 578	1	3	-0.118951	49.8607	-33.0025	-6.70034
 579	1	3	-0.044875	49.7104	-31.6614	-7.06897
 580	1	2	0.461883	50.6782	-30.6966	-7.66653
 581	1	1	-0.007433	49.9582	-29.5243	-7.85318
 582	1	2	0.491356	48.6398	-29.6375	-7.43623
 583	1	3	-0.019445	50.4656	-28.335	-8.44314
 584	1	3	-0.186861	50.5755	-28.2841	-9.84252
 585	1	3	-0.068374	50.9049	-27.0864	-10.4842
 586	1	3	-0.009193	50.7178	-27.1834	-7.65931
 587	1	3	0.220761	50.9692	-25.9449	-8.31363
 588	1	3	-0.402098	51.0715	-25.9215	-9.72502
 589	1	6	0.148422	50.3839	-29.1734	-10.4381
 590	1	6	0.146291	50.9869	-27.0535	-11.5697
 591	1	6	0.158981	50.8177	-33.5057	-6.82451
 592	1	6	0.141813	48.8616	-34.7289	-5.92797
 593	1	6	0.143633	46.4283	-31.1353	-6.35155
 594	1	5	-0.474465	47.7601	-28.7957	-7.48156
 595	1	5	-0.469737	51.8473	-30.9115	-7.93484
 596	1	7	-0.37887	50.6981	-27.3174	-6.13023
 597	1	9	0.115886	51.2436	-26.5132	-5.62371
 598	1	9	0.123845	51.1709	-28.2523	-5.8038
 599	1	9	0.138418	49.6663	-27.3105	-5.75144
 600	1	6	0.21348	51.2838	-24.986	-10.2398
 601	1	1	0.486064	35.9301	-16.2082	0.0173965
 602	1	2	0.047133	37.2535	-16.337	0.450803
 603	1	3	0.001076	37.4	-17.7679	0.838043
 604	1	2	0.034038	35.2079	-17.3927	0.153804
 605	1	3	0.050122	36.1749	-18.3821	0.680312
 606	1	5	-0.383076	38.1173	-15.4788	0.525918
 607	1	5	-0.380811	34.0352	-17.6029	-0.109521
 608	1	3	-0.001248	38.5337	-18.4873	1.24236
 609	1	3	-0.036565	35.993	-19.7341	0.968686
 610	1	3	-0.208842	37.1169	-20.473	1.38336
 611	1	3	-0.065319	38.4091	-19.8844	1.48818
 612	1	6	0.153391	39.4777	-17.958	1.31502
 613	1	6	0.155343	35.0165	-20.1988	0.846689
 614	1	6	0.174191	36.9848	-21.5352	1.58035
 615	1	7	-0.106637	39.616	-20.8169	1.81948
 616	1	7	0.445763	41.0192	-20.1663	1.525
 617	1	8	-0.144255	41.0834	-19.6792	0.265233
 618	1	8	-0.136881	42.024	-21.0652	1.62942
 619	1	8	-0.144092	41.3168	-19.1462	2.36139
 620	1	7	0.367264	39.5174	-21.1548	3.35644
 621	1	8	-0.12104	40.6188	-21.7643	3.84864
 622	1	8	-0.122614	38.4689	-21.9643	3.62716
 623	1	8	-0.112321	39.3362	-20.0367	4.097
 624	1	3	-0.021957	39.5087	-22.0692	0.894229
 625	1	3	-0.054241	39.8191	-23.3863	1.331
 626	1	3	-0.111709	39.6586	-24.4535	0.433564
 627	1	3	-0.087244	39.0988	-21.8919	-0.459419
 628	1	3	-0.118951	38.9301	-22.9785	-1.33889
 629	1	3	-0.044875	39.2101	-24.2583	-0.856579
 630	1	2	0.461883	39.139	-25.5775	-1.53877
 631	1	1	-0.007433	39.585	-26.5007	-0.605021
 632	1	2	0.491356	39.9082	-25.9109	0.611122
 633	1	3	-0.019445	39.7133	-27.8919	-0.873587
 634	1	3	-0.186861	38.6878	-28.7522	-0.443736
 635	1	3	-0.068374	38.7716	-30.1309	-0.671188
 636	1	3	-0.009193	40.8474	-28.4104	-1.54611
 637	1	3	0.220761	40.9531	-29.8154	-1.73476
 638	1	3	-0.402098	39.9027	-30.659	-1.30706
 639	1	6	0.148422	37.8182	-28.3489	0.0694522
 640	1	6	0.146291	37.9678	-30.7875	-0.341485
 641	1	6	0.158981	38.5975	-22.832	-2.36478
 642	1	6	0.141813	38.8873	-20.8954	-0.838776
 643	1	6	0.143633	40.1741	-23.6	2.33441
 644	1	5	-0.474465	40.3077	-26.4518	1.62703