pySIMM System Object

1352 atoms
1486 bonds
2592 angles
3992 dihedrals
432 impropers

9 atom types
11 bond types
18 angle types
7 dihedral types
4 improper types

-178.909572 178.909572 xlo xhi
-178.909572 178.909572 ylo yhi
-178.909572 178.909572 zlo zhi

Masses

   1	14.01	# n
   2	12.01	# c
   3	12.01	# ca
   4	1.008	# hn
   5	16.0	# o
   6	1.008	# ha
   7	12.01	# c3
   8	19.0	# f
   9	1.008	# hc

Pair Coeffs

   1	0.17	3.249998523775958	# n
   2	0.086	3.3996695084235347	# c
   3	0.086	3.3996695084235347	# ca
   4	0.0157	1.069078461768407	# hn
   5	0.21	2.959921901149463	# o
   6	0.015	2.59964245953351	# ha
   7	0.1094	3.3996695084235347	# c3
   8	0.061	3.1181455134911875	# f
   9	0.0157	2.649532787749369	# hc

Bond Coeffs

   1	427.6	1.3789	# c,n
   2	461.1	1.3984	# ca,ca
   3	345.9	1.4906	# c,ca
   4	345.8	1.086	# ca,ha
   5	637.7	1.2183	# c,o
   6	321.0	1.5156	# c3,ca
   7	300.9	1.5375	# c3,c3
   8	356.9	1.3497	# c3,f
   9	384.2	1.4121	# ca,n
  10	330.6	1.0969	# c3,hc
  11	403.2	1.0129	# hn,n

Angle Coeffs

   1	48.18	119.88	# ca,ca,ha
   2	63.15	112.07	# c3,c3,ca
   3	70.89	107.36	# f,c3,f
   4	67.87	120.19	# ca,ca,n
   5	68.72	122.6	# ca,c,o
   6	63.56	112.24	# ca,c3,ca
   7	63.82	123.71	# c,n,ca
   8	74.22	123.05	# n,c,o
   9	48.33	117.55	# c,n,hn
  10	67.68	115.25	# ca,c,n
  11	64.28	120.33	# c,ca,ca
  12	66.11	109.24	# c3,c3,f
  13	46.8	110.47	# ca,c3,hc
  14	39.4	107.58	# hc,c3,hc
  15	66.62	120.02	# ca,ca,ca
  16	63.53	120.77	# c3,ca,ca
  17	62.86	111.51	# c3,c3,c3
  18	63.74	127.08	# c,n,c

Dihedral Coeffs

   1	1	2.5	2	180	# X,c,n,X
   2	1	0.45	2	180	# X,ca,n,X
   3	2	2.5	2	180	2.0	1	0	# hn,n,c,o
   4	1	3.625	2	180	# X,ca,ca,X
   5	1	1.0	2	180	# X,c,ca,X
   6	1	0.15555555555555556	3	0	# X,c3,c3,X
   7	1	0.0	2	0	# X,c3,ca,X

Improper Coeffs

   1	1.1	-1	2	# ca,ca,ca,c3
   2	10.5	-1	2	# c,X,X,o
   3	1.1	-1	2	# ca,X,X,ha
   4	1.1	-1	2	# n,X,X,hn

Atoms

   1	1	1	0.486064	-28.8787	-38.4701	-46.9213
   2	1	2	0.047133	-29.8915	-38.9524	-46.0825
   3	1	3	0.001076	-30.7318	-39.8331	-46.9332
   4	1	2	0.034038	-28.9354	-39.0541	-48.1929
   5	1	3	0.050122	-30.1506	-39.9137	-48.1795
   6	1	5	-0.383076	-30.1567	-38.6155	-44.94
   7	1	5	-0.380811	-28.2799	-38.778	-49.1835
   8	1	3	-0.001248	-32.0145	-40.3385	-46.684
   9	1	3	-0.036565	-30.7981	-40.5641	-49.2346
  10	1	3	-0.208842	-32.0868	-41.0933	-49.0021
  11	1	3	-0.065319	-32.7321	-40.9647	-47.7404
  12	1	6	0.153391	-32.4548	-40.1462	-45.7118
  13	1	6	0.155343	-30.3468	-40.5851	-50.2243
  14	1	6	0.174191	-32.6212	-41.5314	-49.8427
  15	1	7	-0.106637	-34.2483	-41.3104	-47.6229
  16	1	7	0.445763	-34.7174	-41.5846	-46.1413
  17	1	8	-0.144255	-33.8801	-42.4327	-45.5028
  18	1	8	-0.136881	-35.9424	-42.1573	-46.1043
  19	1	8	-0.144092	-34.7986	-40.4702	-45.3806
  20	1	7	0.367264	-35.0153	-40.0461	-48.172
  21	1	8	-0.12104	-34.5752	-38.9003	-47.6033
  22	1	8	-0.122614	-36.3485	-40.0935	-47.9506
  23	1	8	-0.112321	-34.8306	-39.8904	-49.5031
  24	1	3	-0.021957	-34.5624	-42.6132	-48.4208
  25	1	3	-0.054241	-35.6742	-42.7299	-49.3001
  26	1	3	-0.111709	-35.9491	-43.9686	-49.8906
  27	1	3	-0.087244	-33.766	-43.7704	-48.1932
  28	1	3	-0.118951	-34.0701	-45.0137	-48.7874
  29	1	3	-0.044875	-35.1836	-45.0843	-49.6307
  30	1	2	0.461883	-35.7883	-46.2403	-50.3485
  31	1	1	-0.007433	-36.9019	-45.7322	-51.0064
  32	1	2	0.491356	-37.0549	-44.3661	-50.8013
  33	1	3	-0.019445	-37.7767	-46.5246	-51.8051
  34	1	3	-0.186861	-37.2642	-47.1459	-52.961
  35	1	3	-0.068374	-38.0855	-47.9396	-53.7759
  36	1	3	-0.009193	-39.1346	-46.7142	-51.4529
  37	1	3	0.220761	-39.9537	-47.5057	-52.2838
  38	1	3	-0.402098	-39.4348	-48.1147	-53.4369
  39	1	6	0.148422	-36.2177	-47.0208	-53.2264
  40	1	6	0.146291	-37.6743	-48.4169	-54.6638
  41	1	6	0.158981	-33.4749	-45.9013	-48.5818
  42	1	6	0.141813	-32.9151	-43.7146	-47.5191
  43	1	6	0.143633	-36.3468	-41.9068	-49.5171
  44	1	5	-0.474465	-37.8948	-43.6188	-51.2723
  45	1	5	-0.469737	-35.381	-47.3892	-50.3359
  46	1	7	-0.37887	-39.7334	-46.0941	-50.1899
  47	1	9	0.115886	-39.9262	-45.0227	-50.3327
  48	1	9	0.123845	-39.07	-46.2122	-49.3246
  49	1	9	0.138418	-40.6908	-46.5616	-49.927
  50	1	6	0.21348	-40.0826	-48.7258	-54.0589
  51	1	1	0.486064	-16.4878	-28.3849	-45.2985
  52	1	2	0.047133	-16.2057	-29.7481	-45.1778
  53	1	3	0.001076	-17.4382	-30.4526	-45.6183
  54	1	2	0.034038	-17.815	-28.1548	-45.6764
  55	1	3	0.050122	-18.3977	-29.51	-45.9152
  56	1	5	-0.383076	-15.1234	-30.2751	-44.9822
  57	1	5	-0.380811	-18.3365	-27.0903	-45.964
  58	1	3	-0.001248	-17.6044	-31.8032	-45.9496
  59	1	3	-0.036565	-19.5965	-29.8864	-46.5363
  60	1	3	-0.208842	-19.7786	-31.2456	-46.8929
  61	1	3	-0.065319	-18.7807	-32.2262	-46.6311
  62	1	6	0.153391	-16.765	-32.4684	-45.7788
  63	1	6	0.155343	-20.3271	-29.129	-46.812
  64	1	6	0.174191	-20.6726	-31.5123	-47.4513
  65	1	7	-0.106637	-18.8553	-33.6499	-47.2747
  66	1	7	0.445763	-17.9101	-33.5943	-48.5426
  67	1	8	-0.144255	-17.7998	-34.7908	-49.1641
  68	1	8	-0.136881	-16.646	-33.2064	-48.2609
  69	1	8	-0.144092	-18.3513	-32.6883	-49.4459
  70	1	7	0.367264	-18.3113	-34.7673	-46.2954
  71	1	8	-0.12104	-16.9661	-34.8082	-46.1789
  72	1	8	-0.122614	-18.6816	-36.0043	-46.6988
  73	1	8	-0.112321	-18.7857	-34.6038	-45.0407
  74	1	3	-0.021957	-20.3275	-34.0721	-47.6481
  75	1	3	-0.054241	-21.3	-34.2643	-46.6235
  76	1	3	-0.111709	-22.5477	-34.8337	-46.9467
  77	1	3	-0.087244	-20.7188	-34.4019	-48.9839
  78	1	3	-0.118951	-21.9831	-34.94	-49.2899
  79	1	3	-0.044875	-22.8726	-35.1699	-48.2425
  80	1	2	0.461883	-24.2465	-35.7365	-48.2678
  81	1	1	-0.007433	-24.6891	-35.7064	-46.9523
  82	1	2	0.491356	-23.7214	-35.1857	-46.0922
  83	1	3	-0.019445	-26.0512	-35.9533	-46.5931
  84	1	3	-0.186861	-26.7877	-34.8504	-46.1267
  85	1	3	-0.068374	-28.1586	-34.9528	-45.8854
  86	1	3	-0.009193	-26.6986	-37.2047	-46.7999
  87	1	3	0.220761	-28.1092	-37.297	-46.6079
  88	1	3	-0.402098	-28.8139	-36.1589	-46.1478
  89	1	6	0.148422	-26.2951	-33.8948	-45.9634
  90	1	6	0.146291	-28.7158	-34.089	-45.5262
  91	1	6	0.158981	-22.2562	-35.1978	-50.3118
  92	1	6	0.141813	-20.0504	-34.2832	-49.8266
  93	1	6	0.143633	-21.085	-34.0174	-45.5873
  94	1	5	-0.474465	-23.8215	-34.9685	-44.8974
  95	1	5	-0.469737	-24.8669	-36.0614	-49.2656
  96	1	7	-0.37887	-25.8717	-38.4236	-47.2252
  97	1	9	0.115886	-26.3209	-39.3703	-46.9024
  98	1	9	0.123845	-24.8626	-38.4015	-46.7961
  99	1	9	0.138418	-25.7681	-38.4613	-48.3191
 100	1	6	0.21348	-29.8886	-36.2123	-45.9833
 101	1	1	0.486064	-8.49747	-16.4772	-37.441
 102	1	2	0.047133	-9.5979	-17.028	-38.1202
 103	1	3	0.001076	-9.09267	-18.2577	-38.796
 104	1	2	0.034038	-7.37582	-17.3061	-37.5233
 105	1	3	0.050122	-7.77697	-18.4222	-38.423
 106	1	5	-0.383076	-10.6991	-16.5334	-38.2968
 107	1	5	-0.380811	-6.23943	-17.0778	-37.1433
 108	1	3	-0.001248	-9.66872	-19.022	-39.8306
 109	1	3	-0.036565	-6.98196	-19.3971	-39.0235
 110	1	3	-0.208842	-7.53132	-20.1552	-40.0786
 111	1	3	-0.065319	-8.86476	-19.9532	-40.5532
 112	1	6	0.153391	-10.6845	-18.7928	-40.1378
 113	1	6	0.155343	-5.93387	-19.4921	-38.7469
 114	1	6	0.174191	-6.84352	-20.8325	-40.5698
 115	1	7	-0.106637	-9.35386	-20.5109	-41.9483
 116	1	7	0.445763	-9.68611	-19.2419	-42.8409
 117	1	8	-0.144255	-10.8859	-18.7058	-42.5258
 118	1	8	-0.136881	-9.72649	-19.4788	-44.171
 119	1	8	-0.144092	-8.76661	-18.2632	-42.6743
 120	1	7	0.367264	-8.23923	-21.3448	-42.7027
 121	1	8	-0.12104	-7.14383	-20.6077	-42.9974
 122	1	8	-0.122614	-8.67399	-21.8686	-43.8719
 123	1	8	-0.112321	-7.83439	-22.4175	-41.9839
 124	1	3	-0.021957	-10.558	-21.4996	-41.8243
 125	1	3	-0.054241	-11.4881	-21.6703	-42.8895
 126	1	3	-0.111709	-12.3282	-22.7946	-42.9053
 127	1	3	-0.087244	-10.5807	-22.4545	-40.7707
 128	1	3	-0.118951	-11.428	-23.5881	-40.8123
 129	1	3	-0.044875	-12.2763	-23.7516	-41.9175
 130	1	2	0.461883	-13.0651	-24.9386	-42.3772
 131	1	1	-0.007433	-13.5274	-24.6233	-43.6558
 132	1	2	0.491356	-13.1803	-23.3179	-44.008
 133	1	3	-0.019445	-14.0014	-25.5878	-44.6149
 134	1	3	-0.186861	-13.2494	-25.6978	-45.8032
 135	1	3	-0.068374	-13.5834	-26.6168	-46.7998
 136	1	3	-0.009193	-15.1269	-26.4463	-44.425
 137	1	3	0.220761	-15.4415	-27.4132	-45.4262
 138	1	3	-0.402098	-14.6686	-27.4731	-46.6067
 139	1	6	0.148422	-12.3868	-25.0559	-45.9664
 140	1	6	0.146291	-12.9875	-26.676	-47.7094
 141	1	6	0.158981	-11.3614	-24.3652	-40.0535
 142	1	6	0.141813	-9.85592	-22.38	-39.9639
 143	1	6	0.143633	-11.4925	-21.0273	-43.7633
 144	1	5	-0.474465	-13.3718	-22.7498	-45.0694
 145	1	5	-0.469737	-13.1192	-26.0157	-41.8088
 146	1	7	-0.37887	-15.9873	-26.3491	-43.1628
 147	1	9	0.115886	-15.718	-27.1355	-42.4449
 148	1	9	0.123845	-17.0571	-26.4421	-43.3903
 149	1	9	0.138418	-15.8701	-25.3868	-42.6516
 150	1	6	0.21348	-14.9006	-28.211	-47.3721
 151	1	1	0.486064	-6.34784	-3.93224	-26.2339
 152	1	2	0.047133	-7.03711	-3.85448	-27.4479
 153	1	3	0.001076	-6.72018	-5.11899	-28.1704
 154	1	2	0.034038	-5.54679	-5.08216	-26.1658
 155	1	3	0.050122	-5.84613	-5.8555	-27.4045
 156	1	5	-0.383076	-7.88676	-3.04476	-27.7794
 157	1	5	-0.380811	-4.88365	-5.48476	-25.2236
 158	1	3	-0.001248	-7.33082	-5.66293	-29.3068
 159	1	3	-0.036565	-5.54052	-7.18179	-27.7406
 160	1	3	-0.208842	-6.17289	-7.75931	-28.8692
 161	1	3	-0.065319	-7.08459	-7.01981	-29.6732
 162	1	6	0.153391	-8.0745	-5.0534	-29.8065
 163	1	6	0.155343	-4.89632	-7.77195	-27.0921
 164	1	6	0.174191	-6.00062	-8.81394	-29.0709
 165	1	7	-0.106637	-7.95309	-7.71673	-30.7788
 166	1	7	0.445763	-9.3576	-8.002	-30.1128
 167	1	8	-0.144255	-9.27061	-9.02129	-29.2283
 168	1	8	-0.136881	-10.3249	-8.30495	-31.0078
 169	1	8	-0.144092	-9.83952	-6.94913	-29.4154
 170	1	7	0.367264	-8.15128	-6.76574	-32.0241
 171	1	8	-0.12104	-9.03469	-5.76471	-31.8183
 172	1	8	-0.122614	-8.60302	-7.43538	-33.1096
 173	1	8	-0.112321	-6.9826	-6.18969	-32.3867
 174	1	3	-0.021957	-7.30883	-9.02313	-31.3737
 175	1	3	-0.054241	-8.09875	-10.1554	-31.734
 176	1	3	-0.111709	-7.5666	-11.1463	-32.5705
 177	1	3	-0.087244	-5.95964	-9.00266	-31.8283
 178	1	3	-0.118951	-5.4364	-10.0173	-32.6662
 179	1	3	-0.044875	-6.27911	-11.0709	-33.0512
 180	1	2	0.461883	-6.13487	-12.0829	-34.1446
 181	1	1	-0.007433	-7.39414	-12.6625	-34.2936
 182	1	2	0.491356	-8.2833	-12.2144	-33.3239
 183	1	3	-0.019445	-7.84861	-13.2453	-35.5206
 184	1	3	-0.186861	-8.2404	-12.3279	-36.5111
 185	1	3	-0.068374	-8.72408	-12.7623	-37.7454
 186	1	3	-0.009193	-7.95404	-14.644	-35.7666
 187	1	3	0.220761	-8.43182	-15.0948	-37.0392
 188	1	3	-0.402098	-8.80791	-14.1324	-38.0068
 189	1	6	0.148422	-8.17468	-11.2593	-36.3196
 190	1	6	0.146291	-9.02712	-12.0364	-38.4983
 191	1	6	0.158981	-4.43719	-9.93296	-33.0895
 192	1	6	0.141813	-5.33587	-8.13846	-31.6125
 193	1	6	0.143633	-9.15109	-10.2402	-31.4931
 194	1	5	-0.474465	-9.47393	-12.4599	-33.2416
 195	1	5	-0.469737	-5.18143	-12.1811	-34.8975
 196	1	7	-0.37887	-7.54351	-15.6194	-34.6603
 197	1	9	0.115886	-6.44945	-15.7103	-34.6162
 198	1	9	0.123845	-7.95073	-16.6266	-34.8043
 199	1	9	0.138418	-7.89275	-15.2823	-33.6762
 200	1	6	0.21348	-9.1796	-14.4521	-38.9786
 201	1	1	0.486064	-8.46176	10.7273	-18.175
 202	1	2	0.047133	-8.08835	9.50493	-17.6194
 203	1	3	0.001076	-7.88015	8.59334	-18.7749
 204	1	2	0.034038	-8.5504	10.6761	-19.5675
 205	1	3	0.050122	-8.15529	9.28566	-19.9342
 206	1	5	-0.383076	-7.91241	9.23139	-16.4441
 207	1	5	-0.380811	-8.82725	11.5805	-20.3378
 208	1	3	-0.001248	-7.38579	7.2846	-18.7965
 209	1	3	-0.036565	-7.96586	8.68826	-21.1859
 210	1	3	-0.208842	-7.45447	7.36913	-21.2301
 211	1	3	-0.065319	-7.14644	6.64186	-20.0456
 212	1	6	0.153391	-7.14104	6.83329	-17.8426
 213	1	6	0.155343	-8.1604	9.25193	-22.0958
 214	1	6	0.174191	-7.24368	6.92875	-22.2026
 215	1	7	-0.106637	-6.37651	5.28037	-20.1439
 216	1	7	0.445763	-4.86775	5.67593	-20.3778
 217	1	8	-0.144255	-3.99441	4.67502	-20.1296
 218	1	8	-0.136881	-4.48551	6.7027	-19.5834
 219	1	8	-0.144092	-4.66414	6.08035	-21.652
 220	1	7	0.367264	-6.49497	4.4254	-18.8228
 221	1	8	-0.12104	-6.05575	3.15657	-18.9852
 222	1	8	-0.122614	-7.78396	4.32866	-18.4247
 223	1	8	-0.112321	-5.78377	4.92891	-17.7891
 224	1	3	-0.021957	-6.9301	4.35689	-21.2802
 225	1	3	-0.054241	-6.109	3.37031	-21.8993
 226	1	3	-0.111709	-6.69143	2.39393	-22.7202
 227	1	3	-0.087244	-8.32435	4.32574	-21.5621
 228	1	3	-0.118951	-8.89108	3.34386	-22.407
 229	1	3	-0.044875	-8.04682	2.37261	-22.963
 230	1	2	0.461883	-8.37378	1.08977	-23.6533
 231	1	1	-0.007433	-7.17747	0.378464	-23.7238
 232	1	2	0.491356	-6.10672	1.12514	-23.2435
 233	1	3	-0.019445	-7.13194	-1.04502	-23.8767
 234	1	3	-0.186861	-7.60882	-1.78771	-22.7819
 235	1	3	-0.068374	-7.62784	-3.1828	-22.8094
 236	1	3	-0.009193	-6.64744	-1.71964	-25.0338
 237	1	3	0.220761	-6.69584	-3.14845	-25.0781
 238	1	3	-0.402098	-7.1845	-3.85305	-23.9525
 239	1	6	0.148422	-7.97544	-1.27565	-21.8953
 240	1	6	0.146291	-8.00038	-3.74018	-21.9514
 241	1	6	0.158981	-9.96785	3.28463	-22.5542
 242	1	6	0.141813	-8.9925	5.02227	-21.0618
 243	1	6	0.143633	-5.05387	3.26874	-21.6725
 244	1	5	-0.474465	-4.95427	0.759641	-23.0918
 245	1	5	-0.469737	-9.49709	0.68052	-23.8909
 246	1	7	-0.37887	-6.09956	-0.898129	-26.2042
 247	1	9	0.115886	-6.91935	-0.519986	-26.8298
 248	1	9	0.123845	-5.42932	-1.47605	-26.8509
 249	1	9	0.138418	-5.51621	-0.0367622	-25.8554
 250	1	6	0.21348	-7.21986	-4.94078	-23.9641
 251	1	1	0.486064	-1.52211	23.5242	-13.5041
 252	1	2	0.047133	-2.34322	22.4588	-13.132
 253	1	3	0.001076	-1.63378	21.2394	-13.5999
 254	1	2	0.034038	-0.342077	23.1113	-14.117
 255	1	3	0.050122	-0.443576	21.6322	-14.1765
 256	1	5	-0.383076	-3.44278	22.4988	-12.6056
 257	1	5	-0.380811	0.53696	23.7983	-14.6104
 258	1	3	-0.001248	-2.02964	19.8949	-13.5719
 259	1	3	-0.036565	0.422602	20.7023	-14.7489
 260	1	3	-0.208842	0.0535362	19.3423	-14.7143
 261	1	3	-0.065319	-1.1775	18.9063	-14.1365
 262	1	6	0.153391	-2.9874	19.6345	-13.1279
 263	1	6	0.155343	1.35081	21.0302	-15.2131
 264	1	6	0.174191	0.755712	18.6456	-15.1579
 265	1	7	-0.106637	-1.5964	17.3992	-14.0568
 266	1	7	0.445763	-0.637249	16.4434	-14.8662
 267	1	8	-0.144255	-1.07922	15.1662	-14.9013
 268	1	8	-0.136881	0.61422	16.3963	-14.3539
 269	1	8	-0.144092	-0.541531	16.8257	-16.1605
 270	1	7	0.367264	-1.53703	17.0082	-12.5281
 271	1	8	-0.12104	-0.424691	17.5022	-11.9361
 272	1	8	-0.122614	-1.52245	15.6775	-12.2942
 273	1	8	-0.112321	-2.59173	17.5081	-11.8468
 274	1	3	-0.021957	-3.01571	17.195	-14.6734
 275	1	3	-0.054241	-3.81575	16.0714	-14.3274
 276	1	3	-0.111709	-5.00773	15.8353	-15.0257
 277	1	3	-0.087244	-3.48114	18.0463	-15.7172
 278	1	3	-0.118951	-4.69792	17.8034	-16.3916
 279	1	3	-0.044875	-5.43927	16.6729	-16.0318
 280	1	2	0.461883	-6.66585	16.0812	-16.6401
 281	1	1	-0.007433	-6.87564	14.8844	-15.9661
 282	1	2	0.491356	-5.94322	14.6801	-14.9564
 283	1	3	-0.019445	-7.89559	13.9464	-16.3049
 284	1	3	-0.186861	-9.18763	14.1638	-15.7936
 285	1	3	-0.068374	-10.2295	13.2697	-16.0724
 286	1	3	-0.009193	-7.63887	12.811	-17.1192
 287	1	3	0.220761	-8.69521	11.9021	-17.3959
 288	1	3	-0.402098	-9.98337	12.1422	-16.8682
 289	1	6	0.148422	-9.38469	15.0322	-15.1691
 290	1	6	0.146291	-11.2226	13.4489	-15.663
 291	1	6	0.158981	-5.03198	18.4447	-17.2051
 292	1	6	0.141813	-2.87779	18.8857	-16.0506
 293	1	6	0.143633	-3.50249	15.3433	-13.5861
 294	1	5	-0.474465	-5.84556	13.7237	-14.2085
 295	1	5	-0.469737	-7.28911	16.5253	-17.5886
 296	1	7	-0.37887	-6.24222	12.5463	-17.6989
 297	1	9	0.115886	-5.83152	11.602	-17.3163
 298	1	9	0.123845	-5.51159	13.3246	-17.4557
 299	1	9	0.138418	-6.27458	12.4873	-18.7953
 300	1	6	0.21348	-10.7933	11.445	-17.0703
 301	1	1	0.486064	-10.6663	22.0347	-16.3969
 302	1	2	0.047133	-11.2574	23.2525	-16.7579
 303	1	3	0.001076	-10.2226	23.9842	-17.533
 304	1	2	0.034038	-9.37613	21.9038	-16.9178
 305	1	3	0.050122	-9.11662	23.1694	-17.6451
 306	1	5	-0.383076	-12.3891	23.6499	-16.5368
 307	1	5	-0.380811	-8.59779	20.9698	-16.8096
 308	1	3	-0.001248	-10.2322	25.2918	-18.0384
 309	1	3	-0.036565	-7.97422	23.587	-18.3264
 310	1	3	-0.208842	-7.95877	24.8986	-18.8389
 311	1	3	-0.065319	-9.05684	25.791	-18.6652
 312	1	6	0.153391	-11.1178	25.8983	-17.8778
 313	1	6	0.155343	-7.11318	22.9282	-18.4139
 314	1	6	0.174191	-7.04567	25.2461	-19.317
 315	1	7	-0.106637	-8.8533	27.2923	-19.047
 316	1	7	0.445763	-8.83916	27.3764	-20.6212
 317	1	8	-0.144255	-7.74568	26.7856	-21.153
 318	1	8	-0.136881	-8.85918	28.6425	-21.0943
 319	1	8	-0.144092	-9.90867	26.7462	-21.157
 320	1	7	0.367264	-9.96971	28.2546	-18.4914
 321	1	8	-0.12104	-11.1733	28.0576	-19.0744
 322	1	8	-0.122614	-9.64871	29.5549	-18.6787
 323	1	8	-0.112321	-10.1418	28.1095	-17.1579
 324	1	3	-0.021957	-7.51862	27.7305	-18.3734
 325	1	3	-0.054241	-7.25031	27.2558	-17.0649
 326	1	3	-0.111709	-6.00049	27.4907	-16.4953
 327	1	3	-0.087244	-6.52649	28.5296	-19.0124
 328	1	3	-0.118951	-5.2725	28.7747	-18.4045
 329	1	3	-0.044875	-5.0253	28.2154	-17.1434
 330	1	2	0.461883	-3.78003	28.1436	-16.3219
 331	1	1	-0.007433	-4.10008	27.326	-15.2426
 332	1	2	0.491356	-5.42716	26.9257	-15.254
 333	1	3	-0.019445	-3.16653	26.788	-14.3141
 334	1	3	-0.186861	-2.81607	27.5417	-13.1803
 335	1	3	-0.068374	-2.01393	26.9853	-12.1739
 336	1	3	-0.009193	-2.69718	25.4599	-14.4581
 337	1	3	0.220761	-1.92181	24.8865	-13.4184
 338	1	3	-0.402098	-1.57962	25.6562	-12.2856
 339	1	6	0.148422	-3.18582	28.5577	-13.0662
 340	1	6	0.146291	-1.75449	27.5757	-11.2959
 341	1	6	0.158981	-4.49854	29.3418	-18.9187
 342	1	6	0.141813	-6.69555	28.9397	-20.0027
 343	1	6	0.143633	-7.96417	26.6414	-16.5209
 344	1	5	-0.474465	-5.98027	26.1311	-14.5131
 345	1	5	-0.469737	-2.68832	28.592	-16.625
 346	1	7	-0.37887	-3.0665	24.6428	-15.7073
 347	1	9	0.115886	-2.27867	23.9374	-15.9972
 348	1	9	0.123845	-3.21742	25.2779	-16.5883
 349	1	9	0.138418	-3.99091	24.0729	-15.5397
 350	1	6	0.21348	-0.97999	25.22	-11.487
 351	1	1	0.486064	-15.483	16.7605	-3.04684
 352	1	2	0.047133	-16.0942	18.0115	-3.2006
 353	1	3	0.001076	-15.9933	18.3299	-4.64844
 354	1	2	0.034038	-15.0244	16.2543	-4.27077
 355	1	3	0.050122	-15.4009	17.2669	-5.28848
 356	1	5	-0.383076	-16.7136	18.6657	-2.37821
 357	1	5	-0.380811	-14.4861	15.1835	-4.50285
 358	1	3	-0.001248	-16.4604	19.443	-5.35438
 359	1	3	-0.036565	-15.3193	17.2202	-6.6823
 360	1	3	-0.208842	-15.8425	18.3061	-7.41848
 361	1	3	-0.065319	-16.3855	19.4572	-6.776
 362	1	6	0.153391	-16.9139	20.2488	-4.78676
 363	1	6	0.155343	-14.9011	16.346	-7.17664
 364	1	6	0.174191	-15.8317	18.2238	-8.50134
 365	1	7	-0.106637	-16.9763	20.6548	-7.59057
 366	1	7	0.445763	-16.4442	22.033	-7.0358
 367	1	8	-0.144255	-16.6813	23.044	-7.90245
 368	1	8	-0.136881	-15.1087	21.9997	-6.83075
 369	1	8	-0.144092	-16.9951	22.4056	-5.85995
 370	1	7	0.367264	-18.5474	20.6022	-7.4115
 371	1	8	-0.12104	-19.0623	19.4826	-7.96968
 372	1	8	-0.122614	-19.1739	21.6725	-7.95155
 373	1	8	-0.112321	-18.9513	20.5702	-6.12277
 374	1	3	-0.021957	-16.543	20.597	-9.10089
 375	1	3	-0.054241	-15.1611	20.5315	-9.4504
 376	1	3	-0.111709	-14.7896	20.5079	-10.8074
 377	1	3	-0.087244	-17.4879	20.661	-10.1706
 378	1	3	-0.118951	-17.0961	20.6533	-11.5199
 379	1	3	-0.044875	-15.7362	20.5765	-11.8071
 380	1	2	0.461883	-15.0574	20.5079	-13.1213
 381	1	1	-0.007433	-13.7082	20.3741	-12.8369
 382	1	2	0.491356	-13.4535	20.3771	-11.4676
 383	1	3	-0.019445	-12.7607	20.1502	-13.8765
 384	1	3	-0.186861	-12.7426	18.8726	-14.4623
 385	1	3	-0.068374	-12.0063	18.6304	-15.625
 386	1	3	-0.009193	-12.0105	21.2088	-14.4468
 387	1	3	0.220761	-11.3282	20.9859	-15.6785
 388	1	3	-0.402098	-11.3269	19.6872	-16.24
 389	1	6	0.148422	-13.3363	18.0688	-14.0347
 390	1	6	0.146291	-12.0041	17.6387	-16.0749
 391	1	6	0.158981	-17.8291	20.6994	-12.3234
 392	1	6	0.141813	-18.5541	20.7211	-9.99696
 393	1	6	0.143633	-14.3884	20.4739	-8.68673
 394	1	5	-0.474465	-12.3826	20.2334	-10.9048
 395	1	5	-0.469737	-15.6046	20.4884	-14.2106
 396	1	7	-0.37887	-11.9748	22.5609	-13.723
 397	1	9	0.115886	-11.9133	22.4337	-12.635
 398	1	9	0.123845	-12.8756	23.1493	-13.9429
 399	1	9	0.138418	-11.1048	23.1693	-13.9961
 400	1	6	0.21348	-10.7905	19.4932	-17.1679
 401	1	1	0.486064	-16.4707	20.9221	10.4019
 402	1	2	0.047133	-16.1361	20.66	9.07147
 403	1	3	0.001076	-14.8816	19.8652	9.13294
 404	1	2	0.034038	-15.5506	20.383	11.3012
 405	1	3	0.050122	-14.548	19.6867	10.4584
 406	1	5	-0.383076	-16.7798	20.9091	8.06598
 407	1	5	-0.380811	-15.5917	20.3831	12.5207
 408	1	3	-0.001248	-14.1336	19.2811	8.10337
 409	1	3	-0.036565	-13.4571	18.9005	10.8305
 410	1	3	-0.208842	-12.715	18.2695	9.81073
 411	1	3	-0.065319	-13.0487	18.4225	8.43271
 412	1	6	0.153391	-14.4267	19.4589	7.07139
 413	1	6	0.155343	-13.2103	18.7648	11.8816
 414	1	6	0.174191	-11.8763	17.658	10.1245
 415	1	7	-0.106637	-12.2396	17.7217	7.29219
 416	1	7	0.445763	-11.4766	16.4293	7.77044
 417	1	8	-0.144255	-12.2991	15.6061	8.45946
 418	1	8	-0.136881	-10.4088	16.6928	8.5569
 419	1	8	-0.144092	-11.0035	15.706	6.73021
 420	1	7	0.367264	-11.2005	18.7935	6.79049
 421	1	8	-0.12104	-10.5756	19.4071	7.82165
 422	1	8	-0.122614	-11.8125	19.7682	6.08061
 423	1	8	-0.112321	-10.2214	18.2822	6.01155
 424	1	3	-0.021957	-13.2095	17.2471	6.16389
 425	1	3	-0.054241	-12.8051	17.1691	4.80218
 426	1	3	-0.111709	-13.728	16.7401	3.8386
 427	1	3	-0.087244	-14.519	16.7935	6.49511
 428	1	3	-0.118951	-15.4462	16.4104	5.50552
 429	1	3	-0.044875	-15.024	16.4188	4.17349
 430	1	2	0.461883	-15.747	16.04	2.93231
 431	1	1	-0.007433	-14.8102	16.1133	1.90489
 432	1	2	0.491356	-13.5588	16.5034	2.37773
 433	1	3	-0.019445	-15.1002	15.6674	0.575828
 434	1	3	-0.186861	-15.5526	14.3407	0.451411
 435	1	3	-0.068374	-15.9706	13.8319	-0.778327
 436	1	3	-0.009193	-15.0333	16.5059	-0.574507
 437	1	3	0.220761	-15.4748	15.99	-1.83297
 438	1	3	-0.402098	-15.9435	14.6564	-1.9053
 439	1	6	0.148422	-15.6129	13.7003	1.32849
 440	1	6	0.146291	-16.3308	12.8067	-0.85091
 441	1	6	0.158981	-16.4556	16.0961	5.7647
 442	1	6	0.141813	-14.8362	16.7502	7.53404
 443	1	6	0.143633	-11.7993	17.4127	4.47761
 444	1	5	-0.474465	-12.5009	16.5441	1.7735
 445	1	5	-0.469737	-16.9089	15.675	2.86946
 446	1	7	-0.37887	-14.5287	17.9509	-0.435074
 447	1	9	0.115886	-14.1901	18.3815	-1.38302
 448	1	9	0.123845	-13.6641	18.0401	0.225974
 449	1	9	0.138418	-15.3193	18.6038	-0.0411971
 450	1	6	0.21348	-16.2784	14.246	-2.85639
 451	1	1	0.486064	-26.6435	31.3888	6.86371
 452	1	2	0.047133	-26.7195	31.1856	8.23935
 453	1	3	0.001076	-25.3966	30.632	8.62145
 454	1	2	0.034038	-25.4345	30.9586	6.31729
 455	1	3	0.050122	-24.6313	30.4986	7.48172
 456	1	5	-0.383076	-27.6162	31.504	9.00189
 457	1	5	-0.380811	-25.0473	31.067	5.16561
 458	1	3	-0.001248	-24.8668	30.4095	9.89588
 459	1	3	-0.036565	-23.2867	30.1246	7.5579
 460	1	3	-0.208842	-22.7271	29.9094	8.83694
 461	1	3	-0.065319	-23.4984	30.0472	10.0259
 462	1	6	0.153391	-25.5047	30.6034	10.751
 463	1	6	0.155343	-22.6823	30.0653	6.6552
 464	1	6	0.174191	-21.664	29.6878	8.89773
 465	1	7	-0.106637	-22.8037	29.9934	11.4203
 466	1	7	0.445763	-22.3668	31.4761	11.734
 467	1	8	-0.144255	-21.3683	31.8764	10.9137
 468	1	8	-0.136881	-21.9487	31.6512	13.0081
 469	1	8	-0.144092	-23.3749	32.3587	11.5477
 470	1	7	0.367264	-23.7648	29.4845	12.564
 471	1	8	-0.12104	-24.4547	28.3881	12.1771
 472	1	8	-0.122614	-24.6755	30.3999	12.9631
 473	1	8	-0.112321	-23.0764	29.1352	13.6751
 474	1	3	-0.021957	-21.6077	28.9889	11.3993
 475	1	3	-0.054241	-21.8103	27.6803	10.8847
 476	1	3	-0.111709	-20.7804	26.7335	10.9961
 477	1	3	-0.087244	-20.3452	29.2843	11.995
 478	1	3	-0.118951	-19.3297	28.3152	12.1064
 479	1	3	-0.044875	-19.5827	27.0372	11.6062
 480	1	2	0.461883	-18.7677	25.7981	11.6996
 481	1	1	-0.007433	-19.5398	24.7973	11.119
 482	1	2	0.491356	-20.7591	25.2857	10.6525
 483	1	3	-0.019445	-19.2045	23.4085	11.1646
 484	1	3	-0.186861	-20.109	22.5532	11.8228
 485	1	3	-0.068374	-19.8348	21.1919	11.978
 486	1	3	-0.009193	-17.9922	22.8847	10.6363
 487	1	3	0.220761	-17.7033	21.5044	10.8227
 488	1	3	-0.402098	-18.6328	20.6735	11.4872
 489	1	6	0.148422	-21.0372	22.9489	12.2291
 490	1	6	0.146291	-20.5434	20.5491	12.4982
 491	1	6	0.158981	-18.3892	28.5373	12.6071
 492	1	6	0.141813	-20.1337	30.2553	12.4257
 493	1	6	0.143633	-22.7637	27.3872	10.4498
 494	1	5	-0.474465	-21.6796	24.6612	10.1538
 495	1	5	-0.469737	-17.6963	25.6927	12.2726
 496	1	7	-0.37887	-16.9971	23.8043	9.9122
 497	1	9	0.115886	-17.4914	24.6715	9.45967
 498	1	9	0.123845	-16.4775	23.3095	9.08486
 499	1	9	0.138418	-16.2377	24.1855	10.6089
 500	1	6	0.21348	-18.4065	19.6214	11.6474
 501	1	1	0.486064	-22.4478	44.956	5.81266
 502	1	2	0.047133	-23.6437	45.1191	5.11553
 503	1	3	0.001076	-24.2492	43.7658	5.06082
 504	1	2	0.034038	-22.2415	43.6435	6.23468
 505	1	3	0.050122	-23.4153	42.8891	5.72398
 506	1	5	-0.383076	-24.0791	46.1258	4.58234
 507	1	5	-0.380811	-21.2804	43.1803	6.82658
 508	1	3	-0.001248	-25.4003	43.3318	4.39473
 509	1	3	-0.036565	-23.6878	41.5202	5.7563
 510	1	3	-0.208842	-24.8405	41.0592	5.08633
 511	1	3	-0.065319	-25.7215	41.9482	4.40522
 512	1	6	0.153391	-25.9858	44.0642	3.84938
 513	1	6	0.155343	-23.0036	40.8342	6.25071
 514	1	6	0.174191	-25.0224	39.987	5.0702
 515	1	7	-0.106637	-26.9162	41.3754	3.58708
 516	1	7	0.445763	-26.3486	41.0784	2.14755
 517	1	8	-0.144255	-27.3063	40.6819	1.27939
 518	1	8	-0.136881	-25.3965	40.1179	2.17766
 519	1	8	-0.144092	-25.7506	42.1609	1.59921
 520	1	7	0.367264	-28.1274	42.381	3.46409
 521	1	8	-0.12104	-27.9174	43.3928	2.59312
 522	1	8	-0.122614	-28.4237	42.9566	4.65085
 523	1	8	-0.112321	-29.2503	41.7525	3.04823
 524	1	3	-0.021957	-27.4618	40.1069	4.31623
 525	1	3	-0.054241	-27.5922	38.8391	3.68475
 526	1	3	-0.111709	-28.0349	37.7454	4.4392
 527	1	3	-0.087244	-27.8223	40.2082	5.69039
 528	1	3	-0.118951	-28.2809	39.0972	6.42752
 529	1	3	-0.044875	-28.3707	37.8669	5.77068
 530	1	2	0.461883	-28.7147	36.5165	6.29232
 531	1	1	-0.007433	-28.5183	35.6475	5.22605
 532	1	2	0.491356	-28.1474	36.3105	4.06424
 533	1	3	-0.019445	-28.5594	34.2293	5.34128
 534	1	3	-0.186861	-29.6341	33.5308	4.7635
 535	1	3	-0.068374	-29.715	32.1356	4.86339
 536	1	3	-0.009193	-27.5337	33.5248	6.01785
 537	1	3	0.220761	-27.6277	32.1132	6.13398
 538	1	3	-0.402098	-28.7184	31.4296	5.55255
 539	1	6	0.148422	-30.413	34.0731	4.23276
 540	1	6	0.146291	-30.5544	31.6072	4.41392
 541	1	6	0.158981	-28.5303	39.1814	7.48361
 542	1	6	0.141813	-27.7182	41.1579	6.20824
 543	1	6	0.143633	-27.3336	38.6662	2.64532
 544	1	5	-0.474465	-27.8597	35.8275	2.98352
 545	1	5	-0.469737	-28.999	36.2419	7.44533
 546	1	7	-0.37887	-26.3552	34.302	6.62768
 547	1	9	0.115886	-25.4659	33.6874	6.80359
 548	1	9	0.123845	-26.6437	34.7467	7.59026
 549	1	9	0.138418	-26.021	35.1117	5.96768
 550	1	6	0.21348	-28.7942	30.3483	5.64162
 551	1	1	0.486064	-14.446	45.5293	14.9347
 552	1	2	0.047133	-14.0144	46.7727	14.4784
 553	1	3	0.001076	-15.2376	47.6077	14.4195
 554	1	2	0.034038	-15.81	45.4976	15.2195
 555	1	3	0.050122	-16.3042	46.8496	14.8568
 556	1	5	-0.383076	-12.8937	47.1078	14.1331
 557	1	5	-0.380811	-16.4809	44.5622	15.6234
 558	1	3	-0.001248	-15.4009	48.9085	13.934
 559	1	3	-0.036565	-17.6039	47.3565	14.8423
 560	1	3	-0.208842	-17.7958	48.6576	14.3346
 561	1	3	-0.065319	-16.7119	49.4498	13.8575
 562	1	6	0.153391	-14.5188	49.4355	13.5863
 563	1	6	0.155343	-18.4387	46.7429	15.1746
 564	1	6	0.174191	-18.814	49.0349	14.2734
 565	1	7	-0.106637	-17.0289	50.8238	13.1939
 566	1	7	0.445763	-15.8	51.4808	12.4547
 567	1	8	-0.144255	-15.2409	50.6395	11.5552
 568	1	8	-0.136881	-14.8211	51.8657	13.3041
 569	1	8	-0.144092	-16.1627	52.5751	11.7476
 570	1	7	0.367264	-17.5078	51.7949	14.3417
 571	1	8	-0.12104	-17.6054	53.0866	13.9554
 572	1	8	-0.122614	-18.72	51.4496	14.8301
 573	1	8	-0.112321	-16.6549	51.772	15.3911
 574	1	3	-0.021957	-18.0965	50.5514	12.097
 575	1	3	-0.054241	-17.9415	49.4051	11.2742
 576	1	3	-0.111709	-18.8697	49.1607	10.2597
 577	1	3	-0.087244	-19.1904	51.4252	11.8365
 578	1	3	-0.118951	-20.1146	51.1611	10.8023
 579	1	3	-0.044875	-19.9283	50.0116	10.0261
 580	1	2	0.461883	-20.6728	49.5067	8.83964
 581	1	1	-0.007433	-19.9796	48.3787	8.4213
 582	1	2	0.491356	-18.8972	48.0853	9.23645
 583	1	3	-0.019445	-20.2674	47.6728	7.22318
 584	1	3	-0.186861	-19.5551	48.0346	6.06664
 585	1	3	-0.068374	-19.7942	47.3887	4.84981
 586	1	3	-0.009193	-21.2324	46.6393	7.17944
 587	1	3	0.220761	-21.4784	45.9896	5.94093
 588	1	3	-0.402098	-20.7556	46.3735	4.78882
 589	1	6	0.148422	-18.8101	48.8253	6.1109
 590	1	6	0.146291	-19.2404	47.6801	3.95862
 591	1	6	0.158981	-20.9374	51.842	10.5925
 592	1	6	0.141813	-19.3307	52.3311	12.4162
 593	1	6	0.143633	-17.1051	48.7208	11.3989
 594	1	5	-0.474465	-18.095	47.1747	9.12665
 595	1	5	-0.469737	-21.6547	50.0169	8.32899
 596	1	7	-0.37887	-21.9815	46.2682	8.46612
 597	1	9	0.115886	-22.6216	45.3849	8.36943
 598	1	9	0.123845	-22.6226	47.097	8.79548
 599	1	9	0.138418	-21.2743	46.0452	9.27611
 600	1	6	0.21348	-20.9507	45.8849	3.83659
 601	1	1	0.486064	-10.8097	31.3633	7.57484
 602	1	2	0.047133	-11.977	32.0972	7.38225
 603	1	3	0.001076	-11.9482	33.1507	8.42423
 604	1	2	0.034038	-10.0153	31.8667	8.60425
 605	1	3	0.050122	-10.7823	33.0192	9.14938
 606	1	5	-0.383076	-12.8713	31.902	6.57636
 607	1	5	-0.380811	-8.95852	31.4293	9.02798
 608	1	3	-0.001248	-12.934	34.0795	8.76755
 609	1	3	-0.036565	-10.5287	33.8356	10.255
 610	1	3	-0.208842	-11.5131	34.7801	10.6221
 611	1	3	-0.065319	-12.7323	34.9148	9.89908
 612	1	6	0.153391	-13.8482	34.0838	8.18485
 613	1	6	0.155343	-9.61928	33.7037	10.8375
 614	1	6	0.174191	-11.3446	35.3786	11.515
 615	1	7	-0.106637	-13.8587	35.8345	10.4616
 616	1	7	0.445763	-14.9507	36.2165	9.39061
 617	1	8	-0.144255	-14.3832	36.6593	8.24559
 618	1	8	-0.136881	-15.7553	37.2131	9.82515
 619	1	8	-0.144092	-15.7645	35.1873	9.06282
 620	1	7	0.367264	-14.5381	35.0057	11.6181
 621	1	8	-0.12104	-15.7136	35.5258	12.0363
 622	1	8	-0.122614	-13.7322	34.9114	12.7003
 623	1	8	-0.112321	-14.8037	33.7352	11.235
 624	1	3	-0.021957	-13.2536	37.1854	10.9464
 625	1	3	-0.054241	-13.7166	37.8487	12.1152
 626	1	3	-0.111709	-13.2016	39.1111	12.4314
 627	1	3	-0.087244	-12.2829	37.8451	10.1409
 628	1	3	-0.118951	-11.7738	39.117	10.4801
 629	1	3	-0.044875	-12.2595	39.7319	11.6389
 630	1	2	0.461883	-11.9526	41.0612	12.2362
 631	1	1	-0.007433	-12.7484	41.1509	13.3706
 632	1	2	0.491356	-13.5299	40.0204	13.5613
 633	1	3	-0.019445	-12.738	42.2596	14.2606
 634	1	3	-0.186861	-11.8001	42.2528	15.3082
 635	1	3	-0.068374	-11.7399	43.3096	16.2243