pySIMM System Object

1652 atoms
1816 bonds
3168 angles
4880 dihedrals
528 impropers

9 atom types
11 bond types
18 angle types
7 dihedral types
4 improper types

-191.731051 191.731051 xlo xhi
-191.731051 191.731051 ylo yhi
-191.731051 191.731051 zlo zhi

Masses

   1	14.01	# n
   2	12.01	# c
   3	12.01	# ca
   4	1.008	# hn
   5	16.0	# o
   6	1.008	# ha
   7	12.01	# c3
   8	19.0	# f
   9	1.008	# hc

Pair Coeffs

   1	0.17	3.249998523775958	# n
   2	0.086	3.3996695084235347	# c
   3	0.086	3.3996695084235347	# ca
   4	0.0157	1.069078461768407	# hn
   5	0.21	2.959921901149463	# o
   6	0.015	2.59964245953351	# ha
   7	0.1094	3.3996695084235347	# c3
   8	0.061	3.1181455134911875	# f
   9	0.0157	2.649532787749369	# hc

Bond Coeffs

   1	427.6	1.3789	# c,n
   2	461.1	1.3984	# ca,ca
   3	345.9	1.4906	# c,ca
   4	345.8	1.086	# ca,ha
   5	637.7	1.2183	# c,o
   6	321.0	1.5156	# c3,ca
   7	300.9	1.5375	# c3,c3
   8	356.9	1.3497	# c3,f
   9	384.2	1.4121	# ca,n
  10	330.6	1.0969	# c3,hc
  11	403.2	1.0129	# hn,n

Angle Coeffs

   1	48.18	119.88	# ca,ca,ha
   2	63.15	112.07	# c3,c3,ca
   3	70.89	107.36	# f,c3,f
   4	67.87	120.19	# ca,ca,n
   5	68.72	122.6	# ca,c,o
   6	63.56	112.24	# ca,c3,ca
   7	63.82	123.71	# c,n,ca
   8	74.22	123.05	# n,c,o
   9	48.33	117.55	# c,n,hn
  10	67.68	115.25	# ca,c,n
  11	64.28	120.33	# c,ca,ca
  12	66.11	109.24	# c3,c3,f
  13	46.8	110.47	# ca,c3,hc
  14	39.4	107.58	# hc,c3,hc
  15	66.62	120.02	# ca,ca,ca
  16	63.53	120.77	# c3,ca,ca
  17	62.86	111.51	# c3,c3,c3
  18	63.74	127.08	# c,n,c

Dihedral Coeffs

   1	1	2.5	2	180	# X,c,n,X
   2	1	0.45	2	180	# X,ca,n,X
   3	2	2.5	2	180	2.0	1	0	# hn,n,c,o
   4	1	3.625	2	180	# X,ca,ca,X
   5	1	1.0	2	180	# X,c,ca,X
   6	1	0.15555555555555556	3	0	# X,c3,c3,X
   7	1	0.0	2	0	# X,c3,ca,X

Improper Coeffs

   1	1.1	-1	2	# ca,ca,ca,c3
   2	10.5	-1	2	# c,X,X,o
   3	1.1	-1	2	# ca,X,X,ha
   4	1.1	-1	2	# n,X,X,hn

Atoms

   1	1	1	0.486064	-50.6883	21.932	-19.1691
   2	1	2	0.047133	-50.9558	22.3823	-17.8774
   3	1	3	0.001076	-52.2358	21.7306	-17.5103
   4	1	2	0.034038	-51.7357	21.195	-19.7186
   5	1	3	0.050122	-52.7116	21.0464	-18.6099
   6	1	5	-0.383076	-50.2138	22.984	-17.1191
   7	1	5	-0.380811	-51.7691	20.6158	-20.7916
   8	1	3	-0.001248	-52.8105	21.5835	-16.2448
   9	1	3	-0.036565	-53.8398	20.229	-18.5198
  10	1	3	-0.208842	-54.4424	20.0751	-17.2541
  11	1	3	-0.065319	-53.9107	20.698	-16.0891
  12	1	6	0.153391	-52.3384	22.0948	-15.413
  13	1	6	0.155343	-54.1926	19.6793	-19.39
  14	1	6	0.174191	-55.2924	19.4012	-17.1683
  15	1	7	-0.106637	-54.5097	20.3289	-14.6973
  16	1	7	0.445763	-53.5882	20.7386	-13.4857
  17	1	8	-0.144255	-52.3273	20.2737	-13.6435
  18	1	8	-0.136881	-54.0279	20.221	-12.3161
  19	1	8	-0.144092	-53.5067	22.0766	-13.3098
  20	1	7	0.367264	-55.8842	21.0895	-14.5856
  21	1	8	-0.12104	-55.7582	22.3873	-14.9453
  22	1	8	-0.122614	-56.4059	21.09	-13.3387
  23	1	8	-0.112321	-56.8167	20.5529	-15.4039
  24	1	3	-0.021957	-54.6419	18.7778	-14.6142
  25	1	3	-0.054241	-55.6916	18.1393	-13.9011
  26	1	3	-0.111709	-55.6898	16.7416	-13.797
  27	1	3	-0.087244	-53.6208	17.959	-15.1787
  28	1	3	-0.118951	-53.6462	16.5541	-15.0753
  29	1	3	-0.044875	-54.7007	15.9697	-14.3706
  30	1	2	0.461883	-54.9376	14.5487	-14.0015
  31	1	1	-0.007433	-56.0601	14.5639	-13.1864
  32	1	2	0.491356	-56.591	15.8373	-13.0333
  33	1	3	-0.019445	-56.534	13.4236	-12.4836
  34	1	3	-0.186861	-57.5964	12.6699	-13.017
  35	1	3	-0.068374	-58.0792	11.5393	-12.3394
  36	1	3	-0.009193	-55.9472	13.045	-11.2554
  37	1	3	0.220761	-56.4376	11.908	-10.5828
  38	1	3	-0.402098	-57.4965	11.1594	-11.1206
  39	1	6	0.148422	-58.0509	12.9614	-13.9596
  40	1	6	0.146291	-58.9018	10.9623	-12.7589
  41	1	6	0.158981	-52.8516	15.9396	-15.4944
  42	1	6	0.141813	-52.7761	18.415	-15.6884
  43	1	6	0.143633	-56.4744	18.6948	-13.3954
  44	1	5	-0.474465	-57.545	16.1774	-12.3557
  45	1	5	-0.469737	-54.2315	13.5989	-14.2949
  46	1	7	-0.37887	-54.7965	13.8503	-10.652
  47	1	9	0.115886	-55.0826	14.899	-10.5011
  48	1	9	0.123845	-53.9127	13.8229	-11.3025
  49	1	9	0.138418	-54.4933	13.4534	-9.67489
  50	1	6	0.21348	-57.8609	10.2867	-10.5859
  51	1	1	0.486064	-38.0797	12.4951	-19.1251
  52	1	2	0.047133	-38.3705	13.118	-17.9117
  53	1	3	0.001076	-39.1059	14.3552	-18.2765
  54	1	2	0.034038	-38.5575	13.2065	-20.2251
  55	1	3	0.050122	-39.2099	14.408	-19.6512
  56	1	5	-0.383076	-38.1153	12.7361	-16.7818
  57	1	5	-0.380811	-38.5045	12.9077	-21.4065
  58	1	3	-0.001248	-39.6583	15.345	-17.4559
  59	1	3	-0.036565	-39.8552	15.4671	-20.2901
  60	1	3	-0.208842	-40.4149	16.4779	-19.4834
  61	1	3	-0.065319	-40.3531	16.4269	-18.0613
  62	1	6	0.153391	-39.5423	15.2457	-16.3818
  63	1	6	0.155343	-39.9203	15.4992	-21.3757
  64	1	6	0.174191	-40.9155	17.3084	-19.9773
  65	1	7	-0.106637	-41.0223	17.5685	-17.2399
  66	1	7	0.445763	-41.3127	17.1852	-15.7395
  67	1	8	-0.144255	-42.1251	18.0872	-15.1429
  68	1	8	-0.136881	-40.1969	17.1075	-14.98
  69	1	8	-0.144092	-41.9416	15.9917	-15.6441
  70	1	7	0.367264	-40.0197	18.7827	-17.2787
  71	1	8	-0.12104	-38.7644	18.401	-16.9494
  72	1	8	-0.122614	-40.3537	19.7803	-16.4298
  73	1	8	-0.112321	-39.9354	19.3216	-18.5162
  74	1	3	-0.021957	-42.4056	17.8765	-17.8867
  75	1	3	-0.054241	-42.8883	19.1975	-18.0877
  76	1	3	-0.111709	-44.135	19.3753	-18.7017
  77	1	3	-0.087244	-43.2397	16.789	-18.2743
  78	1	3	-0.118951	-44.4877	16.9906	-18.8956
  79	1	3	-0.044875	-44.9049	18.3063	-19.1094
  80	1	2	0.461883	-46.1567	18.8318	-19.714
  81	1	1	-0.007433	-46.0773	20.2144	-19.5894
  82	1	2	0.491356	-44.8811	20.6234	-19.0129
  83	1	3	-0.019445	-47.1203	21.1119	-19.9599
  84	1	3	-0.186861	-46.8662	22.0512	-20.976
  85	1	3	-0.068374	-47.8577	22.9506	-21.3884
  86	1	3	-0.009193	-48.3868	21.0815	-19.3241
  87	1	3	0.220761	-49.3934	21.987	-19.7552
  88	1	3	-0.402098	-49.122	22.9135	-20.785
  89	1	6	0.148422	-45.8884	22.0858	-21.4505
  90	1	6	0.146291	-47.6448	23.6679	-22.1797
  91	1	6	0.158981	-45.1143	16.153	-19.1962
  92	1	6	0.141813	-42.9118	15.7667	-18.1033
  93	1	6	0.143633	-42.3313	20.0783	-17.7843
  94	1	5	-0.474465	-44.5062	21.7593	-18.7812
  95	1	5	-0.469737	-47.0646	18.1633	-20.1784
  96	1	7	-0.37887	-48.6721	20.0593	-18.2071
  97	1	9	0.115886	-49.2887	20.4638	-17.3983
  98	1	9	0.123845	-47.7626	19.7131	-17.7048
  99	1	9	0.138418	-49.18	19.1736	-18.6133
 100	1	6	0.21348	-49.8962	23.5998	-21.1207
 101	1	1	0.486064	-26.1685	4.18281	-26.1351
 102	1	2	0.047133	-26.0776	5.57433	-26.122
 103	1	3	0.001076	-27.3902	6.04573	-25.6094
 104	1	2	0.034038	-27.3953	3.71696	-25.6676
 105	1	3	0.050122	-28.1696	4.93987	-25.3367
 106	1	5	-0.383076	-25.1423	6.27543	-26.469
 107	1	5	-0.380811	-27.7797	2.56381	-25.5656
 108	1	3	-0.001248	-27.876	7.34942	-25.4479
 109	1	3	-0.036565	-29.4802	5.07381	-24.8757
 110	1	3	-0.208842	-29.9901	6.37736	-24.7067
 111	1	3	-0.065319	-29.2074	7.53411	-24.9842
 112	1	6	0.153391	-27.2256	8.17618	-25.7136
 113	1	6	0.155343	-30.0888	4.19308	-24.682
 114	1	6	0.174191	-31.0231	6.48442	-24.3821
 115	1	7	-0.106637	-29.8754	8.93701	-24.8696
 116	1	7	0.445763	-28.8474	10.1254	-24.7389
 117	1	8	-0.144255	-27.916	9.87613	-23.7909
 118	1	8	-0.136881	-29.4598	11.276	-24.3769
 119	1	8	-0.144092	-28.179	10.3881	-25.884
 120	1	7	0.367264	-30.7091	9.1263	-26.1942
 121	1	8	-0.12104	-29.9651	8.86741	-27.294
 122	1	8	-0.122614	-31.1961	10.3786	-26.3434
 123	1	8	-0.112321	-31.7608	8.27754	-26.2507
 124	1	3	-0.021957	-30.7419	8.96683	-23.5751
 125	1	3	-0.054241	-32.0727	9.46403	-23.5462
 126	1	3	-0.111709	-32.7752	9.449	-22.3351
 127	1	3	-0.087244	-30.173	8.49914	-22.3564
 128	1	3	-0.118951	-30.8958	8.50174	-21.1459
 129	1	3	-0.044875	-32.2075	8.98365	-21.1682
 130	1	2	0.461883	-33.2179	9.08996	-20.0811
 131	1	1	-0.007433	-34.3537	9.61962	-20.6797
 132	1	2	0.491356	-34.1704	9.86417	-22.0356
 133	1	3	-0.019445	-35.5864	9.82429	-19.9967
 134	1	3	-0.186861	-36.2484	8.69654	-19.4778
 135	1	3	-0.068374	-37.4799	8.82382	-18.826
 136	1	3	-0.009193	-36.1576	11.1131	-19.851
 137	1	3	0.220761	-37.4268	11.2337	-19.2267
 138	1	3	-0.402098	-38.0713	10.0875	-18.7111
 139	1	6	0.148422	-35.8004	7.71049	-19.5749
 140	1	6	0.146291	-37.9758	7.94293	-18.421
 141	1	6	0.158981	-30.454	8.13699	-20.2205
 142	1	6	0.141813	-29.1536	8.12128	-22.3457
 143	1	6	0.143633	-32.5764	9.85184	-24.4258
 144	1	5	-0.474465	-34.979	10.2875	-22.8429
 145	1	5	-0.469737	-33.0713	8.73444	-18.9243
 146	1	7	-0.37887	-35.4102	12.353	-20.3641
 147	1	9	0.115886	-34.3218	12.2248	-20.3361
 148	1	9	0.123845	-35.6171	13.2495	-19.7678
 149	1	9	0.138418	-35.6928	12.5698	-21.4047
 150	1	6	0.21348	-39.0317	10.1822	-18.2088
 151	1	1	0.486064	-20.1532	2.10899	-15.1998
 152	1	2	0.047133	-18.9098	2.09472	-15.8294
 153	1	3	0.001076	-19.188	2.44458	-17.2444
 154	1	2	0.034038	-21.1944	2.45474	-16.0568
 155	1	3	0.050122	-20.5458	2.65804	-17.3757
 156	1	5	-0.383076	-17.827	1.7892	-15.3597
 157	1	5	-0.380811	-22.3899	2.50257	-15.8188
 158	1	3	-0.001248	-18.3145	2.52789	-18.3362
 159	1	3	-0.036565	-21.112	2.9779	-18.6089
 160	1	3	-0.208842	-20.2521	3.06997	-19.7205
 161	1	3	-0.065319	-18.8507	2.83106	-19.6157
 162	1	6	0.153391	-17.257	2.34968	-18.1697
 163	1	6	0.155343	-22.1835	3.14332	-18.6987
 164	1	6	0.174191	-20.692	3.32929	-20.6809
 165	1	7	-0.106637	-17.9764	2.93997	-20.8992
 166	1	7	0.445763	-17.7187	4.47917	-21.128
 167	1	8	-0.144255	-18.8657	5.16105	-21.3511
 168	1	8	-0.136881	-16.8972	4.72321	-22.1736
 169	1	8	-0.144092	-17.1625	5.06308	-20.0426
 170	1	7	0.367264	-16.5841	2.20226	-20.8027
 171	1	8	-0.12104	-15.6951	2.82437	-19.997
 172	1	8	-0.122614	-15.9988	2.09869	-22.0172
 173	1	8	-0.112321	-16.7043	0.941159	-20.3317
 174	1	3	-0.021957	-18.7815	2.25192	-22.0428
 175	1	3	-0.054241	-19.1676	2.92446	-23.2329
 176	1	3	-0.111709	-20.0768	2.30061	-24.0953
 177	1	3	-0.087244	-19.2737	0.932448	-21.827
 178	1	3	-0.118951	-20.1683	0.313433	-22.721
 179	1	3	-0.044875	-20.5739	1.03887	-23.8429
 180	1	2	0.461883	-21.6746	0.765779	-24.803
 181	1	1	-0.007433	-21.8146	1.93641	-25.5345
 182	1	2	0.491356	-20.8401	2.87845	-25.231
 183	1	3	-0.019445	-22.9691	2.22673	-26.3101
 184	1	3	-0.186861	-23.0992	1.64373	-27.5821
 185	1	3	-0.068374	-24.2355	1.88793	-28.3632
 186	1	3	-0.009193	-23.9939	3.05993	-25.7946
 187	1	3	0.220761	-25.1303	3.32618	-26.5992
 188	1	3	-0.402098	-25.2442	2.72981	-27.8746
 189	1	6	0.148422	-22.3198	0.988041	-27.963
 190	1	6	0.146291	-24.3315	1.42379	-29.3436
 191	1	6	0.158981	-20.5974	-0.663566	-22.5063
 192	1	6	0.141813	-19.0249	0.402276	-20.912
 193	1	6	0.143633	-18.8613	3.93981	-23.4632
 194	1	5	-0.474465	-20.7486	4.02169	-25.6421
 195	1	5	-0.469737	-22.4143	-0.202734	-24.7883
 196	1	7	-0.37887	-23.8636	3.66074	-24.385
 197	1	9	0.115886	-24.8281	3.92043	-23.9344
 198	1	9	0.123845	-23.2545	4.57554	-24.4132
 199	1	9	0.138418	-23.392	2.96328	-23.6826
 200	1	6	0.21348	-26.126	2.9146	-28.484
 201	1	1	0.486064	-20.2574	-11.8996	-15.0779
 202	1	2	0.047133	-20.5912	-11.747	-13.7333
 203	1	3	0.001076	-21.039	-10.3369	-13.6018
 204	1	2	0.034038	-20.4563	-10.7387	-15.8215
 205	1	3	0.050122	-20.9555	-9.73962	-14.8434
 206	1	5	-0.383076	-20.5036	-12.5661	-12.8342
 207	1	5	-0.380811	-20.2334	-10.5479	-17.0055
 208	1	3	-0.001248	-21.464	-9.63184	-12.469
 209	1	3	-0.036565	-21.2904	-8.39701	-15.0246
 210	1	3	-0.208842	-21.7119	-7.66555	-13.8957
 211	1	3	-0.065319	-21.8009	-8.25747	-12.6034
 212	1	6	0.153391	-21.5154	-10.1614	-11.5234
 213	1	6	0.155343	-21.2202	-7.93844	-16.0089
 214	1	6	0.174191	-21.9757	-6.61898	-14.0339
 215	1	7	-0.106637	-22.2912	-7.37984	-11.4134
 216	1	7	0.445763	-23.8546	-7.24822	-11.572
 217	1	8	-0.144255	-24.4458	-6.64035	-10.5189
 218	1	8	-0.136881	-24.4447	-8.45763	-11.7071
 219	1	8	-0.144092	-24.196	-6.54711	-12.677
 220	1	7	0.367264	-21.9768	-7.99066	-9.99275
 221	1	8	-0.12104	-22.195	-7.09129	-9.00672
 222	1	8	-0.122614	-20.6834	-8.36686	-9.87543
 223	1	8	-0.112321	-22.7245	-9.07762	-9.69837
 224	1	3	-0.021957	-21.5313	-6.02212	-11.4883
 225	1	3	-0.054241	-22.1796	-4.7577	-11.4333
 226	1	3	-0.111709	-21.4052	-3.59515	-11.5503
 227	1	3	-0.087244	-20.1153	-6.04665	-11.6344
 228	1	3	-0.118951	-19.3545	-4.86636	-11.7352
 229	1	3	-0.044875	-20.0339	-3.64762	-11.6931
 230	1	2	0.461883	-19.5241	-2.26393	-11.8671
 231	1	1	-0.007433	-20.6503	-1.45453	-11.8567
 232	1	2	0.491356	-21.8209	-2.16828	-11.6373
 233	1	3	-0.019445	-20.6085	-0.0784839	-12.2038
 234	1	3	-0.186861	-20.6114	0.883834	-11.1788
 235	1	3	-0.068374	-20.4943	2.24743	-11.48
 236	1	3	-0.009193	-20.499	0.321061	-13.557
 237	1	3	0.220761	-20.3483	1.69729	-13.8539
 238	1	3	-0.402098	-20.3546	2.65296	-12.8148
 239	1	6	0.148422	-20.6917	0.572336	-10.1404
 240	1	6	0.146291	-20.4909	2.98326	-10.6772
 241	1	6	0.158981	-18.2746	-4.89566	-11.8675
 242	1	6	0.141813	-19.5923	-6.99774	-11.69
 243	1	6	0.143633	-23.2549	-4.65154	-11.3297
 244	1	5	-0.474465	-22.9658	-1.75253	-11.648
 245	1	5	-0.469737	-18.3699	-1.94413	-12.0929
 246	1	7	-0.37887	-20.5064	-0.718332	-14.6901
 247	1	9	0.115886	-19.4834	-0.923834	-15.034
 248	1	9	0.123845	-21.0964	-0.380856	-15.5517
 249	1	9	0.138418	-20.9522	-1.67423	-14.3945
 250	1	6	0.21348	-20.2401	3.70976	-13.0445
 251	1	1	0.486064	-17.5989	-22.859	-23.1944
 252	1	2	0.047133	-17.9576	-21.9812	-22.1752
 253	1	3	0.001076	-19.4265	-22.131	-22.0401
 254	1	2	0.034038	-18.6961	-23.5011	-23.7691
 255	1	3	0.050122	-19.8671	-23.0332	-22.985
 256	1	5	-0.383076	-17.2296	-21.3174	-21.4564
 257	1	5	-0.380811	-18.7045	-24.3609	-24.6334
 258	1	3	-0.001248	-20.2817	-21.6134	-21.0657
 259	1	3	-0.036565	-21.198	-23.4583	-23.0136
 260	1	3	-0.208842	-22.0805	-22.949	-22.0359
 261	1	3	-0.065319	-21.6394	-22.026	-21.0451
 262	1	6	0.153391	-19.8723	-20.9533	-20.3049
 263	1	6	0.155343	-21.5222	-24.1985	-23.7416
 264	1	6	0.174191	-23.0986	-23.3253	-22.0355
 265	1	7	-0.106637	-22.5361	-21.5586	-19.8646
 266	1	7	0.445763	-24.0867	-21.664	-20.144
 267	1	8	-0.144255	-24.7989	-20.9829	-19.2179
 268	1	8	-0.136881	-24.5616	-22.9297	-20.1371
 269	1	8	-0.144092	-24.4255	-21.1401	-21.3432
 270	1	7	0.367264	-22.1782	-22.5044	-18.6531
 271	1	8	-0.12104	-22.3224	-23.811	-18.9708
 272	1	8	-0.122614	-22.9485	-22.2752	-17.566
 273	1	8	-0.112321	-20.888	-22.3712	-18.2684
 274	1	3	-0.021957	-22.2188	-20.0532	-19.607
 275	1	3	-0.054241	-21.7746	-19.5546	-18.3523
 276	1	3	-0.111709	-21.4353	-18.2005	-18.2424
 277	1	3	-0.087244	-22.3241	-19.1357	-20.6917
 278	1	3	-0.118951	-22.0024	-17.7701	-20.5514
 279	1	3	-0.044875	-21.5501	-17.3294	-19.3051
 280	1	2	0.461883	-21.0411	-15.9977	-18.8772
 281	1	1	-0.007433	-20.6093	-16.1717	-17.5691
 282	1	2	0.491356	-20.834	-17.4598	-17.103
 283	1	3	-0.019445	-19.8822	-15.1908	-16.8398
 284	1	3	-0.186861	-18.4972	-15.3876	-16.6922
 285	1	3	-0.068374	-17.7079	-14.4549	-16.0111
 286	1	3	-0.009193	-20.5012	-14.042	-16.289
 287	1	3	0.220761	-19.6941	-13.0893	-15.6158
 288	1	3	-0.402098	-18.3053	-13.3063	-15.4788
 289	1	6	0.148422	-18.0266	-16.2746	-17.1102
 290	1	6	0.146291	-16.6372	-14.6219	-15.9038
 291	1	6	0.158981	-22.0669	-17.0823	-21.3925
 292	1	6	0.141813	-22.6351	-19.4879	-21.6715
 293	1	6	0.143633	-21.6501	-20.1834	-17.4767
 294	1	5	-0.474465	-20.5167	-17.9342	-16.0268
 295	1	5	-0.469737	-20.9602	-14.9978	-19.5696
 296	1	7	-0.37887	-22.0141	-13.8293	-16.4338
 297	1	9	0.115886	-22.2364	-13.2406	-17.3346
 298	1	9	0.123845	-22.4506	-13.3097	-15.5722
 299	1	9	0.138418	-22.5612	-14.776	-16.514
 300	1	6	0.21348	-17.6878	-12.58	-14.956
 301	1	1	0.486064	-11.0282	-17.2089	-34.6559
 302	1	2	0.047133	-10.2695	-18.3677	-34.4661
 303	1	3	0.001076	-10.1998	-18.5527	-32.9935
 304	1	2	0.034038	-11.4644	-16.6531	-33.4528
 305	1	3	0.050122	-10.9427	-17.5539	-32.4
 306	1	5	-0.383076	-9.85769	-19.1528	-35.304
 307	1	5	-0.380811	-12.186	-15.684	-33.2779
 308	1	3	-0.001248	-9.58381	-19.5616	-32.2415
 309	1	3	-0.036565	-11.1778	-17.5432	-31.0267
 310	1	3	-0.208842	-10.6141	-18.579	-30.2588
 311	1	3	-0.065319	-9.78296	-19.5833	-30.8337
 312	1	6	0.153391	-8.99857	-20.308	-32.768
 313	1	6	0.155343	-11.8076	-16.7768	-30.5795
 314	1	6	0.174191	-10.8474	-18.6014	-29.1975
 315	1	7	-0.106637	-9.21045	-20.688	-29.8966
 316	1	7	0.445763	-8.40372	-21.8294	-30.6381
 317	1	8	-0.144255	-9.11475	-22.4348	-31.6147
 318	1	8	-0.136881	-8.04568	-22.8174	-29.7893
 319	1	8	-0.144092	-7.26993	-21.3764	-31.2198
 320	1	7	0.367264	-8.21352	-19.9838	-28.8852
 321	1	8	-0.12104	-7.2773	-19.2605	-29.5403
 322	1	8	-0.122614	-7.54823	-20.8512	-28.0903
 323	1	8	-0.112321	-8.82054	-19.1127	-28.0493
 324	1	3	-0.021957	-10.4542	-21.3471	-29.2337
 325	1	3	-0.054241	-10.6256	-21.4599	-27.8292
 326	1	3	-0.111709	-11.8183	-22.0095	-27.3392
 327	1	3	-0.087244	-11.4993	-21.8238	-30.0773
 328	1	3	-0.118951	-12.6651	-22.422	-29.5629
 329	1	3	-0.044875	-12.7998	-22.4958	-28.1766
 330	1	2	0.461883	-13.8856	-23.0811	-27.3462
 331	1	1	-0.007433	-13.5079	-22.8506	-26.0287
 332	1	2	0.491356	-12.2765	-22.2114	-25.9427
 333	1	3	-0.019445	-14.2595	-23.2473	-24.8828
 334	1	3	-0.186861	-13.6195	-24.0757	-23.9408
 335	1	3	-0.068374	-14.2572	-24.4455	-22.7534
 336	1	3	-0.009193	-15.5844	-22.7947	-24.6423
 337	1	3	0.220761	-16.2479	-23.2186	-23.463
 338	1	3	-0.402098	-15.5661	-24.0142	-22.5155
 339	1	6	0.148422	-12.5956	-24.3992	-24.1065
 340	1	6	0.146291	-13.7298	-25.0498	-22.0163
 341	1	6	0.158981	-13.4395	-22.8148	-30.2182
 342	1	6	0.141813	-11.4116	-21.7379	-31.1563
 343	1	6	0.143633	-9.87494	-21.131	-27.1186
 344	1	5	-0.474465	-11.6823	-21.8603	-24.9377
 345	1	5	-0.469737	-14.8762	-23.6615	-27.7565
 346	1	7	-0.37887	-16.2827	-21.836	-25.6164
 347	1	9	0.115886	-16.8516	-22.3976	-26.3711
 348	1	9	0.123845	-15.5717	-21.1932	-26.1486
 349	1	9	0.138418	-16.9772	-21.1516	-25.1145
 350	1	6	0.21348	-16.0477	-24.2727	-21.5749
 351	1	1	0.486064	-3.67174	-8.23921	-37.4324
 352	1	2	0.047133	-3.28624	-9.06098	-38.4946
 353	1	3	0.001076	-4.5488	-9.40719	-39.1985
 354	1	2	0.034038	-5.05196	-8.03401	-37.3909
 355	1	3	0.050122	-5.59304	-8.78506	-38.5496
 356	1	5	-0.383076	-2.16067	-9.38001	-38.8407
 357	1	5	-0.380811	-5.69443	-7.34173	-36.6183
 358	1	3	-0.001248	-4.7524	-10.1889	-40.3411
 359	1	3	-0.036565	-6.90065	-8.87941	-39.0273
 360	1	3	-0.208842	-7.12616	-9.6508	-40.1859
 361	1	3	-0.065319	-6.07338	-10.3462	-40.8504
 362	1	6	0.153391	-3.88037	-10.6494	-40.7912
 363	1	6	0.155343	-7.71279	-8.36853	-38.5141
 364	1	6	0.174191	-8.14858	-9.73741	-40.5467
 365	1	7	-0.106637	-6.41697	-11.2328	-42.0963
 366	1	7	0.445763	-5.18414	-12.0725	-42.6079
 367	1	8	-0.144255	-5.49683	-12.9206	-43.6132
 368	1	8	-0.136881	-4.68489	-12.8507	-41.6208
 369	1	8	-0.144092	-4.18157	-11.2939	-43.0732
 370	1	7	0.367264	-6.8825	-10.2449	-43.2361
 371	1	8	-0.12104	-8.13363	-9.78285	-43.0155
 372	1	8	-0.122614	-6.89648	-10.7911	-44.4717
 373	1	8	-0.112321	-6.07441	-9.16294	-43.3122
 374	1	3	-0.021957	-7.53237	-12.2602	-41.7258
 375	1	3	-0.054241	-7.81036	-12.577	-40.3692
 376	1	3	-0.111709	-8.81559	-13.5013	-40.0749
 377	1	3	-0.087244	-8.26505	-12.9566	-42.7319
 378	1	3	-0.118951	-9.22822	-13.9369	-42.4112
 379	1	3	-0.044875	-9.48234	-14.1906	-41.0604
 380	1	2	0.461883	-10.4272	-15.1351	-40.4064
 381	1	1	-0.007433	-10.2966	-14.9148	-39.0363
 382	1	2	0.491356	-9.36245	-13.9187	-38.7615
 383	1	3	-0.019445	-11.1091	-15.5569	-38.0487
 384	1	3	-0.186861	-12.5032	-15.5367	-38.25
 385	1	3	-0.068374	-13.378	-16.1066	-37.3221
 386	1	3	-0.009193	-10.5722	-16.1724	-36.8824
 387	1	3	0.220761	-11.4701	-16.7117	-35.9185
 388	1	3	-0.402098	-12.862	-16.6824	-36.1585
 389	1	6	0.148422	-12.921	-15.0716	-39.1399
 390	1	6	0.146291	-14.4529	-16.0745	-37.494
 391	1	6	0.158981	-9.76587	-14.4783	-43.1874
 392	1	6	0.141813	-8.07419	-12.7705	-43.7835
 393	1	6	0.143633	-7.27399	-12.1247	-39.5404
 394	1	5	-0.474465	-9.09758	-13.3955	-37.6926
 395	1	5	-0.469737	-11.1782	-15.9042	-40.9822
 396	1	7	-0.37887	-9.05227	-16.2153	-36.6511
 397	1	9	0.115886	-8.4856	-16.1618	-37.5869
 398	1	9	0.123845	-8.70836	-17.1402	-36.1817
 399	1	9	0.138418	-8.72605	-15.3791	-36.0178
 400	1	6	0.21348	-13.551	-17.0748	-35.4132
 401	1	1	0.486064	7.81881	-12.9433	-33.6909
 402	1	2	0.047133	6.43665	-12.7748	-33.658
 403	1	3	0.001076	6.13119	-12.401	-32.2559
 404	1	2	0.034038	8.41761	-12.7787	-32.4426
 405	1	3	0.050122	7.30611	-12.3973	-31.5344
 406	1	5	-0.383076	5.65205	-12.7695	-34.5916
 407	1	5	-0.380811	9.60585	-12.7856	-32.1677
 408	1	3	-0.001248	4.93096	-11.9479	-31.7051
 409	1	3	-0.036565	7.33788	-11.9585	-30.2083
 410	1	3	-0.208842	6.14063	-11.4721	-29.6392
 411	1	3	-0.065319	4.92953	-11.417	-30.3878
 412	1	6	0.153391	4.04076	-11.9287	-32.3296
 413	1	6	0.155343	8.27597	-11.9452	-29.6572
 414	1	6	0.174191	6.18896	-11.1036	-28.6197
 415	1	7	-0.106637	3.62587	-10.7442	-29.858
 416	1	7	0.445763	3.85537	-9.76635	-28.6451
 417	1	8	-0.144255	4.84639	-8.88141	-28.8984
 418	1	8	-0.136881	4.17278	-10.4031	-27.4954
 419	1	8	-0.144092	2.75265	-9.02795	-28.3851
 420	1	7	0.367264	2.67323	-11.9149	-29.411
 421	1	8	-0.12104	3.3123	-12.7929	-28.6046
 422	1	8	-0.122614	2.23299	-12.628	-30.472
 423	1	8	-0.112321	1.58295	-11.4927	-28.7327
 424	1	3	-0.021957	3.0505	-9.87298	-31.0161
 425	1	3	-0.054241	1.66413	-9.80309	-31.3229
 426	1	3	-0.111709	1.25655	-9.05997	-32.4409
 427	1	3	-0.087244	3.95434	-9.1092	-31.8102
 428	1	3	-0.118951	3.52708	-8.39093	-32.9419
 429	1	3	-0.044875	2.16522	-8.40685	-33.2462
 430	1	2	0.461883	1.42943	-7.75708	-34.3587
 431	1	1	-0.007433	0.0873307	-8.03967	-34.1382
 432	1	2	0.491356	-0.10426	-8.80375	-32.9901
 433	1	3	-0.019445	-0.949433	-7.46541	-34.9318
 434	1	3	-0.186861	-1.01916	-6.05962	-34.9528
 435	1	3	-0.068374	-1.94157	-5.3943	-35.7628
 436	1	3	-0.009193	-1.83269	-8.23457	-35.7374
 437	1	3	0.220761	-2.76415	-7.55166	-36.5705
 438	1	3	-0.402098	-2.80575	-6.13914	-36.569
 439	1	6	0.148422	-0.330747	-5.47097	-34.3511
 440	1	6	0.146291	-1.97533	-4.30617	-35.7728
 441	1	6	0.158981	4.22917	-7.84058	-33.5653
 442	1	6	0.141813	5.01496	-9.09876	-31.571
 443	1	6	0.143633	0.908754	-10.3138	-30.7341
 444	1	5	-0.474465	-1.15608	-9.14318	-32.4761
 445	1	5	-0.469737	1.92213	-7.06979	-35.2371
 446	1	7	-0.37887	-1.74988	-9.76966	-35.7396
 447	1	9	0.115886	-2.69807	-10.2448	-36.0161
 448	1	9	0.123845	-1.50112	-10.1856	-34.7592
 449	1	9	0.138418	-0.986506	-10.1164	-36.4495
 450	1	6	0.21348	-3.52554	-5.6162	-37.1956
 451	1	1	0.486064	8.93511	-22.1563	-44.7093
 452	1	2	0.047133	10.1134	-21.4247	-44.8507
 453	1	3	0.001076	10.4844	-21.0115	-43.4742
 454	1	2	0.034038	8.49682	-22.221	-43.3858
 455	1	3	0.050122	9.52875	-21.4933	-42.6038
 456	1	5	-0.383076	10.7335	-21.1767	-45.8712
 457	1	5	-0.380811	7.50817	-22.7793	-42.9382
 458	1	3	-0.001248	11.6037	-20.3025	-43.0242
 459	1	3	-0.036565	9.6503	-21.3108	-41.225
 460	1	3	-0.208842	10.7797	-20.6135	-40.7481
 461	1	3	-0.065319	11.7627	-20.0792	-41.6303
 462	1	6	0.153391	12.333	-19.972	-43.7562
 463	1	6	0.155343	8.90369	-21.7188	-40.547
 464	1	6	0.174191	10.8907	-20.5055	-39.6722
 465	1	7	-0.106637	13.022	-19.369	-41.0513
 466	1	7	0.445763	14.1112	-20.488	-40.8605
 467	1	8	-0.144255	13.7292	-21.3841	-39.9278
 468	1	8	-0.136881	15.3157	-19.9971	-40.49
 469	1	8	-0.144092	14.3137	-21.2052	-41.9888
 470	1	7	0.367264	13.6019	-18.2549	-42.0094
 471	1	8	-0.12104	12.6255	-17.4676	-42.5133
 472	1	8	-0.122614	14.2838	-18.741	-43.0702
 473	1	8	-0.112321	14.4574	-17.4365	-41.3547
 474	1	3	-0.021957	12.6299	-18.6458	-39.7244
 475	1	3	-0.054241	11.5352	-17.7428	-39.7456
 476	1	3	-0.111709	11.2101	-17.0321	-38.5848
 477	1	3	-0.087244	13.3436	-18.8025	-38.4986
 478	1	3	-0.118951	12.9955	-18.0784	-37.3394
 479	1	3	-0.044875	11.9217	-17.1873	-37.4154
 480	1	2	0.461883	11.4062	-16.2094	-36.4191
 481	1	1	-0.007433	10.4109	-15.4973	-37.0793
 482	1	2	0.491356	10.209	-15.9552	-38.3767
 483	1	3	-0.019445	9.81657	-14.3082	-36.5655
 484	1	3	-0.186861	10.0766	-13.1096	-37.2566
 485	1	3	-0.068374	9.58339	-11.887	-36.7926
 486	1	3	-0.009193	9.03143	-14.2894	-35.3843
 487	1	3	0.220761	8.55826	-13.0426	-34.9011
 488	1	3	-0.402098	8.83508	-11.8541	-35.6117
 489	1	6	0.148422	10.6712	-13.1236	-38.1671
 490	1	6	0.146291	9.79347	-10.9706	-37.3419
 491	1	6	0.158981	13.5675	-18.1766	-36.4187
 492	1	6	0.141813	14.1978	-19.4651	-38.4206
 493	1	6	0.143633	10.96	-17.5712	-40.6525
 494	1	5	-0.474465	9.46613	-15.5023	-39.2301
 495	1	5	-0.469737	11.8576	-16.0178	-35.3028
 496	1	7	-0.37887	8.70951	-15.5895	-34.6369
 497	1	9	0.115886	8.68501	-16.4558	-35.3089
 498	1	9	0.123845	7.72694	-15.5641	-34.1497
 499	1	9	0.138418	9.46664	-15.7908	-33.8658
 500	1	6	0.21348	8.46225	-10.9007	-35.2453
 501	1	1	0.486064	7.95045	-36.5026	-44.1271
 502	1	2	0.047133	7.49109	-36.395	-45.4387
 503	1	3	0.001076	7.2136	-34.9477	-45.6335
 504	1	2	0.034038	7.98476	-35.2799	-43.4612
 505	1	3	0.050122	7.50736	-34.2903	-44.4557
 506	1	5	-0.383076	7.37172	-37.2753	-46.2738
 507	1	5	-0.380811	8.35501	-35.0449	-42.3228
 508	1	3	-0.001248	6.73571	-34.2645	-46.7591
 509	1	3	-0.036565	7.3371	-32.912	-44.3303
 510	1	3	-0.208842	6.8554	-32.2053	-45.449
 511	1	3	-0.065319	6.55889	-32.8565	-46.6806
 512	1	6	0.153391	6.50241	-34.8357	-47.6518
 513	1	6	0.155343	7.55985	-32.4118	-43.3903
 514	1	6	0.174191	6.69695	-31.1342	-45.3426
 515	1	7	-0.106637	5.97682	-32.0143	-47.8517
 516	1	7	0.445763	4.42996	-31.8929	-47.5728
 517	1	8	-0.144255	3.76534	-31.2692	-48.5711
 518	1	8	-0.136881	4.17438	-31.2148	-46.4306
 519	1	8	-0.144092	3.84934	-33.1038	-47.4092
 520	1	7	0.367264	6.18578	-32.6655	-49.275
 521	1	8	-0.12104	5.38791	-33.7305	-49.5108
 522	1	8	-0.122614	7.45431	-33.0958	-49.4566
 523	1	8	-0.112321	5.93926	-31.7761	-50.2635
 524	1	3	-0.021957	6.72586	-30.6457	-47.8695
 525	1	3	-0.054241	6.06153	-29.3919	-47.7857
 526	1	3	-0.111709	6.82828	-28.2212	-47.7313
 527	1	3	-0.087244	8.14947	-30.6459	-47.9231
 528	1	3	-0.118951	8.8999	-29.4529	-47.9008
 529	1	3	-0.044875	8.20466	-28.2457	-47.799
 530	1	2	0.461883	8.70637	-26.8515	-47.6687
 531	1	1	-0.007433	7.5759	-26.0685	-47.4605
 532	1	2	0.491356	6.40344	-26.8119	-47.5273
 533	1	3	-0.019445	7.6047	-24.6714	-47.1756
 534	1	3	-0.186861	6.96249	-23.8033	-48.0772
 535	1	3	-0.068374	6.95807	-22.4208	-47.8635
 536	1	3	-0.009193	8.24092	-24.1508	-46.0171
 537	1	3	0.220761	8.24987	-22.7438	-45.8132
 538	1	3	-0.402098	7.60709	-21.8942	-46.7406
 539	1	6	0.148422	6.45917	-24.2045	-48.9539
 540	1	6	0.146291	6.46267	-21.7613	-48.5744
 541	1	6	0.158981	9.988	-29.4656	-47.9267
 542	1	6	0.141813	8.69061	-31.5874	-47.9573
 543	1	6	0.143633	4.98196	-29.2973	-47.7287
 544	1	5	-0.474465	5.25628	-26.4249	-47.3888
 545	1	5	-0.469737	9.87436	-26.5031	-47.6952
 546	1	7	-0.37887	8.93297	-25.099	-45.0229
 547	1	9	0.115886	9.99181	-25.2314	-45.2841
 548	1	9	0.123845	8.46995	-26.0917	-45.0033
 549	1	9	0.138418	8.88739	-24.7513	-43.9861
 550	1	6	0.21348	7.62683	-20.8163	-46.5956
 551	1	1	0.486064	17.9728	-32.8543	-39.497
 552	1	2	0.047133	18.1167	-34.0369	-38.773
 553	1	3	0.001076	17.7909	-35.1226	-39.7306
 554	1	2	0.034038	17.6149	-33.0753	-40.8269
 555	1	3	0.050122	17.4883	-34.5505	-40.9491
 556	1	5	-0.383076	18.457	-34.1777	-37.6101
 557	1	5	-0.380811	17.4431	-32.2551	-41.7138
 558	1	3	-0.001248	17.7725	-36.5085	-39.5376
 559	1	3	-0.036565	17.1434	-35.3368	-42.0498
 560	1	3	-0.208842	17.1134	-36.7363	-41.877
 561	1	3	-0.065319	17.4153	-37.3485	-40.6268
 562	1	6	0.153391	18.0351	-36.8919	-38.5574
 563	1	6	0.155343	16.9112	-34.8739	-43.0067
 564	1	6	0.174191	16.8533	-37.3536	-42.7344
 565	1	7	-0.106637	17.3811	-38.9034	-40.5231
 566	1	7	0.445763	17.3143	-39.442	-39.0432
 567	1	8	-0.144255	16.3364	-38.8338	-38.3344
 568	1	8	-0.136881	18.4673	-39.2688	-38.3588
 569	1	8	-0.144092	17.0377	-40.7656	-39.0064
 570	1	7	0.367264	18.7091	-39.4186	-41.197
 571	1	8	-0.12104	18.9376	-40.7359	-40.9957
 572	1	8	-0.122614	18.7055	-39.2167	-42.5344
 573	1	8	-0.112321	19.7932	-38.7636	-40.7223
 574	1	3	-0.021957	16.0839	-39.4028	-41.2239
 575	1	3	-0.054241	14.8674	-38.7228	-40.9593
 576	1	3	-0.111709	13.695	-39.1521	-41.5888
 577	1	3	-0.087244	16.0499	-40.5271	-42.0996
 578	1	3	-0.118951	14.8547	-40.9421	-42.7248
 579	1	3	-0.044875	13.6849	-40.226	-42.4527
 580	1	2	0.461883	12.2999	-40.3933	-42.9726
 581	1	1	-0.007433	11.56	-39.3751	-42.3856
 582	1	2	0.491356	12.3202	-38.5973	-41.5211
 583	1	3	-0.019445	10.1878	-39.1257	-42.6664
 584	1	3	-0.186861	9.22975	-40.0502	-42.2129
 585	1	3	-0.068374	7.86316	-39.8255	-42.422
 586	1	3	-0.009193	9.77887	-37.9597	-43.3582
 587	1	3	0.220761	8.39323	-37.7169	-43.5339
 588	1	3	-0.402098	7.44549	-38.6565	-43.0722
 589	1	6	0.148422	9.547	-40.95	-41.691
 590	1	6	0.146291	7.13208	-40.5492	-42.0645
 591	1	6	0.158981	14.8373	-41.7923	-43.4041
 592	1	6	0.141813	16.9465	-41.0972	-42.3155
 593	1	6	0.143633	14.829	-37.8672	-40.2882
 594	1	5	-0.474465	11.9727	-37.6224	-40.8777
 595	1	5	-0.469737	11.9249	-41.2284	-43.7773
 596	1	7	-0.37887	10.8242	-36.966	-43.8889
 597	1	9	0.115886	10.4872	-36.4321	-44.7854
 598	1	9	0.123845	11.7575	-37.4635	-44.1781
 599	1	9	0.138418	11.0672	-36.2172	-43.1213
 600	1	6	0.21348	6.38259	-38.4742	-43.2151
 601	1	1	0.486064	8.43963	-22.5801	-32.2022
 602	1	2	0.047133	8.754	-22.2022	-33.5094
 603	1	3	0.001076	10.1007	-22.7709	-33.7634
 604	1	2	0.034038	9.48973	-23.2537	-31.5759
 605	1	3	0.050122	10.5515	-23.365	-32.6051
 606	1	5	-0.383076	8.097	-21.5363	-34.293
 607	1	5	-0.380811	9.54474	-23.6818	-30.4351
 608	1	3	-0.001248	10.8453	-22.803	-34.9451
 609	1	3	-0.036565	11.8153	-23.9543	-32.538
 610	1	3	-0.208842	12.5948	-23.9755	-33.7136
 611	1	3	-0.065319	12.1048	-23.4629	-34.9493
 612	1	6	0.153391	10.4129	-22.3423	-35.8254
 613	1	6	0.155343	12.1703	-24.3933	-31.6077
 614	1	6	0.174191	13.5786	-24.4395	-33.6703
 615	1	7	-0.106637	12.9692	-23.6187	-36.2402
 616	1	7	0.445763	12.1337	-23.4483	-37.5634
 617	1	8	-0.144255	11.0238	-24.2207	-37.5403
 618	1	8	-0.136881	12.826	-23.8271	-38.6604
 619	1	8	-0.144092	11.7374	-22.174	-37.7803
 620	1	7	0.367264	14.0723	-22.4975	-36.155
 621	1	8	-0.12104	14.7297	-22.2869	-37.3153
 622	1	8	-0.122614	15.0035	-22.796	-35.2216
 623	1	8	-0.112321	13.5424	-21.3025	-35.8049
 624	1	3	-0.021957	13.5712	-25.0576	-36.306
 625	1	3	-0.054241	14.779	-25.3314	-37.0035
 626	1	3	-0.111709	15.2522	-26.6485	-37.0566
 627	1	3	-0.087244	12.8643	-26.1603	-35.7428
 628	1	3	-0.118951	13.3863	-27.4693	-35.7617
 629	1	3	-0.044875	14.5998	-27.6805	-36.4205
 630	1	2	0.461883	15.3799	-28.9284	-36.6295
 631	1	1	-0.007433	16.4392	-28.577	-37.4629