

################################################################################
##################################    Init    ##################################
################################################################################
units           real
atom_style      full
pair_style      lj/cut/coul/long 12.0  12.0
kspace_style    pppm 1e-4
bond_style      harmonic
angle_style     harmonic
dihedral_style  fourier
improper_style  cvff
special_bonds   amber
pair_modify     mix arithmetic
read_data       temp.lmps
  orthogonal box = (-104.17 -104.17 -104.17) to (104.17 104.17 104.17)
  1 by 1 by 1 MPI processor grid
  reading atoms ...
  106 atoms
  reading velocities ...
  106 velocities
  scanning bonds ...
  3 = max bonds/atom
  scanning angles ...
  6 = max angles/atom
  scanning dihedrals ...
  24 = max dihedrals/atom
  scanning impropers ...
  2 = max impropers/atom
  reading bonds ...
  115 bonds
  reading angles ...
  200 angles
  reading dihedrals ...
  296 dihedrals
  reading impropers ...
  32 impropers
  4 = max # of 1-2 neighbors
  10 = max # of 1-3 neighbors
  19 = max # of 1-4 neighbors
  22 = max # of special neighbors
  special bonds CPU = 0.000277996 secs
  read_data CPU = 0.00419998 secs
################################################################################

timestep        1
fix             pysimm_md all nve/limit 0.1
run             2000
PPPM initialization ...
  using 12-bit tables for long-range coulomb (../kspace.cpp:332)
  G vector (1/distance) = 0.0202914
  grid = 3 3 3
  stencil order = 5
  estimated absolute RMS force accuracy = 0.0452744
  estimated relative force accuracy = 0.000136343
  using double precision KISS FFT
  3d grid and FFT values/proc = 512 27
Neighbor list info ...
  update every 1 steps, delay 10 steps, check yes
  max neighbors/atom: 2000, page size: 100000
  master list distance cutoff = 14
  ghost atom cutoff = 14
  binsize = 7, bins = 30 30 30
  1 neighbor lists, perpetual/occasional/extra = 1 0 0
  (1) pair lj/cut/coul/long, perpetual
      attributes: half, newton on
      pair build: half/bin/newton
      stencil: half/bin/3d/newton
      bin: standard
Per MPI rank memory allocation (min/avg/max) = 17.89 | 17.89 | 17.89 Mbytes
Step Temp E_pair E_mol TotEng Press 
       0    13.751315    1299.4841    173.20105    1476.9891    37.912479 
    2000     680.9348    77.078846    276.64611    566.84738   -1.1783866 
Loop time of 0.427548 on 1 procs for 2000 steps with 106 atoms

Performance: 404.165 ns/day, 0.059 hours/ns, 4677.835 timesteps/s
99.9% CPU use with 1 MPI tasks x no OpenMP threads

MPI task timing breakdown:
Section |  min time  |  avg time  |  max time  |%varavg| %total
---------------------------------------------------------------
Pair    | 0.16503    | 0.16503    | 0.16503    |   0.0 | 38.60
Bond    | 0.092487   | 0.092487   | 0.092487   |   0.0 | 21.63
Kspace  | 0.15183    | 0.15183    | 0.15183    |   0.0 | 35.51
Neigh   | 0.011      | 0.011      | 0.011      |   0.0 |  2.57
Comm    | 0.00082135 | 0.00082135 | 0.00082135 |   0.0 |  0.19
Output  | 2.6941e-05 | 2.6941e-05 | 2.6941e-05 |   0.0 |  0.01
Modify  | 0.003809   | 0.003809   | 0.003809   |   0.0 |  0.89
Other   |            | 0.002541   |            |       |  0.59

Nlocal:    106 ave 106 max 106 min
Histogram: 1 0 0 0 0 0 0 0 0 0
Nghost:    0 ave 0 max 0 min
Histogram: 1 0 0 0 0 0 0 0 0 0
Neighs:    3672 ave 3672 max 3672 min
Histogram: 1 0 0 0 0 0 0 0 0 0

Total # of neighbors = 3672
Ave neighs/atom = 34.6415
Ave special neighs/atom = 10.8113
Neighbor list builds = 74
Dangerous builds = 0
unfix pysimm_md
min_style cg
minimize 0.001 0.001 10000 100000
WARNING: Using 'neigh_modify every 1 delay 0 check yes' setting during minimization (../min.cpp:190)
PPPM initialization ...
  using 12-bit tables for long-range coulomb (../kspace.cpp:332)
  G vector (1/distance) = 0.0202914
  grid = 3 3 3
  stencil order = 5
  estimated absolute RMS force accuracy = 0.0452744
  estimated relative force accuracy = 0.000136343
  using double precision KISS FFT
  3d grid and FFT values/proc = 512 27
Per MPI rank memory allocation (min/avg/max) = 19.01 | 19.01 | 19.01 Mbytes
Step Temp E_pair E_mol TotEng Press 
    2000     680.9348    77.078846    276.64611    566.84738   -1.1783866 
    2018     680.9348    64.042052     123.9084    401.07287   0.31880513 
Loop time of 0.0257521 on 1 procs for 18 steps with 106 atoms

100.9% CPU use with 1 MPI tasks x no OpenMP threads

Minimization stats:
  Stopping criterion = linesearch alpha is zero
  Energy initial, next-to-last, final = 
          353.72495902      187.950450395      187.950450395
  Force two-norm initial, final = 455.592 33.275
  Force max component initial, final = 109.211 7.17723
  Final line search alpha, max atom move = 6.6418e-12 4.76697e-11
  Iterations, force evaluations = 18 94

MPI task timing breakdown:
Section |  min time  |  avg time  |  max time  |%varavg| %total
---------------------------------------------------------------
Pair    | 0.013405   | 0.013405   | 0.013405   |   0.0 | 52.06
Bond    | 0.0048091  | 0.0048091  | 0.0048091  |   0.0 | 18.67
Kspace  | 0.0072384  | 0.0072384  | 0.0072384  |   0.0 | 28.11
Neigh   | 0          | 0          | 0          |   0.0 |  0.00
Comm    | 1.7166e-05 | 1.7166e-05 | 1.7166e-05 |   0.0 |  0.07
Output  | 0          | 0          | 0          |   0.0 |  0.00
Modify  | 0          | 0          | 0          |   0.0 |  0.00
Other   |            | 0.000282   |            |       |  1.10

Nlocal:    106 ave 106 max 106 min
Histogram: 1 0 0 0 0 0 0 0 0 0
Nghost:    0 ave 0 max 0 min
Histogram: 1 0 0 0 0 0 0 0 0 0
Neighs:    3668 ave 3668 max 3668 min
Histogram: 1 0 0 0 0 0 0 0 0 0

Total # of neighbors = 3668
Ave neighs/atom = 34.6038
Ave special neighs/atom = 10.8113
Neighbor list builds = 0
Dangerous builds = 0
write_dump all custom pysimm.dump.tmp id q x y z vx vy vz
quit


################################################################################
##################################    Init    ##################################
################################################################################
units           real
atom_style      full
pair_style      lj/cut/coul/long 12.0  12.0
kspace_style    pppm 1e-4
bond_style      harmonic
angle_style     harmonic
dihedral_style  fourier
improper_style  cvff
special_bonds   amber
pair_modify     mix arithmetic
read_data       temp.lmps
  orthogonal box = (-104.17 -104.17 -104.17) to (104.17 104.17 104.17)
  1 by 1 by 1 MPI processor grid
  reading atoms ...
  159 atoms
  reading velocities ...
  159 velocities
  scanning bonds ...
  3 = max bonds/atom
  scanning angles ...
  6 = max angles/atom
  scanning dihedrals ...
  24 = max dihedrals/atom
  scanning impropers ...
  2 = max impropers/atom
  reading bonds ...
  173 bonds
  reading angles ...
  302 angles
  reading dihedrals ...
  450 dihedrals
  reading impropers ...
  48 impropers
  4 = max # of 1-2 neighbors
  10 = max # of 1-3 neighbors
  19 = max # of 1-4 neighbors
  22 = max # of special neighbors
  special bonds CPU = 0.000315905 secs
  read_data CPU = 0.00461602 secs
################################################################################

timestep        1
fix             pysimm_md all nve/limit 0.1
run             2000
PPPM initialization ...
  using 12-bit tables for long-range coulomb (../kspace.cpp:332)
  G vector (1/distance) = 0.0550181
  grid = 9 9 9
  stencil order = 5
  estimated absolute RMS force accuracy = 0.0380441
  estimated relative force accuracy = 0.000114569
  using double precision KISS FFT
  3d grid and FFT values/proc = 2744 729
Neighbor list info ...
  update every 1 steps, delay 10 steps, check yes
  max neighbors/atom: 2000, page size: 100000
  master list distance cutoff = 14
  ghost atom cutoff = 14
  binsize = 7, bins = 30 30 30
  1 neighbor lists, perpetual/occasional/extra = 1 0 0
  (1) pair lj/cut/coul/long, perpetual
      attributes: half, newton on
      pair build: half/bin/newton
      stencil: half/bin/3d/newton
      bin: standard
Per MPI rank memory allocation (min/avg/max) = 18.04 | 18.04 | 18.04 Mbytes
Step Temp E_pair E_mol TotEng Press 
       0    457.08922    349463.79    332.98255    350012.05    10606.804 
    2000    948.51505    110.82966    558.85629    1116.4062   -4.9490118 
Loop time of 1.00664 on 1 procs for 2000 steps with 159 atoms

Performance: 171.661 ns/day, 0.140 hours/ns, 1986.815 timesteps/s
100.0% CPU use with 1 MPI tasks x no OpenMP threads

MPI task timing breakdown:
Section |  min time  |  avg time  |  max time  |%varavg| %total
---------------------------------------------------------------
Pair    | 0.27411    | 0.27411    | 0.27411    |   0.0 | 27.23
Bond    | 0.14186    | 0.14186    | 0.14186    |   0.0 | 14.09
Kspace  | 0.55927    | 0.55927    | 0.55927    |   0.0 | 55.56
Neigh   | 0.021537   | 0.021537   | 0.021537   |   0.0 |  2.14
Comm    | 0.0010653  | 0.0010653  | 0.0010653  |   0.0 |  0.11
Output  | 2.7895e-05 | 2.7895e-05 | 2.7895e-05 |   0.0 |  0.00
Modify  | 0.0056479  | 0.0056479  | 0.0056479  |   0.0 |  0.56
Other   |            | 0.003117   |            |       |  0.31

Nlocal:    159 ave 159 max 159 min
Histogram: 1 0 0 0 0 0 0 0 0 0
Nghost:    5 ave 5 max 5 min
Histogram: 1 0 0 0 0 0 0 0 0 0
Neighs:    5791 ave 5791 max 5791 min
Histogram: 1 0 0 0 0 0 0 0 0 0

Total # of neighbors = 5791
Ave neighs/atom = 36.4214
Ave special neighs/atom = 10.9182
Neighbor list builds = 100
Dangerous builds = 0
unfix pysimm_md
min_style cg
minimize 0.001 0.001 10000 100000
WARNING: Using 'neigh_modify every 1 delay 0 check yes' setting during minimization (../min.cpp:190)
PPPM initialization ...
  using 12-bit tables for long-range coulomb (../kspace.cpp:332)
  G vector (1/distance) = 0.0550181
  grid = 9 9 9
  stencil order = 5
  estimated absolute RMS force accuracy = 0.0380441
  estimated relative force accuracy = 0.000114569
  using double precision KISS FFT
  3d grid and FFT values/proc = 2744 729
Per MPI rank memory allocation (min/avg/max) = 19.17 | 19.17 | 19.17 Mbytes
Step Temp E_pair E_mol TotEng Press 
    2000    948.51505    110.82966    558.85629    1116.4062   -4.9490118 
    2028    948.51505    94.633337    181.78058    723.13415      1.72599 
Loop time of 0.066947 on 1 procs for 28 steps with 159 atoms

100.1% CPU use with 1 MPI tasks x no OpenMP threads

Minimization stats:
  Stopping criterion = linesearch alpha is zero
  Energy initial, next-to-last, final = 
         669.685947725      276.413921391      276.413921391
  Force two-norm initial, final = 735.262 33.7509
  Force max component initial, final = 153.581 5.22374
  Final line search alpha, max atom move = 8.0913e-12 4.22668e-11
  Iterations, force evaluations = 28 113

MPI task timing breakdown:
Section |  min time  |  avg time  |  max time  |%varavg| %total
---------------------------------------------------------------
Pair    | 0.025747   | 0.025747   | 0.025747   |   0.0 | 38.46
Bond    | 0.009141   | 0.009141   | 0.009141   |   0.0 | 13.65
Kspace  | 0.031514   | 0.031514   | 0.031514   |   0.0 | 47.07
Neigh   | 0          | 0          | 0          |   0.0 |  0.00
Comm    | 6.6519e-05 | 6.6519e-05 | 6.6519e-05 |   0.0 |  0.10
Output  | 0          | 0          | 0          |   0.0 |  0.00
Modify  | 0          | 0          | 0          |   0.0 |  0.00
Other   |            | 0.0004787  |            |       |  0.72

Nlocal:    159 ave 159 max 159 min
Histogram: 1 0 0 0 0 0 0 0 0 0
Nghost:    5 ave 5 max 5 min
Histogram: 1 0 0 0 0 0 0 0 0 0
Neighs:    5786 ave 5786 max 5786 min
Histogram: 1 0 0 0 0 0 0 0 0 0

Total # of neighbors = 5786
Ave neighs/atom = 36.3899
Ave special neighs/atom = 10.9182
Neighbor list builds = 0
Dangerous builds = 0
write_dump all custom pysimm.dump.tmp id q x y z vx vy vz
quit


################################################################################
##################################    Init    ##################################
################################################################################
units           real
atom_style      full
pair_style      lj/cut/coul/long 12.0  12.0
kspace_style    pppm 1e-4
bond_style      harmonic
angle_style     harmonic
dihedral_style  fourier
improper_style  cvff
special_bonds   amber
pair_modify     mix arithmetic
read_data       temp.lmps
  orthogonal box = (-104.17 -104.17 -104.17) to (104.17 104.17 104.17)
  1 by 1 by 1 MPI processor grid
  reading atoms ...
  212 atoms
  reading velocities ...
  212 velocities
  scanning bonds ...
  3 = max bonds/atom
  scanning angles ...
  6 = max angles/atom
  scanning dihedrals ...
  24 = max dihedrals/atom
  scanning impropers ...
  2 = max impropers/atom
  reading bonds ...
  231 bonds
  reading angles ...
  404 angles
  reading dihedrals ...
  604 dihedrals
  reading impropers ...
  64 impropers
  4 = max # of 1-2 neighbors
  10 = max # of 1-3 neighbors
  19 = max # of 1-4 neighbors
  22 = max # of special neighbors
  special bonds CPU = 0.000344038 secs
  read_data CPU = 0.00508094 secs
################################################################################

timestep        1
fix             pysimm_md all nve/limit 0.1
run             2000
PPPM initialization ...
  using 12-bit tables for long-range coulomb (../kspace.cpp:332)
  G vector (1/distance) = 0.0700842
  grid = 12 12 12
  stencil order = 5
  estimated absolute RMS force accuracy = 0.0334877
  estimated relative force accuracy = 0.000100847
  using double precision KISS FFT
  3d grid and FFT values/proc = 4913 1728
Neighbor list info ...
  update every 1 steps, delay 10 steps, check yes
  max neighbors/atom: 2000, page size: 100000
  master list distance cutoff = 14
  ghost atom cutoff = 14
  binsize = 7, bins = 30 30 30
  1 neighbor lists, perpetual/occasional/extra = 1 0 0
  (1) pair lj/cut/coul/long, perpetual
      attributes: half, newton on
      pair build: half/bin/newton
      stencil: half/bin/3d/newton
      bin: standard
Per MPI rank memory allocation (min/avg/max) = 18.22 | 18.22 | 18.22 Mbytes
Step Temp E_pair E_mol TotEng Press 
       0    713.68411 4.6939694e+08    449.70292 4.6939784e+08     14236669 
    2000    742.12727     154.2875    690.02749    1311.0766   -3.2010116 
Loop time of 1.63679 on 1 procs for 2000 steps with 212 atoms

Performance: 105.573 ns/day, 0.227 hours/ns, 1221.906 timesteps/s
100.1% CPU use with 1 MPI tasks x no OpenMP threads

MPI task timing breakdown:
Section |  min time  |  avg time  |  max time  |%varavg| %total
---------------------------------------------------------------
Pair    | 0.40379    | 0.40379    | 0.40379    |   0.0 | 24.67
Bond    | 0.18799    | 0.18799    | 0.18799    |   0.0 | 11.49
Kspace  | 1.0051     | 1.0051     | 1.0051     |   0.0 | 61.41
Neigh   | 0.027592   | 0.027592   | 0.027592   |   0.0 |  1.69
Comm    | 0.00125    | 0.00125    | 0.00125    |   0.0 |  0.08
Output  | 2.6941e-05 | 2.6941e-05 | 2.6941e-05 |   0.0 |  0.00
Modify  | 0.0075455  | 0.0075455  | 0.0075455  |   0.0 |  0.46
Other   |            | 0.003512   |            |       |  0.21

Nlocal:    212 ave 212 max 212 min
Histogram: 1 0 0 0 0 0 0 0 0 0
Nghost:    0 ave 0 max 0 min
Histogram: 1 0 0 0 0 0 0 0 0 0
Neighs:    8100 ave 8100 max 8100 min
Histogram: 1 0 0 0 0 0 0 0 0 0

Total # of neighbors = 8100
Ave neighs/atom = 38.2075
Ave special neighs/atom = 10.9717
Neighbor list builds = 93
Dangerous builds = 0
unfix pysimm_md
min_style cg
minimize 0.001 0.001 10000 100000
WARNING: Using 'neigh_modify every 1 delay 0 check yes' setting during minimization (../min.cpp:190)
PPPM initialization ...
  using 12-bit tables for long-range coulomb (../kspace.cpp:332)
  G vector (1/distance) = 0.0700842
  grid = 12 12 12
  stencil order = 5
  estimated absolute RMS force accuracy = 0.0334877
  estimated relative force accuracy = 0.000100847
  using double precision KISS FFT
  3d grid and FFT values/proc = 4913 1728
Per MPI rank memory allocation (min/avg/max) = 19.35 | 19.35 | 19.35 Mbytes
Step Temp E_pair E_mol TotEng Press 
    2000    742.12727     154.2875    690.02749    1311.0766   -3.2010116 
    2017    742.12727    139.86856    257.32401     863.9542    2.5205823 
Loop time of 0.031656 on 1 procs for 17 steps with 212 atoms

97.9% CPU use with 1 MPI tasks x no OpenMP threads

Minimization stats:
  Stopping criterion = energy tolerance
  Energy initial, next-to-last, final = 
         844.314990015       397.29945362      397.192569564
  Force two-norm initial, final = 813.883 52.1762
  Force max component initial, final = 122.846 9.10334
  Final line search alpha, max atom move = 0.00453033 0.0412411
  Iterations, force evaluations = 17 34

MPI task timing breakdown:
Section |  min time  |  avg time  |  max time  |%varavg| %total
---------------------------------------------------------------
Pair    | 0.010963   | 0.010963   | 0.010963   |   0.0 | 34.63
Bond    | 0.0035818  | 0.0035818  | 0.0035818  |   0.0 | 11.31
Kspace  | 0.016862   | 0.016862   | 0.016862   |   0.0 | 53.27
Neigh   | 0          | 0          | 0          |   0.0 |  0.00
Comm    | 2.4557e-05 | 2.4557e-05 | 2.4557e-05 |   0.0 |  0.08
Output  | 0          | 0          | 0          |   0.0 |  0.00
Modify  | 0          | 0          | 0          |   0.0 |  0.00
Other   |            | 0.0002244  |            |       |  0.71

Nlocal:    212 ave 212 max 212 min
Histogram: 1 0 0 0 0 0 0 0 0 0
Nghost:    1 ave 1 max 1 min
Histogram: 1 0 0 0 0 0 0 0 0 0
Neighs:    8116 ave 8116 max 8116 min
Histogram: 1 0 0 0 0 0 0 0 0 0

Total # of neighbors = 8116
Ave neighs/atom = 38.283
Ave special neighs/atom = 10.9717
Neighbor list builds = 0
Dangerous builds = 0
write_dump all custom pysimm.dump.tmp id q x y z vx vy vz
quit


################################################################################
##################################    Init    ##################################
################################################################################
units           real
atom_style      full
pair_style      lj/cut/coul/long 12.0  12.0
kspace_style    pppm 1e-4
bond_style      harmonic
angle_style     harmonic
dihedral_style  fourier
improper_style  cvff
special_bonds   amber
pair_modify     mix arithmetic
read_data       temp.lmps
  orthogonal box = (-104.17 -104.17 -104.17) to (104.17 104.17 104.17)
  1 by 1 by 1 MPI processor grid
  reading atoms ...
  265 atoms
  reading velocities ...
  265 velocities
  scanning bonds ...
  3 = max bonds/atom
  scanning angles ...
  6 = max angles/atom
  scanning dihedrals ...
  24 = max dihedrals/atom
  scanning impropers ...
  2 = max impropers/atom
  reading bonds ...
  289 bonds
  reading angles ...
  506 angles
  reading dihedrals ...
  758 dihedrals
  reading impropers ...
  80 impropers
  4 = max # of 1-2 neighbors
  10 = max # of 1-3 neighbors
  19 = max # of 1-4 neighbors
  22 = max # of special neighbors
  special bonds CPU = 0.000380993 secs
  read_data CPU = 0.00552702 secs
################################################################################

timestep        1
fix             pysimm_md all nve/limit 0.1
run             2000
PPPM initialization ...
  using 12-bit tables for long-range coulomb (../kspace.cpp:332)
  G vector (1/distance) = 0.0836983
  grid = 15 15 15
  stencil order = 5
  estimated absolute RMS force accuracy = 0.0276954
  estimated relative force accuracy = 8.3404e-05
  using double precision KISS FFT
  3d grid and FFT values/proc = 8000 3375
Neighbor list info ...
  update every 1 steps, delay 10 steps, check yes
  max neighbors/atom: 2000, page size: 100000
  master list distance cutoff = 14
  ghost atom cutoff = 14
  binsize = 7, bins = 30 30 30
  1 neighbor lists, perpetual/occasional/extra = 1 0 0
  (1) pair lj/cut/coul/long, perpetual
      attributes: half, newton on
      pair build: half/bin/newton
      stencil: half/bin/3d/newton
      bin: standard
Per MPI rank memory allocation (min/avg/max) = 18.49 | 18.49 | 18.49 Mbytes
Step Temp E_pair E_mol TotEng Press 
       0    595.87404 8.1489794e+09    569.90479 8.1489804e+09 2.4715301e+08 
    2000     802.1572    189.44266    840.30717    1660.9945   -2.4902339 
Loop time of 2.48059 on 1 procs for 2000 steps with 265 atoms

Performance: 69.661 ns/day, 0.345 hours/ns, 806.261 timesteps/s
100.0% CPU use with 1 MPI tasks x no OpenMP threads

MPI task timing breakdown:
Section |  min time  |  avg time  |  max time  |%varavg| %total
---------------------------------------------------------------
Pair    | 0.47993    | 0.47993    | 0.47993    |   0.0 | 19.35
Bond    | 0.23332    | 0.23332    | 0.23332    |   0.0 |  9.41
Kspace  | 1.71       | 1.71       | 1.71       |   0.0 | 68.94
Neigh   | 0.043243   | 0.043243   | 0.043243   |   0.0 |  1.74
Comm    | 0.0015349  | 0.0015349  | 0.0015349  |   0.0 |  0.06
Output  | 2.5034e-05 | 2.5034e-05 | 2.5034e-05 |   0.0 |  0.00
Modify  | 0.00896    | 0.00896    | 0.00896    |   0.0 |  0.36
Other   |            | 0.003552   |            |       |  0.14

Nlocal:    265 ave 265 max 265 min
Histogram: 1 0 0 0 0 0 0 0 0 0
Nghost:    17 ave 17 max 17 min
Histogram: 1 0 0 0 0 0 0 0 0 0
Neighs:    10480 ave 10480 max 10480 min
Histogram: 1 0 0 0 0 0 0 0 0 0

Total # of neighbors = 10480
Ave neighs/atom = 39.5472
Ave special neighs/atom = 11.0038
Neighbor list builds = 111
Dangerous builds = 0
unfix pysimm_md
min_style cg
minimize 0.001 0.001 10000 100000
WARNING: Using 'neigh_modify every 1 delay 0 check yes' setting during minimization (../min.cpp:190)
PPPM initialization ...
  using 12-bit tables for long-range coulomb (../kspace.cpp:332)
  G vector (1/distance) = 0.0836983
  grid = 15 15 15
  stencil order = 5
  estimated absolute RMS force accuracy = 0.0276954
  estimated relative force accuracy = 8.3404e-05
  using double precision KISS FFT
  3d grid and FFT values/proc = 8000 3375
Per MPI rank memory allocation (min/avg/max) = 19.61 | 19.61 | 19.61 Mbytes
Step Temp E_pair E_mol TotEng Press 
    2000     802.1572    189.44266    840.30717    1660.9945   -2.4902339 
    2042     802.1572    171.25054    297.58583     1100.081    3.3270616 
Loop time of 0.118138 on 1 procs for 42 steps with 265 atoms

99.9% CPU use with 1 MPI tasks x no OpenMP threads

Minimization stats:
  Stopping criterion = energy tolerance
  Energy initial, next-to-last, final = 
         1029.74983665      469.189782457      468.836363214
  Force two-norm initial, final = 859.751 39.9431
  Force max component initial, final = 113.587 8.22687
  Final line search alpha, max atom move = 0.0035728 0.029393
  Iterations, force evaluations = 42 84

MPI task timing breakdown:
Section |  min time  |  avg time  |  max time  |%varavg| %total
---------------------------------------------------------------
Pair    | 0.032849   | 0.032849   | 0.032849   |   0.0 | 27.81
Bond    | 0.010827   | 0.010827   | 0.010827   |   0.0 |  9.16
Kspace  | 0.07336    | 0.07336    | 0.07336    |   0.0 | 62.10
Neigh   | 0.00039601 | 0.00039601 | 0.00039601 |   0.0 |  0.34
Comm    | 4.7684e-05 | 4.7684e-05 | 4.7684e-05 |   0.0 |  0.04
Output  | 0          | 0          | 0          |   0.0 |  0.00
Modify  | 0          | 0          | 0          |   0.0 |  0.00
Other   |            | 0.0006583  |            |       |  0.56

Nlocal:    265 ave 265 max 265 min
Histogram: 1 0 0 0 0 0 0 0 0 0
Nghost:    17 ave 17 max 17 min
Histogram: 1 0 0 0 0 0 0 0 0 0
Neighs:    10506 ave 10506 max 10506 min
Histogram: 1 0 0 0 0 0 0 0 0 0

Total # of neighbors = 10506
Ave neighs/atom = 39.6453
Ave special neighs/atom = 11.0038
Neighbor list builds = 1
Dangerous builds = 0
write_dump all custom pysimm.dump.tmp id q x y z vx vy vz
quit


################################################################################
##################################    Init    ##################################
################################################################################
units           real
atom_style      full
pair_style      lj/cut/coul/long 12.0  12.0
kspace_style    pppm 1e-4
bond_style      harmonic
angle_style     harmonic
dihedral_style  fourier
improper_style  cvff
special_bonds   amber
pair_modify     mix arithmetic
read_data       temp.lmps
  orthogonal box = (-104.17 -104.17 -104.17) to (104.17 104.17 104.17)
  1 by 1 by 1 MPI processor grid
  reading atoms ...
  318 atoms
  reading velocities ...
  318 velocities
  scanning bonds ...
  3 = max bonds/atom
  scanning angles ...
  6 = max angles/atom
  scanning dihedrals ...
  24 = max dihedrals/atom
  scanning impropers ...
  2 = max impropers/atom
  reading bonds ...
  347 bonds
  reading angles ...
  608 angles
  reading dihedrals ...
  912 dihedrals
  reading impropers ...
  96 impropers
  4 = max # of 1-2 neighbors
  10 = max # of 1-3 neighbors
  19 = max # of 1-4 neighbors
  22 = max # of special neighbors
  special bonds CPU = 0.00041604 secs
  read_data CPU = 0.00596118 secs
################################################################################

timestep        1
fix             pysimm_md all nve/limit 0.1
run             2000
PPPM initialization ...
  using 12-bit tables for long-range coulomb (../kspace.cpp:332)
  G vector (1/distance) = 0.083699
  grid = 15 15 15
  stencil order = 5
  estimated absolute RMS force accuracy = 0.0303396
  estimated relative force accuracy = 9.13669e-05
  using double precision KISS FFT
  3d grid and FFT values/proc = 8000 3375
Neighbor list info ...
  update every 1 steps, delay 10 steps, check yes
  max neighbors/atom: 2000, page size: 100000
  master list distance cutoff = 14
  ghost atom cutoff = 14
  binsize = 7, bins = 30 30 30
  1 neighbor lists, perpetual/occasional/extra = 1 0 0
  (1) pair lj/cut/coul/long, perpetual
      attributes: half, newton on
      pair build: half/bin/newton
      stencil: half/bin/3d/newton
      bin: standard
Per MPI rank memory allocation (min/avg/max) = 18.49 | 18.49 | 18.49 Mbytes
Step Temp E_pair E_mol TotEng Press 
       0    670.31995    47832.785    579.07971    49045.262    1450.1743 
    2000    645.74638    268.58066    875.60651    1754.3638 -0.050589326 
Loop time of 2.67867 on 1 procs for 2000 steps with 318 atoms

Performance: 64.510 ns/day, 0.372 hours/ns, 746.639 timesteps/s
100.0% CPU use with 1 MPI tasks x no OpenMP threads

MPI task timing breakdown:
Section |  min time  |  avg time  |  max time  |%varavg| %total
---------------------------------------------------------------
Pair    | 0.62258    | 0.62258    | 0.62258    |   0.0 | 23.24
Bond    | 0.28329    | 0.28329    | 0.28329    |   0.0 | 10.58
Kspace  | 1.7097     | 1.7097     | 1.7097     |   0.0 | 63.82
Neigh   | 0.04603    | 0.04603    | 0.04603    |   0.0 |  1.72
Comm    | 0.0018895  | 0.0018895  | 0.0018895  |   0.0 |  0.07
Output  | 2.5034e-05 | 2.5034e-05 | 2.5034e-05 |   0.0 |  0.00
Modify  | 0.011012   | 0.011012   | 0.011012   |   0.0 |  0.41
Other   |            | 0.004182   |            |       |  0.16

Nlocal:    318 ave 318 max 318 min
Histogram: 1 0 0 0 0 0 0 0 0 0
Nghost:    37 ave 37 max 37 min
Histogram: 1 0 0 0 0 0 0 0 0 0
Neighs:    12781 ave 12781 max 12781 min
Histogram: 1 0 0 0 0 0 0 0 0 0

Total # of neighbors = 12781
Ave neighs/atom = 40.1918
Ave special neighs/atom = 11.0252
Neighbor list builds = 100
Dangerous builds = 0
unfix pysimm_md
min_style cg
minimize 0.001 0.001 10000 100000
WARNING: Using 'neigh_modify every 1 delay 0 check yes' setting during minimization (../min.cpp:190)
PPPM initialization ...
  using 12-bit tables for long-range coulomb (../kspace.cpp:332)
  G vector (1/distance) = 0.083699
  grid = 15 15 15
  stencil order = 5
  estimated absolute RMS force accuracy = 0.0303396
  estimated relative force accuracy = 9.13669e-05
  using double precision KISS FFT
  3d grid and FFT values/proc = 8000 3375
Per MPI rank memory allocation (min/avg/max) = 19.62 | 19.62 | 19.62 Mbytes
Step Temp E_pair E_mol TotEng Press 
    2000    645.74638    268.58066    875.60651    1754.3638 -0.050589326 
    2035    645.74638    216.40626    372.14061    1198.7235    3.3746092 
Loop time of 0.10976 on 1 procs for 35 steps with 318 atoms

100.2% CPU use with 1 MPI tasks x no OpenMP threads

Minimization stats:
  Stopping criterion = energy tolerance
  Energy initial, next-to-last, final = 
         1144.18717319      589.005782207      588.546870098
  Force two-norm initial, final = 915.947 37.9017
  Force max component initial, final = 175.585 7.96047
  Final line search alpha, max atom move = 0.00556382 0.0442906
  Iterations, force evaluations = 35 69

MPI task timing breakdown:
Section |  min time  |  avg time  |  max time  |%varavg| %total
---------------------------------------------------------------
Pair    | 0.034209   | 0.034209   | 0.034209   |   0.0 | 31.17
Bond    | 0.010864   | 0.010864   | 0.010864   |   0.0 |  9.90
Kspace  | 0.064005   | 0.064005   | 0.064005   |   0.0 | 58.31
Neigh   | 0          | 0          | 0          |   0.0 |  0.00
Comm    | 5.4836e-05 | 5.4836e-05 | 5.4836e-05 |   0.0 |  0.05
Output  | 0          | 0          | 0          |   0.0 |  0.00
Modify  | 0          | 0          | 0          |   0.0 |  0.00
Other   |            | 0.0006268  |            |       |  0.57

Nlocal:    318 ave 318 max 318 min
Histogram: 1 0 0 0 0 0 0 0 0 0
Nghost:    37 ave 37 max 37 min
Histogram: 1 0 0 0 0 0 0 0 0 0
Neighs:    12780 ave 12780 max 12780 min
Histogram: 1 0 0 0 0 0 0 0 0 0

Total # of neighbors = 12780
Ave neighs/atom = 40.1887
Ave special neighs/atom = 11.0252
Neighbor list builds = 0
Dangerous builds = 0
write_dump all custom pysimm.dump.tmp id q x y z vx vy vz
quit


################################################################################
##################################    Init    ##################################
################################################################################
units           real
atom_style      full
pair_style      lj/cut/coul/long 12.0  12.0
kspace_style    pppm 1e-4
bond_style      harmonic
angle_style     harmonic
dihedral_style  fourier
improper_style  cvff
special_bonds   amber
pair_modify     mix arithmetic
read_data       temp.lmps
  orthogonal box = (-104.17 -104.17 -104.17) to (104.17 104.17 104.17)
  1 by 1 by 1 MPI processor grid
  reading atoms ...
  371 atoms
  reading velocities ...
  371 velocities
  scanning bonds ...
  3 = max bonds/atom
  scanning angles ...
  6 = max angles/atom
  scanning dihedrals ...
  24 = max dihedrals/atom
  scanning impropers ...
  2 = max impropers/atom
  reading bonds ...
  405 bonds
  reading angles ...
  710 angles
  reading dihedrals ...
  1066 dihedrals
  reading impropers ...
  112 impropers
  4 = max # of 1-2 neighbors
  10 = max # of 1-3 neighbors
  19 = max # of 1-4 neighbors
  22 = max # of special neighbors
  special bonds CPU = 0.000450134 secs
  read_data CPU = 0.00646591 secs
################################################################################

timestep        1
fix             pysimm_md all nve/limit 0.1
run             2000
PPPM initialization ...
  using 12-bit tables for long-range coulomb (../kspace.cpp:332)
  G vector (1/distance) = 0.0836983
  grid = 15 15 15
  stencil order = 5
  estimated absolute RMS force accuracy = 0.0327697
  estimated relative force accuracy = 9.86849e-05
  using double precision KISS FFT
  3d grid and FFT values/proc = 8000 3375
Neighbor list info ...
  update every 1 steps, delay 10 steps, check yes
  max neighbors/atom: 2000, page size: 100000
  master list distance cutoff = 14
  ghost atom cutoff = 14
  binsize = 7, bins = 30 30 30
  1 neighbor lists, perpetual/occasional/extra = 1 0 0
  (1) pair lj/cut/coul/long, perpetual
      attributes: half, newton on
      pair build: half/bin/newton
      stencil: half/bin/3d/newton
      bin: standard
Per MPI rank memory allocation (min/avg/max) = 18.5 | 18.5 | 18.5 Mbytes
Step Temp E_pair E_mol TotEng Press 
       0    555.19875    1324.6384    556.22692    2493.1939     35.10485 
    2000    438.39616    277.94781    897.04786    1658.5027   -1.3608702 
Loop time of 2.99508 on 1 procs for 2000 steps with 371 atoms

Performance: 57.695 ns/day, 0.416 hours/ns, 667.762 timesteps/s
99.9% CPU use with 1 MPI tasks x no OpenMP threads

MPI task timing breakdown:
Section |  min time  |  avg time  |  max time  |%varavg| %total
---------------------------------------------------------------
Pair    | 0.70964    | 0.70964    | 0.70964    |   0.0 | 23.69
Bond    | 0.3313     | 0.3313     | 0.3313     |   0.0 | 11.06
Kspace  | 1.8864     | 1.8864     | 1.8864     |   0.0 | 62.98
Neigh   | 0.048427   | 0.048427   | 0.048427   |   0.0 |  1.62
Comm    | 0.002043   | 0.002043   | 0.002043   |   0.0 |  0.07
Output  | 4.1008e-05 | 4.1008e-05 | 4.1008e-05 |   0.0 |  0.00
Modify  | 0.012215   | 0.012215   | 0.012215   |   0.0 |  0.41
Other   |            | 0.005004   |            |       |  0.17

Nlocal:    371 ave 371 max 371 min
Histogram: 1 0 0 0 0 0 0 0 0 0
Nghost:    47 ave 47 max 47 min
Histogram: 1 0 0 0 0 0 0 0 0 0
Neighs:    15030 ave 15030 max 15030 min
Histogram: 1 0 0 0 0 0 0 0 0 0

Total # of neighbors = 15030
Ave neighs/atom = 40.5121
Ave special neighs/atom = 11.0404
Neighbor list builds = 89
Dangerous builds = 0
unfix pysimm_md
min_style cg
minimize 0.001 0.001 10000 100000
WARNING: Using 'neigh_modify every 1 delay 0 check yes' setting during minimization (../min.cpp:190)
PPPM initialization ...
  using 12-bit tables for long-range coulomb (../kspace.cpp:332)
  G vector (1/distance) = 0.0836983
  grid = 15 15 15
  stencil order = 5
  estimated absolute RMS force accuracy = 0.0327697
  estimated relative force accuracy = 9.86849e-05
  using double precision KISS FFT
  3d grid and FFT values/proc = 8000 3375
Per MPI rank memory allocation (min/avg/max) = 19.63 | 19.63 | 19.63 Mbytes
Step Temp E_pair E_mol TotEng Press 
    2000    438.39616    277.94781    897.04786    1658.5027   -1.3608702 
    2031    438.39616     255.7484    426.88549    1166.1409    2.9798064 
Loop time of 0.10816 on 1 procs for 31 steps with 371 atoms

100.8% CPU use with 1 MPI tasks x no OpenMP threads

Minimization stats:
  Stopping criterion = energy tolerance
  Energy initial, next-to-last, final = 
         1174.99567901      683.149009268      682.633890234
  Force two-norm initial, final = 846.966 43.3817
  Force max component initial, final = 103.263 6.98863
  Final line search alpha, max atom move = 0.00502737 0.0351344
  Iterations, force evaluations = 31 62

MPI task timing breakdown:
Section |  min time  |  avg time  |  max time  |%varavg| %total
---------------------------------------------------------------
Pair    | 0.035899   | 0.035899   | 0.035899   |   0.0 | 33.19
Bond    | 0.011402   | 0.011402   | 0.011402   |   0.0 | 10.54
Kspace  | 0.059614   | 0.059614   | 0.059614   |   0.0 | 55.12
Neigh   | 0.00054693 | 0.00054693 | 0.00054693 |   0.0 |  0.51
Comm    | 5.6982e-05 | 5.6982e-05 | 5.6982e-05 |   0.0 |  0.05
Output  | 0          | 0          | 0          |   0.0 |  0.00
Modify  | 0          | 0          | 0          |   0.0 |  0.00
Other   |            | 0.0006402  |            |       |  0.59

Nlocal:    371 ave 371 max 371 min
Histogram: 1 0 0 0 0 0 0 0 0 0
Nghost:    47 ave 47 max 47 min
Histogram: 1 0 0 0 0 0 0 0 0 0
Neighs:    15052 ave 15052 max 15052 min
Histogram: 1 0 0 0 0 0 0 0 0 0

Total # of neighbors = 15052
Ave neighs/atom = 40.5714
Ave special neighs/atom = 11.0404
Neighbor list builds = 1
Dangerous builds = 0
write_dump all custom pysimm.dump.tmp id q x y z vx vy vz
quit


################################################################################
##################################    Init    ##################################
################################################################################
units           real
atom_style      full
pair_style      lj/cut/coul/long 12.0  12.0
kspace_style    pppm 1e-4
bond_style      harmonic
angle_style     harmonic
dihedral_style  fourier
improper_style  cvff
special_bonds   amber
pair_modify     mix arithmetic
read_data       temp.lmps
  orthogonal box = (-104.17 -104.17 -104.17) to (104.17 104.17 104.17)
  1 by 1 by 1 MPI processor grid
  reading atoms ...
  424 atoms
  reading velocities ...
  424 velocities
  scanning bonds ...
  3 = max bonds/atom
  scanning angles ...
  6 = max angles/atom
  scanning dihedrals ...
  24 = max dihedrals/atom
  scanning impropers ...
  2 = max impropers/atom
  reading bonds ...
  463 bonds
  reading angles ...
  812 angles
  reading dihedrals ...
  1220 dihedrals
  reading impropers ...
  128 impropers
  4 = max # of 1-2 neighbors
  10 = max # of 1-3 neighbors
  19 = max # of 1-4 neighbors
  22 = max # of special neighbors
  special bonds CPU = 0.000560999 secs
  read_data CPU = 0.006984 secs
################################################################################

timestep        1
fix             pysimm_md all nve/limit 0.1
run             2000
PPPM initialization ...
  using 12-bit tables for long-range coulomb (../kspace.cpp:332)
  G vector (1/distance) = 0.083699
  grid = 15 15 15
  stencil order = 5
  estimated absolute RMS force accuracy = 0.0350332
  estimated relative force accuracy = 0.000105502
  using double precision KISS FFT
  3d grid and FFT values/proc = 8000 3375
Neighbor list info ...
  update every 1 steps, delay 10 steps, check yes
  max neighbors/atom: 2000, page size: 100000
  master list distance cutoff = 14
  ghost atom cutoff = 14
  binsize = 7, bins = 30 30 30
  1 neighbor lists, perpetual/occasional/extra = 1 0 0
  (1) pair lj/cut/coul/long, perpetual
      attributes: half, newton on
      pair build: half/bin/newton
      stencil: half/bin/3d/newton
      bin: standard
Per MPI rank memory allocation (min/avg/max) = 18.51 | 18.51 | 18.51 Mbytes
Step Temp E_pair E_mol TotEng Press 
       0    385.17373     299.5915    591.50024    1376.7506    2.0536194 
    2000    253.44655    288.17823    771.03778    1378.7824    -3.709155 
Loop time of 3.12057 on 1 procs for 2000 steps with 424 atoms

Performance: 55.374 ns/day, 0.433 hours/ns, 640.908 timesteps/s
100.1% CPU use with 1 MPI tasks x no OpenMP threads

MPI task timing breakdown:
Section |  min time  |  avg time  |  max time  |%varavg| %total
---------------------------------------------------------------
Pair    | 0.79798    | 0.79798    | 0.79798    |   0.0 | 25.57
Bond    | 0.37672    | 0.37672    | 0.37672    |   0.0 | 12.07
Kspace  | 1.8926     | 1.8926     | 1.8926     |   0.0 | 60.65
Neigh   | 0.031081   | 0.031081   | 0.031081   |   0.0 |  1.00
Comm    | 0.0020497  | 0.0020497  | 0.0020497  |   0.0 |  0.07
Output  | 2.718e-05  | 2.718e-05  | 2.718e-05  |   0.0 |  0.00
Modify  | 0.014018   | 0.014018   | 0.014018   |   0.0 |  0.45
Other   |            | 0.006126   |            |       |  0.20

Nlocal:    424 ave 424 max 424 min
Histogram: 1 0 0 0 0 0 0 0 0 0
Nghost:    47 ave 47 max 47 min
Histogram: 1 0 0 0 0 0 0 0 0 0
Neighs:    17119 ave 17119 max 17119 min
Histogram: 1 0 0 0 0 0 0 0 0 0

Total # of neighbors = 17119
Ave neighs/atom = 40.375
Ave special neighs/atom = 11.0519
Neighbor list builds = 51
Dangerous builds = 0
unfix pysimm_md
min_style cg
minimize 0.001 0.001 10000 100000
WARNING: Using 'neigh_modify every 1 delay 0 check yes' setting during minimization (../min.cpp:190)
PPPM initialization ...
  using 12-bit tables for long-range coulomb (../kspace.cpp:332)
  G vector (1/distance) = 0.083699
  grid = 15 15 15
  stencil order = 5
  estimated absolute RMS force accuracy = 0.0350332
  estimated relative force accuracy = 0.000105502
  using double precision KISS FFT
  3d grid and FFT values/proc = 8000 3375
Per MPI rank memory allocation (min/avg/max) = 19.63 | 19.63 | 19.63 Mbytes
Step Temp E_pair E_mol TotEng Press 
    2000    253.44655    288.17823    771.03778    1378.7824    -3.709155 
    2020    253.44655    275.37131    502.27081    1097.2085  0.063589215 
Loop time of 0.180092 on 1 procs for 20 steps with 424 atoms

99.9% CPU use with 1 MPI tasks x no OpenMP threads

Minimization stats:
  Stopping criterion = linesearch alpha is zero
  Energy initial, next-to-last, final = 
         1059.21601461      777.642123081      777.642123081
  Force two-norm initial, final = 602.474 57.1044
  Force max component initial, final = 75.8468 6.71637
  Final line search alpha, max atom move = 3.1755e-12 2.13278e-11
  Iterations, force evaluations = 20 99

MPI task timing breakdown:
Section |  min time  |  avg time  |  max time  |%varavg| %total
---------------------------------------------------------------
Pair    | 0.063489   | 0.063489   | 0.063489   |   0.0 | 35.25
Bond    | 0.020179   | 0.020179   | 0.020179   |   0.0 | 11.20
Kspace  | 0.095561   | 0.095561   | 0.095561   |   0.0 | 53.06
Neigh   | 0          | 0          | 0          |   0.0 |  0.00
Comm    | 6.938e-05  | 6.938e-05  | 6.938e-05  |   0.0 |  0.04
Output  | 0          | 0          | 0          |   0.0 |  0.00
Modify  | 0          | 0          | 0          |   0.0 |  0.00
Other   |            | 0.0007927  |            |       |  0.44

Nlocal:    424 ave 424 max 424 min
Histogram: 1 0 0 0 0 0 0 0 0 0
Nghost:    47 ave 47 max 47 min
Histogram: 1 0 0 0 0 0 0 0 0 0
Neighs:    17104 ave 17104 max 17104 min
Histogram: 1 0 0 0 0 0 0 0 0 0

Total # of neighbors = 17104
Ave neighs/atom = 40.3396
Ave special neighs/atom = 11.0519
Neighbor list builds = 0
Dangerous builds = 0
write_dump all custom pysimm.dump.tmp id q x y z vx vy vz
quit


################################################################################
##################################    Init    ##################################
################################################################################
units           real
atom_style      full
pair_style      lj/cut/coul/long 12.0  12.0
kspace_style    pppm 1e-4
bond_style      harmonic
angle_style     harmonic
dihedral_style  fourier
improper_style  cvff
special_bonds   amber
pair_modify     mix arithmetic
read_data       temp.lmps
  orthogonal box = (-104.17 -104.17 -104.17) to (104.17 104.17 104.17)
  1 by 1 by 1 MPI processor grid
  reading atoms ...
  477 atoms
  reading velocities ...
  477 velocities
  scanning bonds ...
  3 = max bonds/atom
  scanning angles ...
  6 = max angles/atom
  scanning dihedrals ...
  24 = max dihedrals/atom
  scanning impropers ...
  2 = max impropers/atom
  reading bonds ...
  521 bonds
  reading angles ...
  914 angles
  reading dihedrals ...
  1374 dihedrals
  reading impropers ...
  144 impropers
  4 = max # of 1-2 neighbors
  10 = max # of 1-3 neighbors
  19 = max # of 1-4 neighbors
  22 = max # of special neighbors
  special bonds CPU = 0.000547886 secs
  read_data CPU = 0.123649 secs
################################################################################

timestep        1
fix             pysimm_md all nve/limit 0.1
run             2000
PPPM initialization ...
  using 12-bit tables for long-range coulomb (../kspace.cpp:332)
  G vector (1/distance) = 0.0879341
  grid = 16 16 16
  stencil order = 5
  estimated absolute RMS force accuracy = 0.0334654
  estimated relative force accuracy = 0.00010078
  using double precision KISS FFT
  3d grid and FFT values/proc = 9261 4096
Neighbor list info ...
  update every 1 steps, delay 10 steps, check yes
  max neighbors/atom: 2000, page size: 100000
  master list distance cutoff = 14
  ghost atom cutoff = 14
  binsize = 7, bins = 30 30 30
  1 neighbor lists, perpetual/occasional/extra = 1 0 0
  (1) pair lj/cut/coul/long, perpetual
      attributes: half, newton on
      pair build: half/bin/newton
      stencil: half/bin/3d/newton
      bin: standard
Per MPI rank memory allocation (min/avg/max) = 18.62 | 18.62 | 18.62 Mbytes
Step Temp E_pair E_mol TotEng Press 
       0    226.74326    38109.199    787.42137    39218.338    1148.1542 
    2000    353.13141    366.46612    938.85692    1806.3691  -0.93955604 
Loop time of 3.70885 on 1 procs for 2000 steps with 477 atoms

Performance: 46.591 ns/day, 0.515 hours/ns, 539.251 timesteps/s
100.0% CPU use with 1 MPI tasks x no OpenMP threads

MPI task timing breakdown:
Section |  min time  |  avg time  |  max time  |%varavg| %total
---------------------------------------------------------------
Pair    | 0.92819    | 0.92819    | 0.92819    |   0.0 | 25.03
Bond    | 0.42625    | 0.42625    | 0.42625    |   0.0 | 11.49
Kspace  | 2.2606     | 2.2606     | 2.2606     |   0.0 | 60.95
Neigh   | 0.070107   | 0.070107   | 0.070107   |   0.0 |  1.89
Comm    | 0.0024867  | 0.0024867  | 0.0024867  |   0.0 |  0.07
Output  | 3.0041e-05 | 3.0041e-05 | 3.0041e-05 |   0.0 |  0.00
Modify  | 0.0157     | 0.0157     | 0.0157     |   0.0 |  0.42
Other   |            | 0.005469   |            |       |  0.15

Nlocal:    477 ave 477 max 477 min
Histogram: 1 0 0 0 0 0 0 0 0 0
Nghost:    48 ave 48 max 48 min
Histogram: 1 0 0 0 0 0 0 0 0 0
Neighs:    19307 ave 19307 max 19307 min
Histogram: 1 0 0 0 0 0 0 0 0 0

Total # of neighbors = 19307
Ave neighs/atom = 40.4759
Ave special neighs/atom = 11.0608
Neighbor list builds = 98
Dangerous builds = 0
unfix pysimm_md
min_style cg
minimize 0.001 0.001 10000 100000
WARNING: Using 'neigh_modify every 1 delay 0 check yes' setting during minimization (../min.cpp:190)
PPPM initialization ...
  using 12-bit tables for long-range coulomb (../kspace.cpp:332)
  G vector (1/distance) = 0.0879341
  grid = 16 16 16
  stencil order = 5
  estimated absolute RMS force accuracy = 0.0334654
  estimated relative force accuracy = 0.00010078
  using double precision KISS FFT
  3d grid and FFT values/proc = 9261 4096
Per MPI rank memory allocation (min/avg/max) = 19.75 | 19.75 | 19.75 Mbytes
Step Temp E_pair E_mol TotEng Press 
    2000    353.13141    366.46612    938.85692    1806.3691  -0.93955604 
    2036    353.13141    321.80809    549.41884    1372.2729    2.9695355 
Loop time of 0.150663 on 1 procs for 36 steps with 477 atoms

100.2% CPU use with 1 MPI tasks x no OpenMP threads

Minimization stats:
  Stopping criterion = energy tolerance
  Energy initial, next-to-last, final = 
         1305.32304457      872.053983656      871.226924144
  Force two-norm initial, final = 791.179 46.6242
  Force max component initial, final = 139.379 5.69998
  Final line search alpha, max atom move = 0.00291568 0.0166193
  Iterations, force evaluations = 36 72

MPI task timing breakdown:
Section |  min time  |  avg time  |  max time  |%varavg| %total
---------------------------------------------------------------
Pair    | 0.052366   | 0.052366   | 0.052366   |   0.0 | 34.76
Bond    | 0.016702   | 0.016702   | 0.016702   |   0.0 | 11.09
Kspace  | 0.080645   | 0.080645   | 0.080645   |   0.0 | 53.53
Neigh   | 0          | 0          | 0          |   0.0 |  0.00
Comm    | 6.628e-05  | 6.628e-05  | 6.628e-05  |   0.0 |  0.04
Output  | 0          | 0          | 0          |   0.0 |  0.00
Modify  | 0          | 0          | 0          |   0.0 |  0.00
Other   |            | 0.0008843  |            |       |  0.59

Nlocal:    477 ave 477 max 477 min
Histogram: 1 0 0 0 0 0 0 0 0 0
Nghost:    49 ave 49 max 49 min
Histogram: 1 0 0 0 0 0 0 0 0 0
Neighs:    19301 ave 19301 max 19301 min
Histogram: 1 0 0 0 0 0 0 0 0 0

Total # of neighbors = 19301
Ave neighs/atom = 40.4633
Ave special neighs/atom = 11.0608
Neighbor list builds = 0
Dangerous builds = 0
write_dump all custom pysimm.dump.tmp id q x y z vx vy vz
quit


################################################################################
##################################    Init    ##################################
################################################################################
units           real
atom_style      full
pair_style      lj/cut/coul/long 12.0  12.0
kspace_style    pppm 1e-4
bond_style      harmonic
angle_style     harmonic
dihedral_style  fourier
improper_style  cvff
special_bonds   amber
pair_modify     mix arithmetic
read_data       temp.lmps
  orthogonal box = (-104.17 -104.17 -104.17) to (104.17 104.17 104.17)
  1 by 1 by 1 MPI processor grid
  reading atoms ...
  530 atoms
  reading velocities ...
  530 velocities
  scanning bonds ...
  3 = max bonds/atom
  scanning angles ...
  6 = max angles/atom
  scanning dihedrals ...
  24 = max dihedrals/atom
  scanning impropers ...
  2 = max impropers/atom
  reading bonds ...
  579 bonds
  reading angles ...
  1016 angles
  reading dihedrals ...
  1528 dihedrals
  reading impropers ...
  160 impropers
  4 = max # of 1-2 neighbors
  10 = max # of 1-3 neighbors
  19 = max # of 1-4 neighbors
  22 = max # of special neighbors
  special bonds CPU = 0.000557899 secs
  read_data CPU = 0.007864 secs
################################################################################

timestep        1
fix             pysimm_md all nve/limit 0.1
run             2000
PPPM initialization ...
  using 12-bit tables for long-range coulomb (../kspace.cpp:332)
  G vector (1/distance) = 0.0879336
  grid = 16 16 16
  stencil order = 5
  estimated absolute RMS force accuracy = 0.0352749
  estimated relative force accuracy = 0.000106229
  using double precision KISS FFT
  3d grid and FFT values/proc = 9261 4096
Neighbor list info ...
  update every 1 steps, delay 10 steps, check yes
  max neighbors/atom: 2000, page size: 100000
  master list distance cutoff = 14
  ghost atom cutoff = 14
  binsize = 7, bins = 30 30 30
  1 neighbor lists, perpetual/occasional/extra = 1 0 0
  (1) pair lj/cut/coul/long, perpetual
      attributes: half, newton on
      pair build: half/bin/newton
      stencil: half/bin/3d/newton
      bin: standard
Per MPI rank memory allocation (min/avg/max) = 18.63 | 18.63 | 18.63 Mbytes
Step Temp E_pair E_mol TotEng Press 
       0    319.11632    438.56598    738.64946    1680.4135    4.4965163 
    2000    254.02217    372.98709    883.43148    1656.9731  -0.48962166 
Loop time of 3.8558 on 1 procs for 2000 steps with 530 atoms

Performance: 44.816 ns/day, 0.536 hours/ns, 518.699 timesteps/s
100.0% CPU use with 1 MPI tasks x no OpenMP threads

MPI task timing breakdown:
Section |  min time  |  avg time  |  max time  |%varavg| %total
---------------------------------------------------------------
Pair    | 1.0095     | 1.0095     | 1.0095     |   0.0 | 26.18
Bond    | 0.47092    | 0.47092    | 0.47092    |   0.0 | 12.21
Kspace  | 2.3005     | 2.3005     | 2.3005     |   0.0 | 59.66
Neigh   | 0.048593   | 0.048593   | 0.048593   |   0.0 |  1.26
Comm    | 0.0024424  | 0.0024424  | 0.0024424  |   0.0 |  0.06
Output  | 3.0994e-05 | 3.0994e-05 | 3.0994e-05 |   0.0 |  0.00
Modify  | 0.017298   | 0.017298   | 0.017298   |   0.0 |  0.45
Other   |            | 0.006541   |            |       |  0.17

Nlocal:    530 ave 530 max 530 min
Histogram: 1 0 0 0 0 0 0 0 0 0
Nghost:    48 ave 48 max 48 min
Histogram: 1 0 0 0 0 0 0 0 0 0
Neighs:    21977 ave 21977 max 21977 min
Histogram: 1 0 0 0 0 0 0 0 0 0

Total # of neighbors = 21977
Ave neighs/atom = 41.466
Ave special neighs/atom = 11.0679
Neighbor list builds = 61
Dangerous builds = 0
unfix pysimm_md
min_style cg
minimize 0.001 0.001 10000 100000
WARNING: Using 'neigh_modify every 1 delay 0 check yes' setting during minimization (../min.cpp:190)
PPPM initialization ...
  using 12-bit tables for long-range coulomb (../kspace.cpp:332)
  G vector (1/distance) = 0.0879336
  grid = 16 16 16
  stencil order = 5
  estimated absolute RMS force accuracy = 0.0352749
  estimated relative force accuracy = 0.000106229
  using double precision KISS FFT
  3d grid and FFT values/proc = 9261 4096
Per MPI rank memory allocation (min/avg/max) = 19.75 | 19.75 | 19.75 Mbytes
Step Temp E_pair E_mol TotEng Press 
    2000    254.02217    372.98709    883.43148    1656.9731  -0.48962166 
    2024    254.02217    353.77821    606.58773    1360.9204      1.78742 
Loop time of 0.108685 on 1 procs for 24 steps with 530 atoms

100.3% CPU use with 1 MPI tasks x no OpenMP threads

Minimization stats:
  Stopping criterion = energy tolerance
  Energy initial, next-to-last, final = 
         1256.41857761      961.291042654      960.365940707
  Force two-norm initial, final = 636.409 43.189
  Force max component initial, final = 106.086 6.29333
  Final line search alpha, max atom move = 0.00631594 0.0397483
  Iterations, force evaluations = 24 48

MPI task timing breakdown:
Section |  min time  |  avg time  |  max time  |%varavg| %total
---------------------------------------------------------------
Pair    | 0.040068   | 0.040068   | 0.040068   |   0.0 | 36.87
Bond    | 0.012266   | 0.012266   | 0.012266   |   0.0 | 11.29
Kspace  | 0.055665   | 0.055665   | 0.055665   |   0.0 | 51.22
Neigh   | 0          | 0          | 0          |   0.0 |  0.00
Comm    | 3.6716e-05 | 3.6716e-05 | 3.6716e-05 |   0.0 |  0.03
Output  | 0          | 0          | 0          |   0.0 |  0.00
Modify  | 0          | 0          | 0          |   0.0 |  0.00
Other   |            | 0.0006497  |            |       |  0.60

Nlocal:    530 ave 530 max 530 min
Histogram: 1 0 0 0 0 0 0 0 0 0
Nghost:    48 ave 48 max 48 min
Histogram: 1 0 0 0 0 0 0 0 0 0
Neighs:    21966 ave 21966 max 21966 min
Histogram: 1 0 0 0 0 0 0 0 0 0

Total # of neighbors = 21966
Ave neighs/atom = 41.4453
Ave special neighs/atom = 11.0679
Neighbor list builds = 0
Dangerous builds = 0
write_dump all custom pysimm.dump.tmp id q x y z vx vy vz
quit


################################################################################
##################################    Init    ##################################
################################################################################
units           real
atom_style      full
pair_style      lj/cut/coul/long 12.0  12.0
kspace_style    pppm 1e-4
bond_style      harmonic
angle_style     harmonic
dihedral_style  fourier
improper_style  cvff
special_bonds   amber
pair_modify     mix arithmetic
read_data       temp.lmps
  orthogonal box = (-131.247 -131.247 -131.247) to (131.247 131.247 131.247)
  1 by 1 by 1 MPI processor grid
  reading atoms ...
  583 atoms
  reading velocities ...
  583 velocities
  scanning bonds ...
  3 = max bonds/atom
  scanning angles ...
  6 = max angles/atom
  scanning dihedrals ...
  24 = max dihedrals/atom
  scanning impropers ...
  2 = max impropers/atom
  reading bonds ...
  637 bonds
  reading angles ...
  1118 angles
  reading dihedrals ...
  1682 dihedrals
  reading impropers ...
  176 impropers
  4 = max # of 1-2 neighbors
  10 = max # of 1-3 neighbors
  19 = max # of 1-4 neighbors
  22 = max # of special neighbors
  special bonds CPU = 0.000583172 secs
  read_data CPU = 0.00824308 secs
################################################################################

timestep        1
fix             pysimm_md all nve/limit 0.1
run             2000
PPPM initialization ...
WARNING: System is not charge neutral, net charge = -1.1e-05 (../kspace.cpp:313)
  using 12-bit tables for long-range coulomb (../kspace.cpp:332)
  G vector (1/distance) = 0.0733832
  grid = 16 16 16
  stencil order = 5
  estimated absolute RMS force accuracy = 0.0366806
  estimated relative force accuracy = 0.000110463
  using double precision KISS FFT
  3d grid and FFT values/proc = 9261 4096
Neighbor list info ...
  update every 1 steps, delay 10 steps, check yes
  max neighbors/atom: 2000, page size: 100000
  master list distance cutoff = 14
  ghost atom cutoff = 14
  binsize = 7, bins = 38 38 38
  1 neighbor lists, perpetual/occasional/extra = 1 0 0
  (1) pair lj/cut/coul/long, perpetual
      attributes: half, newton on
      pair build: half/bin/newton
      stencil: half/bin/3d/newton
      bin: standard
Per MPI rank memory allocation (min/avg/max) = 18.78 | 18.78 | 18.78 Mbytes
Step Temp E_pair E_mol TotEng Press 
       0    232.13002    378.00504    84677.888    85458.599   -231.30282 
    2000    882.15347    418.56727    1558.1284    3507.0833   -1.0038592 
Loop time of 4.2783 on 1 procs for 2000 steps with 583 atoms

Performance: 40.390 ns/day, 0.594 hours/ns, 467.475 timesteps/s
100.0% CPU use with 1 MPI tasks x no OpenMP threads

MPI task timing breakdown:
Section |  min time  |  avg time  |  max time  |%varavg| %total
---------------------------------------------------------------
Pair    | 1.2379     | 1.2379     | 1.2379     |   0.0 | 28.93
Bond    | 0.51698    | 0.51698    | 0.51698    |   0.0 | 12.08
Kspace  | 2.3499     | 2.3499     | 2.3499     |   0.0 | 54.93
Neigh   | 0.14685    | 0.14685    | 0.14685    |   0.0 |  3.43
Comm    | 0.0028205  | 0.0028205  | 0.0028205  |   0.0 |  0.07
Output  | 2.5988e-05 | 2.5988e-05 | 2.5988e-05 |   0.0 |  0.00
Modify  | 0.019252   | 0.019252   | 0.019252   |   0.0 |  0.45
Other   |            | 0.004578   |            |       |  0.11

Nlocal:    583 ave 583 max 583 min
Histogram: 1 0 0 0 0 0 0 0 0 0
Nghost:    18 ave 18 max 18 min
Histogram: 1 0 0 0 0 0 0 0 0 0
Neighs:    29675 ave 29675 max 29675 min
Histogram: 1 0 0 0 0 0 0 0 0 0

Total # of neighbors = 29675
Ave neighs/atom = 50.9005
Ave special neighs/atom = 11.0738
Neighbor list builds = 155
Dangerous builds = 0
unfix pysimm_md
min_style cg
minimize 0.001 0.001 10000 100000
WARNING: Using 'neigh_modify every 1 delay 0 check yes' setting during minimization (../min.cpp:190)
PPPM initialization ...
  using 12-bit tables for long-range coulomb (../kspace.cpp:332)
  G vector (1/distance) = 0.0733832
  grid = 16 16 16
  stencil order = 5
  estimated absolute RMS force accuracy = 0.0366806
  estimated relative force accuracy = 0.000110463
  using double precision KISS FFT
  3d grid and FFT values/proc = 9261 4096
Per MPI rank memory allocation (min/avg/max) = 19.9 | 19.9 | 19.9 Mbytes
Step Temp E_pair E_mol TotEng Press 
    2000    882.15347    418.56727    1558.1284    3507.0833   -1.0038592 
    2040    882.15347    373.49188      750.766    2654.6455     2.512216 
Loop time of 0.209313 on 1 procs for 40 steps with 583 atoms

99.8% CPU use with 1 MPI tasks x no OpenMP threads

Minimization stats:
  Stopping criterion = energy tolerance
  Energy initial, next-to-last, final = 
          1976.6956856      1124.62272878      1124.25788681
  Force two-norm initial, final = 1076.44 52.9066
  Force max component initial, final = 171.61 8.31815
  Final line search alpha, max atom move = 0.0024923 0.0207313
  Iterations, force evaluations = 40 80

MPI task timing breakdown:
Section |  min time  |  avg time  |  max time  |%varavg| %total
---------------------------------------------------------------
Pair    | 0.085514   | 0.085514   | 0.085514   |   0.0 | 40.85
Bond    | 0.022446   | 0.022446   | 0.022446   |   0.0 | 10.72
Kspace  | 0.099108   | 0.099108   | 0.099108   |   0.0 | 47.35
Neigh   | 0.0010281  | 0.0010281  | 0.0010281  |   0.0 |  0.49
Comm    | 5.6982e-05 | 5.6982e-05 | 5.6982e-05 |   0.0 |  0.03
Output  | 0          | 0          | 0          |   0.0 |  0.00
Modify  | 0          | 0          | 0          |   0.0 |  0.00
Other   |            | 0.00116    |            |       |  0.55

Nlocal:    583 ave 583 max 583 min
Histogram: 1 0 0 0 0 0 0 0 0 0
Nghost:    18 ave 18 max 18 min
Histogram: 1 0 0 0 0 0 0 0 0 0
Neighs:    29732 ave 29732 max 29732 min
Histogram: 1 0 0 0 0 0 0 0 0 0

Total # of neighbors = 29732
Ave neighs/atom = 50.9983
Ave special neighs/atom = 11.0738
Neighbor list builds = 1
Dangerous builds = 0
write_dump all custom pysimm.dump.tmp id q x y z vx vy vz
quit


################################################################################
##################################    Init    ##################################
################################################################################
units           real
atom_style      full
pair_style      lj/cut/coul/long 12.0  12.0
kspace_style    pppm 1e-4
bond_style      harmonic
angle_style     harmonic
dihedral_style  fourier
improper_style  cvff
special_bonds   amber
pair_modify     mix arithmetic
read_data       temp.lmps
  orthogonal box = (-135.483 -135.483 -135.483) to (135.483 135.483 135.483)
  1 by 1 by 1 MPI processor grid
  reading atoms ...
  636 atoms
  reading velocities ...
  636 velocities
  scanning bonds ...
  3 = max bonds/atom
  scanning angles ...
  6 = max angles/atom
  scanning dihedrals ...
  24 = max dihedrals/atom
  scanning impropers ...
  2 = max impropers/atom
  reading bonds ...
  695 bonds
  reading angles ...
  1220 angles
  reading dihedrals ...
  1836 dihedrals
  reading impropers ...
  192 impropers
  4 = max # of 1-2 neighbors
  10 = max # of 1-3 neighbors
  19 = max # of 1-4 neighbors
  22 = max # of special neighbors
  special bonds CPU = 0.000617981 secs
  read_data CPU = 0.00874996 secs
################################################################################

timestep        1
fix             pysimm_md all nve/limit 0.1
run             2000
PPPM initialization ...
WARNING: System is not charge neutral, net charge = -1.2e-05 (../kspace.cpp:313)
  using 12-bit tables for long-range coulomb (../kspace.cpp:332)
  G vector (1/distance) = 0.0786001
  grid = 18 18 18
  stencil order = 5
  estimated absolute RMS force accuracy = 0.0325901
  estimated relative force accuracy = 9.81441e-05
  using double precision KISS FFT
  3d grid and FFT values/proc = 12167 5832
Neighbor list info ...
  update every 1 steps, delay 10 steps, check yes
  max neighbors/atom: 2000, page size: 100000
  master list distance cutoff = 14
  ghost atom cutoff = 14
  binsize = 7, bins = 39 39 39
  1 neighbor lists, perpetual/occasional/extra = 1 0 0
  (1) pair lj/cut/coul/long, perpetual
      attributes: half, newton on
      pair build: half/bin/newton
      stencil: half/bin/3d/newton
      bin: standard
Per MPI rank memory allocation (min/avg/max) = 19.06 | 19.06 | 19.06 Mbytes
Step Temp E_pair E_mol TotEng Press 
       0    809.66194    398.32791    349904.12    351834.99   -837.26674 
    2000    1423.5468    587.31182    2439.7013     5721.523    1.3012353 
Loop time of 5.5417 on 1 procs for 2000 steps with 636 atoms

Performance: 31.182 ns/day, 0.770 hours/ns, 360.900 timesteps/s
100.0% CPU use with 1 MPI tasks x no OpenMP threads

MPI task timing breakdown:
Section |  min time  |  avg time  |  max time  |%varavg| %total
---------------------------------------------------------------
Pair    | 1.5005     | 1.5005     | 1.5005     |   0.0 | 27.08
Bond    | 0.56161    | 0.56161    | 0.56161    |   0.0 | 10.13
Kspace  | 3.264      | 3.264      | 3.264      |   0.0 | 58.90
Neigh   | 0.18817    | 0.18817    | 0.18817    |   0.0 |  3.40
Comm    | 0.0024104  | 0.0024104  | 0.0024104  |   0.0 |  0.04
Output  | 2.9802e-05 | 2.9802e-05 | 2.9802e-05 |   0.0 |  0.00
Modify  | 0.020783   | 0.020783   | 0.020783   |   0.0 |  0.38
Other   |            | 0.004246   |            |       |  0.08

Nlocal:    636 ave 636 max 636 min
Histogram: 1 0 0 0 0 0 0 0 0 0
Nghost:    0 ave 0 max 0 min
Histogram: 1 0 0 0 0 0 0 0 0 0
Neighs:    36606 ave 36606 max 36606 min
Histogram: 1 0 0 0 0 0 0 0 0 0

Total # of neighbors = 36606
Ave neighs/atom = 57.5566
Ave special neighs/atom = 11.0786
Neighbor list builds = 170
Dangerous builds = 0
unfix pysimm_md
min_style cg
minimize 0.001 0.001 10000 100000
WARNING: Using 'neigh_modify every 1 delay 0 check yes' setting during minimization (../min.cpp:190)
PPPM initialization ...
  using 12-bit tables for long-range coulomb (../kspace.cpp:332)
  G vector (1/distance) = 0.0786001
  grid = 18 18 18
  stencil order = 5
  estimated absolute RMS force accuracy = 0.0325901
  estimated relative force accuracy = 9.81441e-05
  using double precision KISS FFT
  3d grid and FFT values/proc = 12167 5832
Per MPI rank memory allocation (min/avg/max) = 20.19 | 20.19 | 20.19 Mbytes
Step Temp E_pair E_mol TotEng Press 
    2000    1423.5468    587.31182    2439.7013     5721.523    1.3012353 
    2048    1423.5468     439.2522    937.02446    4070.7865    5.5571632 
Loop time of 0.306209 on 1 procs for 48 steps with 636 atoms

99.9% CPU use with 1 MPI tasks x no OpenMP threads

Minimization stats:
  Stopping criterion = energy tolerance
  Energy initial, next-to-last, final = 
          3027.0131456      1377.28848055      1376.27665921
  Force two-norm initial, final = 1379.76 69.6036
  Force max component initial, final = 234.732 13.8855
  Final line search alpha, max atom move = 0.00156936 0.0217915
  Iterations, force evaluations = 48 93

MPI task timing breakdown:
Section |  min time  |  avg time  |  max time  |%varavg| %total
---------------------------------------------------------------
Pair    | 0.12036    | 0.12036    | 0.12036    |   0.0 | 39.30
Bond    | 0.028361   | 0.028361   | 0.028361   |   0.0 |  9.26
Kspace  | 0.15245    | 0.15245    | 0.15245    |   0.0 | 49.79
Neigh   | 0.0034888  | 0.0034888  | 0.0034888  |   0.0 |  1.14
Comm    | 5.9366e-05 | 5.9366e-05 | 5.9366e-05 |   0.0 |  0.02
Output  | 0          | 0          | 0          |   0.0 |  0.00
Modify  | 0          | 0          | 0          |   0.0 |  0.00
Other   |            | 0.001496   |            |       |  0.49

Nlocal:    636 ave 636 max 636 min
Histogram: 1 0 0 0 0 0 0 0 0 0
Nghost:    0 ave 0 max 0 min
Histogram: 1 0 0 0 0 0 0 0 0 0
Neighs:    36556 ave 36556 max 36556 min
Histogram: 1 0 0 0 0 0 0 0 0 0

Total # of neighbors = 36556
Ave neighs/atom = 57.478
Ave special neighs/atom = 11.0786
Neighbor list builds = 3
Dangerous builds = 0
write_dump all custom pysimm.dump.tmp id q x y z vx vy vz
quit


################################################################################
##################################    Init    ##################################
################################################################################
units           real
atom_style      full
pair_style      lj/cut/coul/long 12.0  12.0
kspace_style    pppm 1e-4
bond_style      harmonic
angle_style     harmonic
dihedral_style  fourier
improper_style  cvff
special_bonds   amber
pair_modify     mix arithmetic
read_data       temp.lmps
  orthogonal box = (-139.47 -139.47 -139.47) to (139.47 139.47 139.47)
  1 by 1 by 1 MPI processor grid
  reading atoms ...
  689 atoms
  reading velocities ...
  689 velocities
  scanning bonds ...
  3 = max bonds/atom
  scanning angles ...
  6 = max angles/atom
  scanning dihedrals ...
  24 = max dihedrals/atom
  scanning impropers ...
  2 = max impropers/atom
  reading bonds ...
  753 bonds
  reading angles ...
  1322 angles
  reading dihedrals ...
  1990 dihedrals
  reading impropers ...
  208 impropers
  4 = max # of 1-2 neighbors
  10 = max # of 1-3 neighbors
  19 = max # of 1-4 neighbors
  22 = max # of special neighbors
  special bonds CPU = 0.000653982 secs
  read_data CPU = 0.00900102 secs
################################################################################

timestep        1
fix             pysimm_md all nve/limit 0.1
run             2000
PPPM initialization ...
WARNING: System is not charge neutral, net charge = -1.3e-05 (../kspace.cpp:313)
  using 12-bit tables for long-range coulomb (../kspace.cpp:332)
  G vector (1/distance) = 0.0768133
  grid = 18 18 18
  stencil order = 5
  estimated absolute RMS force accuracy = 0.0338001
  estimated relative force accuracy = 0.000101788
  using double precision KISS FFT
  3d grid and FFT values/proc = 12167 5832
Neighbor list info ...
  update every 1 steps, delay 10 steps, check yes
  max neighbors/atom: 2000, page size: 100000
  master list distance cutoff = 14
  ghost atom cutoff = 14
  binsize = 7, bins = 40 40 40
  1 neighbor lists, perpetual/occasional/extra = 1 0 0
  (1) pair lj/cut/coul/long, perpetual
      attributes: half, newton on
      pair build: half/bin/newton
      stencil: half/bin/3d/newton
      bin: standard
Per MPI rank memory allocation (min/avg/max) = 19.09 | 19.09 | 19.09 Mbytes
Step Temp E_pair E_mol TotEng Press 
       0    1314.9338    461.90035    246177.18    249335.74   -539.97496 
    2000    1198.9741    583.51422    2607.6855    5650.0525    4.4420523 
Loop time of 6.11466 on 1 procs for 2000 steps with 689 atoms

Performance: 28.260 ns/day, 0.849 hours/ns, 327.083 timesteps/s
100.0% CPU use with 1 MPI tasks x no OpenMP threads

MPI task timing breakdown:
Section |  min time  |  avg time  |  max time  |%varavg| %total
---------------------------------------------------------------
Pair    | 1.904      | 1.904      | 1.904      |   0.0 | 31.14
Bond    | 0.62268    | 0.62268    | 0.62268    |   0.0 | 10.18
Kspace  | 3.3169     | 3.3169     | 3.3169     |   0.0 | 54.25
Neigh   | 0.24078    | 0.24078    | 0.24078    |   0.0 |  3.94
Comm    | 0.0026741  | 0.0026741  | 0.0026741  |   0.0 |  0.04
Output  | 2.8849e-05 | 2.8849e-05 | 2.8849e-05 |   0.0 |  0.00
Modify  | 0.02278    | 0.02278    | 0.02278    |   0.0 |  0.37
Other   |            | 0.004759   |            |       |  0.08

Nlocal:    689 ave 689 max 689 min
Histogram: 1 0 0 0 0 0 0 0 0 0
Nghost:    0 ave 0 max 0 min
Histogram: 1 0 0 0 0 0 0 0 0 0
Neighs:    43972 ave 43972 max 43972 min
Histogram: 1 0 0 0 0 0 0 0 0 0

Total # of neighbors = 43972
Ave neighs/atom = 63.82
Ave special neighs/atom = 11.0827
Neighbor list builds = 168
Dangerous builds = 0
unfix pysimm_md
min_style cg
minimize 0.001 0.001 10000 100000
WARNING: Using 'neigh_modify every 1 delay 0 check yes' setting during minimization (../min.cpp:190)
PPPM initialization ...
  using 12-bit tables for long-range coulomb (../kspace.cpp:332)
  G vector (1/distance) = 0.0768133
  grid = 18 18 18
  stencil order = 5
  estimated absolute RMS force accuracy = 0.0338001
  estimated relative force accuracy = 0.000101788
  using double precision KISS FFT
  3d grid and FFT values/proc = 12167 5832
Per MPI rank memory allocation (min/avg/max) = 20.22 | 20.22 | 20.22 Mbytes
Step Temp E_pair E_mol TotEng Press 
    2000    1198.9741    583.51422    2607.6855    5650.0525    4.4420523 
    2036    1198.9741     464.7943    1024.1834    3947.8305     5.426485 
Loop time of 0.254853 on 1 procs for 36 steps with 689 atoms

100.0% CPU use with 1 MPI tasks x no OpenMP threads

Minimization stats:
  Stopping criterion = energy tolerance
  Energy initial, next-to-last, final = 
         3191.19969301      1490.13117449      1488.97768876
  Force two-norm initial, final = 1385.68 84.4199
  Force max component initial, final = 162.393 10.3608
  Final line search alpha, max atom move = 0.00218472 0.0226353
  Iterations, force evaluations = 36 72

MPI task timing breakdown:
Section |  min time  |  avg time  |  max time  |%varavg| %total
---------------------------------------------------------------
Pair    | 0.10756    | 0.10756    | 0.10756    |   0.0 | 42.21
Bond    | 0.023791   | 0.023791   | 0.023791   |   0.0 |  9.34
Kspace  | 0.11935    | 0.11935    | 0.11935    |   0.0 | 46.83
Neigh   | 0.0028701  | 0.0028701  | 0.0028701  |   0.0 |  1.13
Comm    | 5.3883e-05 | 5.3883e-05 | 5.3883e-05 |   0.0 |  0.02
Output  | 0          | 0          | 0          |   0.0 |  0.00
Modify  | 0          | 0          | 0          |   0.0 |  0.00
Other   |            | 0.001231   |            |       |  0.48

Nlocal:    689 ave 689 max 689 min
Histogram: 1 0 0 0 0 0 0 0 0 0
Nghost:    0 ave 0 max 0 min
Histogram: 1 0 0 0 0 0 0 0 0 0
Neighs:    43811 ave 43811 max 43811 min
Histogram: 1 0 0 0 0 0 0 0 0 0

Total # of neighbors = 43811
Ave neighs/atom = 63.5864
Ave special neighs/atom = 11.0827
Neighbor list builds = 2
Dangerous builds = 0
write_dump all custom pysimm.dump.tmp id q x y z vx vy vz
quit


################################################################################
##################################    Init    ##################################
################################################################################
units           real
atom_style      full
pair_style      lj/cut/coul/long 12.0  12.0
kspace_style    pppm 1e-4
bond_style      harmonic
angle_style     harmonic
dihedral_style  fourier
improper_style  cvff
special_bonds   amber
pair_modify     mix arithmetic
read_data       temp.lmps
  orthogonal box = (-143.242 -143.242 -143.242) to (143.242 143.242 143.242)
  1 by 1 by 1 MPI processor grid
  reading atoms ...
  742 atoms
  reading velocities ...
  742 velocities
  scanning bonds ...
  3 = max bonds/atom
  scanning angles ...
  6 = max angles/atom
  scanning dihedrals ...
  24 = max dihedrals/atom
  scanning impropers ...
  2 = max impropers/atom
  reading bonds ...
  811 bonds
  reading angles ...
  1424 angles
  reading dihedrals ...
  2144 dihedrals
  reading impropers ...
  224 impropers
  4 = max # of 1-2 neighbors
  10 = max # of 1-3 neighbors
  19 = max # of 1-4 neighbors
  22 = max # of special neighbors
  special bonds CPU = 0.000682116 secs
  read_data CPU = 0.00945807 secs
################################################################################

timestep        1
fix             pysimm_md all nve/limit 0.1
run             2000
PPPM initialization ...
WARNING: System is not charge neutral, net charge = -1.4e-05 (../kspace.cpp:313)
  using 12-bit tables for long-range coulomb (../kspace.cpp:332)
  G vector (1/distance) = 0.0751944
  grid = 18 18 18
  stencil order = 5
  estimated absolute RMS force accuracy = 0.0349147
  estimated relative force accuracy = 0.000105145
  using double precision KISS FFT
  3d grid and FFT values/proc = 12167 5832
Neighbor list info ...
  update every 1 steps, delay 10 steps, check yes
  max neighbors/atom: 2000, page size: 100000
  master list distance cutoff = 14
  ghost atom cutoff = 14
  binsize = 7, bins = 41 41 41
  1 neighbor lists, perpetual/occasional/extra = 1 0 0
  (1) pair lj/cut/coul/long, perpetual
      attributes: half, newton on
      pair build: half/bin/newton
      stencil: half/bin/3d/newton
      bin: standard
Per MPI rank memory allocation (min/avg/max) = 19.12 | 19.12 | 19.12 Mbytes
Step Temp E_pair E_mol TotEng Press 
       0    1114.1919    487.70565    270500.92    273449.63   -546.57449 
    2000    1182.1917    646.22053    2721.1761    5978.5982    2.9791949 
Loop time of 6.63728 on 1 procs for 2000 steps with 742 atoms

Performance: 26.035 ns/day, 0.922 hours/ns, 301.328 timesteps/s
100.1% CPU use with 1 MPI tasks x no OpenMP threads

MPI task timing breakdown:
Section |  min time  |  avg time  |  max time  |%varavg| %total
---------------------------------------------------------------
Pair    | 2.2917     | 2.2917     | 2.2917     |   0.0 | 34.53
Bond    | 0.66185    | 0.66185    | 0.66185    |   0.0 |  9.97
Kspace  | 3.3757     | 3.3757     | 3.3757     |   0.0 | 50.86
Neigh   | 0.27595    | 0.27595    | 0.27595    |   0.0 |  4.16
Comm    | 0.0027399  | 0.0027399  | 0.0027399  |   0.0 |  0.04
Output  | 2.5034e-05 | 2.5034e-05 | 2.5034e-05 |   0.0 |  0.00
Modify  | 0.024433   | 0.024433   | 0.024433   |   0.0 |  0.37
Other   |            | 0.004938   |            |       |  0.07

Nlocal:    742 ave 742 max 742 min
Histogram: 1 0 0 0 0 0 0 0 0 0
Nghost:    0 ave 0 max 0 min
Histogram: 1 0 0 0 0 0 0 0 0 0
Neighs:    61075 ave 61075 max 61075 min
Histogram: 1 0 0 0 0 0 0 0 0 0

Total # of neighbors = 61075
Ave neighs/atom = 82.3113
Ave special neighs/atom = 11.0863
Neighbor list builds = 165
Dangerous builds = 0
unfix pysimm_md
min_style cg
minimize 0.001 0.001 10000 100000
WARNING: Using 'neigh_modify every 1 delay 0 check yes' setting during minimization (../min.cpp:190)
PPPM initialization ...
  using 12-bit tables for long-range coulomb (../kspace.cpp:332)
  G vector (1/distance) = 0.0751944
  grid = 18 18 18
  stencil order = 5
  estimated absolute RMS force accuracy = 0.0349147
  estimated relative force accuracy = 0.000105145
  using double precision KISS FFT
  3d grid and FFT values/proc = 12167 5832
Per MPI rank memory allocation (min/avg/max) = 20.25 | 20.25 | 20.25 Mbytes
Step Temp E_pair E_mol TotEng Press 
    2000    1182.1917    646.22053    2721.1761    5978.5982    2.9791949 
    2029    1182.1917    497.97535    1093.5621     4202.739    5.9392003 
Loop time of 0.242356 on 1 procs for 29 steps with 742 atoms

99.8% CPU use with 1 MPI tasks x no OpenMP threads

Minimization stats:
  Stopping criterion = energy tolerance
  Energy initial, next-to-last, final = 
         3367.39663934      1592.36438116      1591.53744665
  Force two-norm initial, final = 1543.8 109.231
  Force max component initial, final = 205.744 14.9601
  Final line search alpha, max atom move = 0.00190509 0.0285003
  Iterations, force evaluations = 29 57

MPI task timing breakdown:
Section |  min time  |  avg time  |  max time  |%varavg| %total
---------------------------------------------------------------
Pair    | 0.12051    | 0.12051    | 0.12051    |   0.0 | 49.72
Bond    | 0.021082   | 0.021082   | 0.021082   |   0.0 |  8.70
Kspace  | 0.095725   | 0.095725   | 0.095725   |   0.0 | 39.50
Neigh   | 0.0038948  | 0.0038948  | 0.0038948  |   0.0 |  1.61
Comm    | 4.0293e-05 | 4.0293e-05 | 4.0293e-05 |   0.0 |  0.02
Output  | 0          | 0          | 0          |   0.0 |  0.00
Modify  | 0          | 0          | 0          |   0.0 |  0.00
Other   |            | 0.001109   |            |       |  0.46

Nlocal:    742 ave 742 max 742 min
Histogram: 1 0 0 0 0 0 0 0 0 0
Nghost:    0 ave 0 max 0 min
Histogram: 1 0 0 0 0 0 0 0 0 0
Neighs:    60585 ave 60585 max 60585 min
Histogram: 1 0 0 0 0 0 0 0 0 0

Total # of neighbors = 60585
Ave neighs/atom = 81.6509
Ave special neighs/atom = 11.0863
Neighbor list builds = 2
Dangerous builds = 0
write_dump all custom pysimm.dump.tmp id q x y z vx vy vz
quit


################################################################################
##################################    Init    ##################################
################################################################################
units           real
atom_style      full
pair_style      lj/cut/coul/long 12.0  12.0
kspace_style    pppm 1e-4
bond_style      harmonic
angle_style     harmonic
dihedral_style  fourier
improper_style  cvff
special_bonds   amber
pair_modify     mix arithmetic
read_data       temp.lmps
  orthogonal box = (-146.824 -146.824 -146.824) to (146.824 146.824 146.824)
  1 by 1 by 1 MPI processor grid
  reading atoms ...
  795 atoms
  reading velocities ...
  795 velocities
  scanning bonds ...
  3 = max bonds/atom
  scanning angles ...
  6 = max angles/atom
  scanning dihedrals ...
  24 = max dihedrals/atom
  scanning impropers ...
  2 = max impropers/atom
  reading bonds ...
  869 bonds
  reading angles ...
  1526 angles
  reading dihedrals ...
  2298 dihedrals
  reading impropers ...
  240 impropers
  4 = max # of 1-2 neighbors
  10 = max # of 1-3 neighbors
  19 = max # of 1-4 neighbors
  22 = max # of special neighbors
  special bonds CPU = 0.000725031 secs
  read_data CPU = 0.010005 secs
################################################################################

timestep        1
fix             pysimm_md all nve/limit 0.1
run             2000
PPPM initialization ...
WARNING: System is not charge neutral, net charge = -1.5e-05 (../kspace.cpp:313)
  using 12-bit tables for long-range coulomb (../kspace.cpp:332)
  G vector (1/distance) = 0.0737168
  grid = 18 18 18
  stencil order = 5
  estimated absolute RMS force accuracy = 0.0359463
  estimated relative force accuracy = 0.000108251
  using double precision KISS FFT
  3d grid and FFT values/proc = 12167 5832
Neighbor list info ...
  update every 1 steps, delay 10 steps, check yes
  max neighbors/atom: 2000, page size: 100000
  master list distance cutoff = 14
  ghost atom cutoff = 14
  binsize = 7, bins = 42 42 42
  1 neighbor lists, perpetual/occasional/extra = 1 0 0
  (1) pair lj/cut/coul/long, perpetual
      attributes: half, newton on
      pair build: half/bin/newton
      stencil: half/bin/3d/newton
      bin: standard
Per MPI rank memory allocation (min/avg/max) = 19.15 | 19.15 | 19.15 Mbytes
Step Temp E_pair E_mol TotEng Press 
       0    1104.1887    520.99186    153637.83    156772.18   -289.10039 
    2000    1025.9875    760.81073    2626.5677    5815.6478    5.2435358 
Loop time of 7.12007 on 1 procs for 2000 steps with 795 atoms

Performance: 24.269 ns/day, 0.989 hours/ns, 280.896 timesteps/s
[...]
PPPM initialization ...
  using 12-bit tables for long-range coulomb (../kspace.cpp:332)
  G vector (1/distance) = 0.0747703
  grid = 27 27 27
  stencil order = 5
  estimated absolute RMS force accuracy = 0.0345403
  estimated relative force accuracy = 0.000104017
  using double precision KISS FFT
  3d grid and FFT values/proc = 32768 19683
Per MPI rank memory allocation (min/avg/max) = 23.56 | 23.56 | 23.56 Mbytes
Step Temp E_pair E_mol TotEng Press 
    2000    540.64914    1351.2744    4997.9566    10134.814   0.90653053 
    2029    540.64914    1161.8044    3020.5822    7967.9701    2.1709954 
Loop time of 0.691912 on 1 procs for 29 steps with 2350 atoms

100.1% CPU use with 1 MPI tasks x no OpenMP threads

Minimization stats:
  Stopping criterion = energy tolerance
  Energy initial, next-to-last, final = 
         6349.23095782      4186.10040779      4182.38659814
  Force two-norm initial, final = 1659 123.313
  Force max component initial, final = 212.694 13.0612
  Final line search alpha, max atom move = 0.00170998 0.0223344
  Iterations, force evaluations = 29 54

MPI task timing breakdown:
Section |  min time  |  avg time  |  max time  |%varavg| %total
---------------------------------------------------------------
Pair    | 0.28618    | 0.28618    | 0.28618    |   0.0 | 41.36
Bond    | 0.063775   | 0.063775   | 0.063775   |   0.0 |  9.22
Kspace  | 0.33385    | 0.33385    | 0.33385    |   0.0 | 48.25
Neigh   | 0.004961   | 0.004961   | 0.004961   |   0.0 |  0.72
Comm    | 7.4387e-05 | 7.4387e-05 | 7.4387e-05 |   0.0 |  0.01
Output  | 0          | 0          | 0          |   0.0 |  0.00
Modify  | 0          | 0          | 0          |   0.0 |  0.00
Other   |            | 0.003074   |            |       |  0.44

Nlocal:    2350 ave 2350 max 2350 min
Histogram: 1 0 0 0 0 0 0 0 0 0
Nghost:    0 ave 0 max 0 min
Histogram: 1 0 0 0 0 0 0 0 0 0
Neighs:    150705 ave 150705 max 150705 min
Histogram: 1 0 0 0 0 0 0 0 0 0

Total # of neighbors = 150705
Ave neighs/atom = 64.1298
Ave special neighs/atom = 11.1855
Neighbor list builds = 1
Dangerous builds = 0
write_dump all custom pysimm.dump.tmp id q x y z vx vy vz
quit


################################################################################
##################################    Init    ##################################
################################################################################
units           real
atom_style      full
pair_style      lj/cut/coul/long 12.0  12.0
kspace_style    pppm 1e-4
bond_style      harmonic
angle_style     harmonic
dihedral_style  fourier
improper_style  cvff
special_bonds   amber
pair_modify     mix arithmetic
read_data       temp.lmps
  orthogonal box = (-217.942 -217.942 -217.942) to (217.942 217.942 217.942)
  1 by 1 by 1 MPI processor grid
  reading atoms ...
  2400 atoms
  reading velocities ...
  2400 velocities
  scanning bonds ...
  3 = max bonds/atom
  scanning angles ...
  6 = max angles/atom
  scanning dihedrals ...
  24 = max dihedrals/atom
  scanning impropers ...
  2 = max impropers/atom
  reading bonds ...
  2639 bonds
  reading angles ...
  4604 angles
  reading dihedrals ...
  7092 dihedrals
  reading impropers ...
  768 impropers
  4 = max # of 1-2 neighbors
  10 = max # of 1-3 neighbors
  19 = max # of 1-4 neighbors
  22 = max # of special neighbors
  special bonds CPU = 0.00196314 secs
  read_data CPU = 0.127824 secs
################################################################################

timestep        1
fix             pysimm_md all nve/limit 0.1
run             2000
PPPM initialization ...
  using 12-bit tables for long-range coulomb (../kspace.cpp:332)
  G vector (1/distance) = 0.0743409
  grid = 27 27 27
  stencil order = 5
  estimated absolute RMS force accuracy = 0.0348518
  estimated relative force accuracy = 0.000104955
  using double precision KISS FFT
  3d grid and FFT values/proc = 32768 19683
Neighbor list info ...
  update every 1 steps, delay 10 steps, check yes
  max neighbors/atom: 2000, page size: 100000
  master list distance cutoff = 14
  ghost atom cutoff = 14
  binsize = 7, bins = 63 63 63
  1 neighbor lists, perpetual/occasional/extra = 1 0 0
  (1) pair lj/cut/coul/long, perpetual
      attributes: half, newton on
      pair build: half/bin/newton
      stencil: half/bin/3d/newton
      bin: standard
Per MPI rank memory allocation (min/avg/max) = 22.5 | 22.5 | 22.5 Mbytes
Step Temp E_pair E_mol TotEng Press 
       0    529.67801    1176.3213    172584.98    177549.01   -97.656215 
    2000    486.65964    1272.1116    4957.3009    9709.4977  0.073702047 
Loop time of 21.6087 on 1 procs for 2000 steps with 2400 atoms

Performance: 7.997 ns/day, 3.001 hours/ns, 92.555 timesteps/s
100.0% CPU use with 1 MPI tasks x no OpenMP threads

MPI task timing breakdown:
Section |  min time  |  avg time  |  max time  |%varavg| %total
---------------------------------------------------------------
Pair    | 6.5541     | 6.5541     | 6.5541     |   0.0 | 30.33
Bond    | 2.1628     | 2.1628     | 2.1628     |   0.0 | 10.01
Kspace  | 11.983     | 11.983     | 11.983     |   0.0 | 55.45
Neigh   | 0.80956    | 0.80956    | 0.80956    |   0.0 |  3.75
Comm    | 0.0089791  | 0.0089791  | 0.0089791  |   0.0 |  0.04
Output  | 3.2902e-05 | 3.2902e-05 | 3.2902e-05 |   0.0 |  0.00
Modify  | 0.07652    | 0.07652    | 0.07652    |   0.0 |  0.35
Other   |            | 0.01412    |            |       |  0.07

Nlocal:    2400 ave 2400 max 2400 min
Histogram: 1 0 0 0 0 0 0 0 0 0
Nghost:    0 ave 0 max 0 min
Histogram: 1 0 0 0 0 0 0 0 0 0
Neighs:    142565 ave 142565 max 142565 min
Histogram: 1 0 0 0 0 0 0 0 0 0

Total # of neighbors = 142565
Ave neighs/atom = 59.4021
Ave special neighs/atom = 11.1858
Neighbor list builds = 161
Dangerous builds = 0
unfix pysimm_md
min_style cg
minimize 0.001 0.001 10000 100000
WARNING: Using 'neigh_modify every 1 delay 0 check yes' setting during minimization (../min.cpp:190)
PPPM initialization ...
  using 12-bit tables for long-range coulomb (../kspace.cpp:332)
  G vector (1/distance) = 0.0743409
  grid = 27 27 27
  stencil order = 5
  estimated absolute RMS force accuracy = 0.0348518
  estimated relative force accuracy = 0.000104955
  using double precision KISS FFT
  3d grid and FFT values/proc = 32768 19683
Per MPI rank memory allocation (min/avg/max) = 23.62 | 23.62 | 23.62 Mbytes
Step Temp E_pair E_mol TotEng Press 
    2000    486.65964    1272.1116    4957.3009    9709.4977  0.073702047 
    2027    486.65964    1190.4264    2995.7435    7666.2551     1.827016 
Loop time of 0.653274 on 1 procs for 27 steps with 2400 atoms

99.9% CPU use with 1 MPI tasks x no OpenMP threads

Minimization stats:
  Stopping criterion = energy tolerance
  Energy initial, next-to-last, final = 
         6229.41246846      4189.48609274      4186.16990132
  Force two-norm initial, final = 1595.54 95.7522
  Force max component initial, final = 172.055 11.8861
  Final line search alpha, max atom move = 0.00292517 0.0347688
  Iterations, force evaluations = 27 53

MPI task timing breakdown:
Section |  min time  |  avg time  |  max time  |%varavg| %total
---------------------------------------------------------------
Pair    | 0.263      | 0.263      | 0.263      |   0.0 | 40.26
Bond    | 0.063056   | 0.063056   | 0.063056   |   0.0 |  9.65
Kspace  | 0.31943    | 0.31943    | 0.31943    |   0.0 | 48.90
Neigh   | 0.0047858  | 0.0047858  | 0.0047858  |   0.0 |  0.73
Comm    | 7.1764e-05 | 7.1764e-05 | 7.1764e-05 |   0.0 |  0.01
Output  | 0          | 0          | 0          |   0.0 |  0.00
Modify  | 0          | 0          | 0          |   0.0 |  0.00
Other   |            | 0.002929   |            |       |  0.45

Nlocal:    2400 ave 2400 max 2400 min
Histogram: 1 0 0 0 0 0 0 0 0 0
Nghost:    0 ave 0 max 0 min
Histogram: 1 0 0 0 0 0 0 0 0 0
Neighs:    142556 ave 142556 max 142556 min
Histogram: 1 0 0 0 0 0 0 0 0 0

Total # of neighbors = 142556
Ave neighs/atom = 59.3983
Ave special neighs/atom = 11.1858
Neighbor list builds = 1
Dangerous builds = 0
write_dump all custom pysimm.dump.tmp id q x y z vx vy vz
quit


################################################################################
##################################    Init    ##################################
################################################################################
units           real
atom_style      full
pair_style      lj/cut/coul/long 12.0  12.0
kspace_style    pppm 1e-4
bond_style      harmonic
angle_style     harmonic
dihedral_style  fourier
improper_style  cvff
special_bonds   amber
pair_modify     mix arithmetic
read_data       temp.lmps
  orthogonal box = (-219.477 -219.477 -219.477) to (219.477 219.477 219.477)
  1 by 1 by 1 MPI processor grid
  reading atoms ...
  2450 atoms
  reading velocities ...
  2450 velocities
  scanning bonds ...
  3 = max bonds/atom
  scanning angles ...
  6 = max angles/atom
  scanning dihedrals ...
  24 = max dihedrals/atom
  scanning impropers ...
  2 = max impropers/atom
  reading bonds ...
  2694 bonds
  reading angles ...
  4700 angles
  reading dihedrals ...
  7240 dihedrals
  reading impropers ...
  784 impropers
  4 = max # of 1-2 neighbors
  10 = max # of 1-3 neighbors
  19 = max # of 1-4 neighbors
  22 = max # of special neighbors
  special bonds CPU = 0.00194693 secs
  read_data CPU = 0.0247269 secs
################################################################################

timestep        1
fix             pysimm_md all nve/limit 0.1
run             2000
PPPM initialization ...
  using 12-bit tables for long-range coulomb (../kspace.cpp:332)
  G vector (1/distance) = 0.0739223
  grid = 27 27 27
  stencil order = 5
  estimated absolute RMS force accuracy = 0.0351567
  estimated relative force accuracy = 0.000105873
  using double precision KISS FFT
  3d grid and FFT values/proc = 32768 19683
Neighbor list info ...
  update every 1 steps, delay 10 steps, check yes
  max neighbors/atom: 2000, page size: 100000
  master list distance cutoff = 14
  ghost atom cutoff = 14
  binsize = 7, bins = 63 63 63
  1 neighbor lists, perpetual/occasional/extra = 1 0 0
  (1) pair lj/cut/coul/long, perpetual
      attributes: half, newton on
      pair build: half/bin/newton
      stencil: half/bin/3d/newton
      bin: standard
Per MPI rank memory allocation (min/avg/max) = 22.5 | 22.5 | 22.5 Mbytes
Step Temp E_pair E_mol TotEng Press 
       0    477.01485    1205.7948    281839.57    286527.58   -156.71398 
    2000    482.10373    1253.7069    5141.0069    9914.0729   -1.0338166 
Loop time of 21.863 on 1 procs for 2000 steps with 2450 atoms

Performance: 7.904 ns/day, 3.037 hours/ns, 91.479 timesteps/s
100.0% CPU use with 1 MPI tasks x no OpenMP threads

MPI task timing breakdown:
Section |  min time  |  avg time  |  max time  |%varavg| %total
---------------------------------------------------------------
Pair    | 6.7329     | 6.7329     | 6.7329     |   0.0 | 30.80
Bond    | 2.198      | 2.198      | 2.198      |   0.0 | 10.05
Kspace  | 11.97      | 11.97      | 11.97      |   0.0 | 54.75
Neigh   | 0.86095    | 0.86095    | 0.86095    |   0.0 |  3.94
Comm    | 0.0091546  | 0.0091546  | 0.0091546  |   0.0 |  0.04
Output  | 3.4809e-05 | 3.4809e-05 | 3.4809e-05 |   0.0 |  0.00
Modify  | 0.077629   | 0.077629   | 0.077629   |   0.0 |  0.36
Other   |            | 0.01412    |            |       |  0.06

Nlocal:    2450 ave 2450 max 2450 min
Histogram: 1 0 0 0 0 0 0 0 0 0
Nghost:    0 ave 0 max 0 min
Histogram: 1 0 0 0 0 0 0 0 0 0
Neighs:    152370 ave 152370 max 152370 min
Histogram: 1 0 0 0 0 0 0 0 0 0

Total # of neighbors = 152370
Ave neighs/atom = 62.1918
Ave special neighs/atom = 11.1861
Neighbor list builds = 168
Dangerous builds = 0
unfix pysimm_md
min_style cg
minimize 0.001 0.001 10000 100000
WARNING: Using 'neigh_modify every 1 delay 0 check yes' setting during minimization (../min.cpp:190)
PPPM initialization ...
  using 12-bit tables for long-range coulomb (../kspace.cpp:332)
  G vector (1/distance) = 0.0739223
  grid = 27 27 27
  stencil order = 5
  estimated absolute RMS force accuracy = 0.0351567
  estimated relative force accuracy = 0.000105873
  using double precision KISS FFT
  3d grid and FFT values/proc = 32768 19683
Per MPI rank memory allocation (min/avg/max) = 23.63 | 23.63 | 23.63 Mbytes
Step Temp E_pair E_mol TotEng Press 
    2000    482.10373    1253.7069    5141.0069    9914.0729   -1.0338166 
    2034    482.10373    1207.9889    3073.2556    7800.6036       1.8308 
Loop time of 0.793367 on 1 procs for 34 steps with 2450 atoms

100.1% CPU use with 1 MPI tasks x no OpenMP threads

Minimization stats:
  Stopping criterion = energy tolerance
  Energy initial, next-to-last, final = 
         6394.71385145      4285.17774123      4281.24457859
  Force two-norm initial, final = 1570.51 102.456
  Force max component initial, final = 253.093 11.3616
  Final line search alpha, max atom move = 0.00217903 0.0247572
  Iterations, force evaluations = 34 61

MPI task timing breakdown:
Section |  min time  |  avg time  |  max time  |%varavg| %total
---------------------------------------------------------------
Pair    | 0.33047    | 0.33047    | 0.33047    |   0.0 | 41.65
Bond    | 0.073996   | 0.073996   | 0.073996   |   0.0 |  9.33
Kspace  | 0.37468    | 0.37468    | 0.37468    |   0.0 | 47.23
Neigh   | 0.010358   | 0.010358   | 0.010358   |   0.0 |  1.31
Comm    | 0.00011897 | 0.00011897 | 0.00011897 |   0.0 |  0.01
Output  | 0          | 0          | 0          |   0.0 |  0.00
Modify  | 0          | 0          | 0          |   0.0 |  0.00
Other   |            | 0.003749   |            |       |  0.47

Nlocal:    2450 ave 2450 max 2450 min
Histogram: 1 0 0 0 0 0 0 0 0 0
Nghost:    0 ave 0 max 0 min
Histogram: 1 0 0 0 0 0 0 0 0 0
Neighs:    152652 ave 152652 max 152652 min
Histogram: 1 0 0 0 0 0 0 0 0 0

Total # of neighbors = 152652
Ave neighs/atom = 62.3069
Ave special neighs/atom = 11.1861
Neighbor list builds = 2
Dangerous builds = 0
write_dump all custom pysimm.dump.tmp id q x y z vx vy vz
quit


################################################################################
##################################    Init    ##################################
################################################################################
units           real
atom_style      full
pair_style      lj/cut/coul/long 12.0  12.0
kspace_style    pppm 1e-4
bond_style      harmonic
angle_style     harmonic
dihedral_style  fourier
improper_style  cvff
special_bonds   amber
pair_modify     mix arithmetic
read_data       temp.lmps
  orthogonal box = (-220.991 -220.991 -220.991) to (220.991 220.991 220.991)
  1 by 1 by 1 MPI processor grid
  reading atoms ...
  2500 atoms
  reading velocities ...
  2500 velocities
  scanning bonds ...
  3 = max bonds/atom
  scanning angles ...
  6 = max angles/atom
  scanning dihedrals ...
  24 = max dihedrals/atom
  scanning impropers ...
  2 = max impropers/atom
  reading bonds ...
  2749 bonds
  reading angles ...
  4796 angles
  reading dihedrals ...
  7388 dihedrals
  reading impropers ...
  800 impropers
  4 = max # of 1-2 neighbors
  10 = max # of 1-3 neighbors
  19 = max # of 1-4 neighbors
  22 = max # of special neighbors
  special bonds CPU = 0.00195622 secs
  read_data CPU = 0.102076 secs
################################################################################

timestep        1
fix             pysimm_md all nve/limit 0.1
run             2000
PPPM initialization ...
  using 12-bit tables for long-range coulomb (../kspace.cpp:332)
  G vector (1/distance) = 0.073514
  grid = 27 27 27
  stencil order = 5
  estimated absolute RMS force accuracy = 0.0354552
  estimated relative force accuracy = 0.000106772
  using double precision KISS FFT
  3d grid and FFT values/proc = 32768 19683
Neighbor list info ...
  update every 1 steps, delay 10 steps, check yes
  max neighbors/atom: 2000, page size: 100000
  master list distance cutoff = 14
  ghost atom cutoff = 14
  binsize = 7, bins = 64 64 64
  1 neighbor lists, perpetual/occasional/extra = 1 0 0
  (1) pair lj/cut/coul/long, perpetual
      attributes: half, newton on
      pair build: half/bin/newton
      stencil: half/bin/3d/newton
      bin: standard
Per MPI rank memory allocation (min/avg/max) = 22.56 | 22.56 | 22.56 Mbytes
Step Temp E_pair E_mol TotEng Press 
       0    472.74308    1223.4472     331433.4    336178.33   -180.35651 
    2000    506.60015    1455.2485    5385.7279    10614.663   0.87273571 
Loop time of 21.9285 on 1 procs for 2000 steps with 2500 atoms

Performance: 7.880 ns/day, 3.046 hours/ns, 91.205 timesteps/s
100.0% CPU use with 1 MPI tasks x no OpenMP threads

MPI task timing breakdown:
Section |  min time  |  avg time  |  max time  |%varavg| %total
---------------------------------------------------------------
Pair    | 6.7047     | 6.7047     | 6.7047     |   0.0 | 30.58
Bond    | 2.2267     | 2.2267     | 2.2267     |   0.0 | 10.15
Kspace  | 12.001     | 12.001     | 12.001     |   0.0 | 54.73
Neigh   | 0.895      | 0.895      | 0.895      |   0.0 |  4.08
Comm    | 0.0088573  | 0.0088573  | 0.0088573  |   0.0 |  0.04
Output  | 3.5048e-05 | 3.5048e-05 | 3.5048e-05 |   0.0 |  0.00
Modify  | 0.078262   | 0.078262   | 0.078262   |   0.0 |  0.36
Other   |            | 0.01358    |            |       |  0.06

Nlocal:    2500 ave 2500 max 2500 min
Histogram: 1 0 0 0 0 0 0 0 0 0
Nghost:    0 ave 0 max 0 min
Histogram: 1 0 0 0 0 0 0 0 0 0
Neighs:    152534 ave 152534 max 152534 min
Histogram: 1 0 0 0 0 0 0 0 0 0

Total # of neighbors = 152534
Ave neighs/atom = 61.0136
Ave special neighs/atom = 11.1864
Neighbor list builds = 172
Dangerous builds = 0
unfix pysimm_md
min_style cg
minimize 0.001 0.001 10000 100000
WARNING: Using 'neigh_modify every 1 delay 0 check yes' setting during minimization (../min.cpp:190)
PPPM initialization ...
  using 12-bit tables for long-range coulomb (../kspace.cpp:332)
  G vector (1/distance) = 0.073514
  grid = 27 27 27
  stencil order = 5
  estimated absolute RMS force accuracy = 0.0354552
  estimated relative force accuracy = 0.000106772
  using double precision KISS FFT
  3d grid and FFT values/proc = 32768 19683
Per MPI rank memory allocation (min/avg/max) = 23.69 | 23.69 | 23.69 Mbytes
Step Temp E_pair E_mol TotEng Press 
    2000    506.60015    1455.2485    5385.7279    10614.663   0.87273571 
    2043    506.60015    1214.5424     3244.101    8232.3303    1.8392173 
Loop time of 1.02525 on 1 procs for 43 steps with 2500 atoms

100.0% CPU use with 1 MPI tasks x no OpenMP threads

Minimization stats:
  Stopping criterion = energy tolerance
  Energy initial, next-to-last, final = 
         6840.97639103       4461.9736506      4458.64338533
  Force two-norm initial, final = 1670.17 98.6086
  Force max component initial, final = 201.615 14.7474
  Final line search alpha, max atom move = 0.0017006 0.0250794
  Iterations, force evaluations = 43 80

MPI task timing breakdown:
Section |  min time  |  avg time  |  max time  |%varavg| %total
---------------------------------------------------------------
Pair    | 0.41904    | 0.41904    | 0.41904    |   0.0 | 40.87
Bond    | 0.097961   | 0.097961   | 0.097961   |   0.0 |  9.55
Kspace  | 0.48803    | 0.48803    | 0.48803    |   0.0 | 47.60
Neigh   | 0.015203   | 0.015203   | 0.015203   |   0.0 |  1.48
Comm    | 0.00016332 | 0.00016332 | 0.00016332 |   0.0 |  0.02
Output  | 0          | 0          | 0          |   0.0 |  0.00
Modify  | 0          | 0          | 0          |   0.0 |  0.00
Other   |            | 0.004852   |            |       |  0.47

Nlocal:    2500 ave 2500 max 2500 min
Histogram: 1 0 0 0 0 0 0 0 0 0
Nghost:    0 ave 0 max 0 min
Histogram: 1 0 0 0 0 0 0 0 0 0
Neighs:    152219 ave 152219 max 152219 min
Histogram: 1 0 0 0 0 0 0 0 0 0

Total # of neighbors = 152219
Ave neighs/atom = 60.8876
Ave special neighs/atom = 11.1864
Neighbor list builds = 3
Dangerous builds = 0
write_dump all custom pysimm.dump.tmp id q x y z vx vy vz
quit
