pySIMM System Object

1175 atoms
1293 bonds
2176 angles
3362 dihedrals
408 impropers

9 atom types
11 bond types
18 angle types
9 dihedral types
4 improper types

-157.907946 157.907946 xlo xhi
-157.907946 157.907946 ylo yhi
-157.907946 157.907946 zlo zhi

Masses

   1	1.008	# ha
   2	12.01	# ca
   3	16.0	# os
   4	12.01	# c3
   5	1.008	# hc
   6	12.01	# c
   7	14.01	# n
   8	16.0	# o
   9	1.008	# hn

Pair Coeffs

   1	0.015	2.59964245953351	# ha
   2	0.086	3.3996695084235347	# ca
   3	0.17	3.0000123434657784	# os
   4	0.1094	3.3996695084235347	# c3
   5	0.0157	2.649532787749369	# hc
   6	0.086	3.3996695084235347	# c
   7	0.17	3.249998523775958	# n
   8	0.21	2.959921901149463	# o
   9	0.0157	1.069078461768407	# hn

Bond Coeffs

   1	461.1	1.3984	# ca,ca
   2	427.6	1.3789	# c,n
   3	345.9	1.4906	# c,ca
   4	300.9	1.5375	# c3,c3
   5	345.8	1.086	# ca,ha
   6	384.2	1.4121	# ca,n
   7	321.0	1.5156	# c3,ca
   8	330.6	1.0969	# c3,hc
   9	637.7	1.2183	# c,o
  10	376.6	1.3696	# ca,os
  11	403.2	1.0129	# hn,n

Angle Coeffs

   1	46.34	109.8	# c3,c3,hc
   2	74.22	123.05	# n,c,o
   3	48.33	117.55	# c,n,hn
   4	63.56	112.24	# ca,c3,ca
   5	63.48	119.89	# ca,os,ca
   6	62.86	111.51	# c3,c3,c3
   7	66.62	120.02	# ca,ca,ca
   8	64.28	120.33	# c,ca,ca
   9	63.15	112.07	# c3,c3,ca
  10	39.4	107.58	# hc,c3,hc
  11	48.18	119.88	# ca,ca,ha
  12	63.53	120.77	# c3,ca,ca
  13	63.74	127.08	# c,n,c
  14	67.68	115.25	# ca,c,n
  15	63.82	123.71	# c,n,ca
  16	68.72	122.6	# ca,c,o
  17	67.87	120.19	# ca,ca,n
  18	69.58	119.2	# ca,ca,os

Dihedral Coeffs

   1	1	3.625	2	180	# X,ca,ca,X
   2	1	1.0	2	180	# X,c,ca,X
   3	1	0.0	2	0	# X,c3,ca,X
   4	1	0.15555555555555556	3	0	# X,c3,c3,X
   5	1	0.9	2	180	# X,ca,os,X
   6	1	2.5	2	180	# X,c,n,X
   7	1	0.45	2	180	# X,ca,n,X
   8	1	0.16	3	0	# hc,c3,c3,c3
   9	2	2.5	2	180	2.0	1	0	# hn,n,c,o

Improper Coeffs

   1	1.1	-1	2	# n,X,X,hn
   2	1.1	-1	2	# ca,ca,ca,c3
   3	10.5	-1	2	# c,X,X,o
   4	1.1	-1	2	# ca,X,X,ha

Atoms

   1	1	1	0.207625	44.2676	-103.823	47.4887
   2	1	2	-0.428502	43.4327	-104.135	48.1082
   3	1	2	-0.035773	42.4817	-105.044	47.6112
   4	1	1	0.142536	42.5865	-105.434	46.6007
   5	1	2	0.020215	41.3926	-105.444	48.4116
   6	1	2	-0.058677	41.2732	-104.921	49.715
   7	1	1	0.147375	40.4409	-105.221	50.3484
   8	1	2	-0.40884	42.2269	-104.01	50.2043
   9	1	1	0.20403	42.1339	-103.607	51.2078
  10	1	2	0.301824	43.3067	-103.615	49.4033
  11	1	2	-0.079086	38.8656	-107.363	46.5438
  12	1	2	-0.121043	37.9954	-107.717	45.503
  13	1	1	0.148865	37.9617	-107.148	44.5788
  14	1	2	0.229196	37.1492	-108.824	45.7011
  15	1	3	-0.312503	36.2634	-109.176	44.7128
  16	1	1	0.177824	38.1286	-109.742	48.88
  17	1	2	-0.142744	38.0821	-109.19	47.9423
  18	1	2	-0.093344	38.908	-108.077	47.7262
  19	1	1	0.162888	34.8921	-107.56	46.346
  20	1	1	0.147794	32.4627	-107.58	46.6692
  21	1	2	-0.172056	34.2877	-108.27	45.7894
  22	1	2	-0.198933	32.8927	-108.285	45.9651
  23	1	2	0.236899	34.901	-109.166	44.8984
  24	1	2	0.029337	32.08	-109.197	45.25
  25	1	4	0.180684	30.5455	-109.286	45.4463
  26	1	2	-0.223565	34.1084	-110.056	44.163
  27	1	2	-0.141841	32.7126	-110.073	44.3389
  28	1	1	0.17153	34.5844	-110.737	43.4641
  29	1	1	0.139148	32.1164	-110.776	43.7615
  30	1	2	-0.185386	37.1927	-109.558	46.9095
  31	1	1	0.155741	36.5325	-110.411	47.0379
  32	1	4	-0.198622	30.0109	-108.282	46.5027
  33	1	4	-0.188008	30.2463	-110.714	45.9871
  34	1	5	0.060726	28.9263	-108.389	46.632
  35	1	5	0.058265	30.1998	-107.246	46.1924
  36	1	5	0.044015	30.4762	-108.445	47.4833
  37	1	5	0.049647	30.3884	-111.473	45.2083
  38	1	5	0.045128	29.221	-110.807	46.3641
  39	1	5	0.061555	30.9184	-110.958	46.82
  40	1	1	0.151962	27.9672	-110.046	44.7249
  41	1	2	-0.211106	28.4608	-109.47	43.9481
  42	1	2	-0.169243	27.7471	-109.188	42.7702
  43	1	1	0.166678	26.7378	-109.569	42.6479
  44	1	2	0.259195	28.3368	-108.421	41.7524
  45	1	2	-0.207473	29.6445	-107.948	41.9176
  46	1	1	0.171716	30.0967	-107.356	41.1271
  47	1	2	-0.169975	30.3587	-108.225	43.0984
  48	1	1	0.141932	31.3622	-107.821	43.2053
  49	1	2	0.050656	29.7846	-109.007	44.1285
  50	1	6	0.518059	39.916	-107.437	48.6154
  51	1	6	0.507614	39.8393	-106.244	46.6447
  52	1	7	-0.122906	40.4174	-106.353	47.9041
  53	1	8	-0.496938	40.2054	-107.796	49.7437
  54	1	8	-0.484992	40.0511	-105.401	45.7906
  55	1	2	-0.048962	24.1499	-107.231	41.1336
  56	1	6	0.0776	23.1045	-106.429	41.8178
  57	1	8	-0.391129	23.294	-105.605	42.697
  58	1	2	0.038503	23.5316	-108.05	40.2058
  59	1	6	0.061082	22.0687	-107.8	40.2534
  60	1	7	0.459351	21.8982	-106.818	41.2306
  61	1	8	-0.403808	21.2214	-108.35	39.5687
  62	1	2	-0.02278	25.5416	-107.227	41.2961
  63	1	2	-0.06542	24.2657	-108.919	39.3895
  64	1	2	0.157218	26.3002	-108.095	40.4824
  65	1	1	0.144625	26.0181	-106.569	42.0167
  66	1	2	-0.259423	25.6693	-108.931	39.5363
  67	1	3	-0.32062	27.6688	-108.134	40.5848
  68	1	1	0.165981	23.7598	-109.552	38.6634
  69	1	1	0.168674	26.2776	-109.585	38.9173
  70	1	1	0.207625	20.9201	-106.463	43.7234
  71	1	2	-0.428502	20.2428	-106.141	42.9363
  72	1	2	-0.035773	18.9959	-105.596	43.2859
  73	1	1	0.142536	18.7178	-105.515	44.3348
  74	1	2	0.020215	18.1069	-105.154	42.2894
  75	1	2	-0.058677	18.4831	-105.263	40.9386
  76	1	1	0.147375	17.8067	-104.92	40.1577
  77	1	2	-0.40884	19.7296	-105.815	40.5926
  78	1	1	0.20403	19.9976	-105.907	39.5423
  79	1	2	0.301824	20.6285	-106.263	41.5848
  80	1	2	-0.079086	14.8125	-104.294	43.6698
  81	1	2	-0.121043	13.6544	-104.398	44.4519
  82	1	1	0.148865	13.4759	-105.27	45.0753
  83	1	2	0.229196	12.7316	-103.336	44.4169
  84	1	3	-0.312503	11.6075	-103.435	45.2061
  85	1	1	0.177824	14.3818	-101.23	42.2299
  86	1	2	-0.142744	14.1632	-102.107	42.8388
  87	1	2	-0.093344	15.0546	-103.188	42.8779
  88	1	1	0.162888	10.3916	-103.086	42.8501
  89	1	1	0.147794	8.29523	-101.848	42.4918
  90	1	2	-0.172056	9.87862	-102.642	43.6984
  91	1	2	-0.198933	8.67643	-101.937	43.504
  92	1	2	0.236899	10.4233	-102.772	44.9859
  93	1	2	0.029337	7.98613	-101.365	44.5999
  94	1	4	0.180684	6.66674	-100.568	44.4427
  95	1	2	-0.223565	9.73494	-102.242	46.0829
  96	1	2	-0.141841	8.52794	-101.547	45.8926
  97	1	1	0.17153	10.1481	-102.367	47.0795
  98	1	1	0.139148	8.01548	-101.131	46.7568
  99	1	2	-0.185386	12.9964	-102.187	43.6295
 100	1	1	0.155741	12.303	-101.351	43.6414
 101	1	4	-0.198622	5.55135	-101.415	45.1174
 102	1	4	-0.188008	6.25407	-100.365	42.9604
 103	1	5	0.060726	5.58205	-102.45	44.7523
 104	1	5	0.058265	4.54945	-101.027	44.899
 105	1	5	0.044015	5.67535	-101.442	46.2072
 106	1	5	0.049647	6.07797	-101.324	42.4568
 107	1	5	0.045128	7.02804	-99.816	42.4086
 108	1	5	0.061555	5.32622	-99.7825	42.8909
 109	1	1	0.151962	4.66877	-98.908	45.4896
 110	1	2	-0.211106	5.65494	-98.4585	45.5448
 111	1	2	-0.169243	5.77191	-97.1645	46.0881
 112	1	1	0.166678	4.89081	-96.6512	46.4566
 113	1	2	0.259195	7.02739	-96.5421	46.1701
 114	1	2	-0.207473	8.15949	-97.2152	45.695
 115	1	1	0.171716	9.12898	-96.7307	45.7598
 116	1	2	-0.169975	8.04164	-98.4991	45.1325
 117	1	1	0.141932	8.93661	-98.9815	44.7484
 118	1	2	0.050656	6.791	-99.1575	45.0723
 119	1	6	0.518059	16.3647	-103.386	42.1979
 120	1	6	0.507614	15.9644	-105.223	43.5321
 121	1	7	-0.122906	16.8439	-104.608	42.6511
 122	1	8	-0.496938	16.8946	-102.616	41.4159
 123	1	8	-0.484992	16.1064	-106.285	44.1136
 124	1	2	-0.048962	6.20908	-92.1128	45.2303
 125	1	6	0.0776	6.50882	-90.9541	44.3493
 126	1	8	-0.391129	7.49378	-90.8384	43.6385
 127	1	2	0.038503	5.00651	-91.8746	45.8682
 128	1	6	0.061082	4.48686	-90.5571	45.4188
 129	1	7	0.459351	5.43972	-90.0674	44.5185
 130	1	8	-0.403808	3.45118	-90.0338	45.7985
 131	1	2	-0.02278	6.95332	-93.2736	45.481
 132	1	2	-0.06542	4.47895	-92.7784	46.7998
 133	1	2	0.157218	6.44004	-94.2008	46.4108
 134	1	1	0.144625	7.9091	-93.4404	44.9938
 135	1	2	-0.259423	5.21823	-93.9498	47.076
 136	1	3	-0.32062	7.18958	-95.3023	46.7422
 137	1	1	0.165981	3.54124	-92.5598	47.3068
 138	1	1	0.168674	4.86258	-94.6523	47.824
 139	1	1	0.207625	7.42529	-88.2728	44.0284
 140	1	2	-0.428502	6.44959	-87.9589	43.6642
 141	1	2	-0.035773	6.33571	-86.7226	42.9982
 142	1	1	0.142536	7.21608	-86.0984	42.8588
 143	1	2	0.020215	5.08896	-86.2893	42.5128
 144	1	2	-0.058677	3.9654	-87.1149	42.6912
 145	1	1	0.147375	2.99225	-86.7884	42.3301
 146	1	2	-0.40884	4.08769	-88.3568	43.3391
 147	1	1	0.20403	3.19919	-88.9702	43.47
 148	1	2	0.301824	5.32884	-88.8023	43.8447
 149	1	2	-0.079086	5.12234	-83.336	40.3112
 150	1	2	-0.121043	5.42507	-82.5198	39.2087
 151	1	1	0.148865	6.17033	-82.8192	38.4772
 152	1	2	0.229196	4.72794	-81.3016	39.0727
 153	1	3	-0.312503	4.99376	-80.4909	37.9917
 154	1	1	0.177824	2.68088	-81.5056	41.8453
 155	1	2	-0.142744	3.44598	-81.769	41.1162
 156	1	2	-0.093344	4.15767	-82.971	41.2322
 157	1	1	0.162888	6.36611	-79.131	39.8013
 158	1	1	0.147794	6.43142	-76.6807	40.0207
 159	1	2	-0.172056	5.816	-78.5127	39.0982
 160	1	2	-0.198933	5.85688	-77.1123	39.2078
 161	1	2	0.236899	5.05812	-79.12	38.0879
 162	1	2	0.029337	5.14896	-76.2841	38.3041
 163	1	4	0.180684	5.14408	-74.7455	38.4925
 164	1	2	-0.223565	4.3499	-78.3188	37.1814
 165	1	2	-0.141841	4.38231	-76.9139	37.2956
 166	1	1	0.17153	3.75965	-78.7951	36.4043
 167	1	1	0.139148	3.79624	-76.3182	36.6005
 168	1	2	-0.185386	3.74341	-80.9314	40.0205
 169	1	1	0.155741	3.19923	-79.9998	39.8922
 170	1	4	-0.198622	6.54437	-74.231	38.9335
 171	1	4	-0.188008	4.15947	-74.4438	39.6549
 172	1	5	0.060726	6.79546	-74.5319	39.9571
 173	1	5	0.058265	6.57978	-73.1341	38.9052
 174	1	5	0.044015	7.3311	-74.6067	38.2668
 175	1	5	0.049647	4.42353	-75.0188	40.5518
 176	1	5	0.045128	3.13256	-74.7166	39.3802
 177	1	5	0.061555	4.17908	-73.3832	39.9353
 178	1	1	0.151962	6.33151	-74.9588	36.0258
 179	1	2	-0.211106	5.56527	-74.1867	36.0287
 180	1	2	-0.169243	5.3902	-73.3878	34.882
 181	1	1	0.166678	6.01085	-73.5463	34.005
 182	1	2	0.259195	4.45224	-72.3453	34.8691
 183	1	2	-0.207473	3.66533	-72.1263	36.0128
 184	1	1	0.171716	2.95387	-71.3077	36.0348
 185	1	2	-0.169975	3.82955	-72.9327	37.1564
 186	1	1	0.141932	3.22059	-72.706	38.0251
 187	1	2	0.050656	4.79838	-73.9662	37.1942
 188	1	6	0.518059	4.03962	-84.0621	42.2371
 189	1	6	0.507614	5.65766	-84.6686	40.7125
 190	1	7	-0.122906	4.95073	-85.0355	41.8511
 191	1	8	-0.496938	3.26392	-84.0929	43.1763
 192	1	8	-0.484992	6.5259	-85.3011	40.1377
 193	1	2	-0.048962	3.02602	-68.2878	32.7269
 194	1	6	0.0776	3.21793	-66.8929	32.2428
 195	1	8	-0.391129	4.29108	-66.3368	32.0757
 196	1	2	0.038503	1.66888	-68.5415	32.7863
 197	1	6	0.061082	0.939451	-67.3248	32.3456
 198	1	7	0.459351	1.92944	-66.3853	32.0407
 199	1	8	-0.403808	-0.273432	-67.2118	32.2622
 200	1	2	-0.02278	3.96701	-69.2708	33.0696
 201	1	2	-0.06542	1.17204	-69.7889	33.1854
 202	1	2	0.157218	3.4925	-70.5333	33.4871
 203	1	1	0.144625	5.03218	-69.0699	33.003
 204	1	2	-0.259423	2.10253	-70.794	33.5304
 205	1	3	-0.32062	4.40551	-71.53	33.7546
 206	1	1	0.165981	0.0993399	-69.9704	33.2052
 207	1	1	0.168674	1.75112	-71.783	33.8099
 208	1	1	0.207625	3.19151	-64.9985	30.0668
 209	1	2	-0.428502	2.37421	-64.4535	30.534
 210	1	2	-0.035773	2.06768	-63.1559	30.0781
 211	1	1	0.142536	2.64128	-62.7202	29.2622
 212	1	2	0.020215	1.02202	-62.42	30.6665
 213	1	2	-0.058677	0.293358	-63.0023	31.7187
 214	1	1	0.147375	-0.519009	-62.4494	32.1863
 215	1	2	-0.40884	0.601905	-64.2981	32.1694
 216	1	1	0.20403	0.00999051	-64.729	32.9736
 217	1	2	0.301824	1.64327	-65.0524	31.5851
 218	1	2	-0.079086	0.120261	-59.3367	28.8572
 219	1	2	-0.121043	-0.217302	-58.4889	27.79
 220	1	1	0.148865	-0.243716	-58.8564	26.7682
 221	1	2	0.229196	-0.533664	-57.1469	28.0828
 222	1	3	-0.312503	-0.862147	-56.2966	27.0525
 223	1	1	0.177824	-0.100168	-57.1937	31.507
 224	1	2	-0.142744	-0.141064	-57.5414	30.4757
 225	1	2	-0.093344	0.152487	-58.8759	30.1602
 226	1	1	0.162888	-0.608898	-53.7004	26.7287
 227	1	1	0.147794	-2.4392	-52.0231	26.9046
 228	1	2	-0.172056	-1.62352	-54.0199	26.9476
 229	1	2	-0.198933	-2.66445	-53.0771	27.049
 230	1	2	0.236899	-1.88431	-55.3823	27.1429
 231	1	2	0.029337	-3.991	-53.4794	27.3301
 232	1	4	0.180684	-5.10028	-52.4019	27.4731
 233	1	2	-0.223565	-3.19278	-55.8031	27.416
 234	1	2	-0.141841	-4.23676	-54.8637	27.5065
 235	1	1	0.17153	-3.39542	-56.8613	27.5524
 236	1	1	0.139148	-5.23341	-55.2347	27.7221
 237	1	2	-0.185386	-0.486859	-56.675	29.4165
 238	1	1	0.155741	-0.712512	-55.6329	29.6242
 239	1	4	-0.198622	-4.71197	-51.5245	28.6976
 240	1	4	-0.188008	-6.49409	-53.0133	27.7816
 241	1	5	0.060726	-4.45287	-52.1558	29.5575
 242	1	5	0.058265	-5.5327	-50.8709	29.0158
 243	1	5	0.044015	-3.84446	-50.891	28.4745
 244	1	5	0.049647	-6.48178	-53.5907	28.715
 245	1	5	0.045128	-6.82434	-53.6705	26.9669
 246	1	5	0.061555	-7.25138	-52.2271	27.8942
 247	1	1	0.151962	-6.21349	-49.8613	27.1803
 248	1	2	-0.211106	-5.86287	-50.2674	26.2369
 249	1	2	-0.169243	-6.03386	-49.4949	25.0716
 250	1	1	0.166678	-6.48086	-48.5076	25.1351
 251	1	2	0.259195	-5.61935	-49.9909	23.8251
 252	1	2	-0.207473	-5.02325	-51.258	23.7601
 253	1	1	0.171716	-4.69427	-51.6366	22.797
 254	1	2	-0.169975	-4.85508	-52.0342	24.9237
 255	1	1	0.141932	-4.40863	-53.0211	24.8304
 256	1	2	0.050656	-5.25446	-51.5451	26.1892
 257	1	6	0.518059	0.524852	-60.0146	31.0442
 258	1	6	0.507614	0.477939	-60.7831	28.8726
 259	1	7	-0.122906	0.696129	-61.1097	30.2061
 260	1	8	-0.496938	0.622162	-59.977	32.2585
 261	1	8	-0.484992	0.544857	-61.5182	27.9029
 262	1	2	-0.048962	-7.3893	-46.2953	21.2607
 263	1	6	0.0776	-7.32879	-45.0341	20.4746
 264	1	8	-0.391129	-6.32324	-44.5532	19.9784
 265	1	2	0.038503	-8.69893	-46.5002	21.6505
 266	1	6	0.061082	-9.52824	-45.3808	21.1275
 267	1	7	0.459351	-8.63994	-44.5459	20.4411
 268	1	8	-0.403808	-10.7278	-45.2382	21.3031
 269	1	2	-0.02278	-6.37318	-47.2	21.6028
 270	1	2	-0.06542	-9.06896	-47.6219	22.4053
 271	1	2	0.157218	-6.71604	-48.3322	22.3715
 272	1	1	0.144625	-5.34943	-47.0362	21.2797
 273	1	2	-0.259423	-8.06075	-48.5466	22.7608
 274	1	3	-0.32062	-5.72941	-49.2496	22.6668
 275	1	1	0.165981	-10.1079	-47.7715	22.6921
 276	1	1	0.168674	-8.32369	-49.4402	23.3204
 277	1	1	0.207625	-10.8465	-44.0739	18.9234
 278	1	2	-0.428502	-10.2061	-43.2032	19.0467
 279	1	2	-0.035773	-10.6006	-41.9772	18.4732
 280	1	1	0.142536	-11.5316	-41.9236	17.9121
 281	1	2	0.020215	-9.81713	-40.8183	18.6429
 282	1	2	-0.058677	-8.62579	-40.9204	19.3863
 283	1	1	0.147375	-7.99931	-40.0424	19.5297
 284	1	2	-0.40884	-8.23882	-42.1452	19.962
 285	1	1	0.20403	-7.31298	-42.1893	20.5309
 286	1	2	0.301824	-9.02303	-43.3098	19.8124
 287	1	2	-0.079086	-10.2176	-37.4271	17.2242
 288	1	2	-0.121043	-9.86886	-36.1891	16.6595
 289	1	1	0.148865	-8.85367	-35.996	16.3245
 290	1	2	0.229196	-10.8658	-35.1978	16.5407
 291	1	3	-0.312503	-10.5132	-33.9909	15.9687
 292	1	1	0.177824	-13.5262	-36.9377	17.8951
 293	1	2	-0.142744	-12.5176	-36.7195	17.5469
 294	1	2	-0.093344	-11.5033	-37.6821	17.6583
 295	1	1	0.162888	-11.353	-32.8962	13.7436
 296	1	1	0.147794	-12.8133	-30.8953	13.5491
 297	1	2	-0.172056	-11.6916	-32.38	14.6371
 298	1	2	-0.198933	-12.5153	-31.2424	14.5356
 299	1	2	0.236899	-11.3148	-32.8735	15.8925
 300	1	2	0.029337	-12.9611	-30.5516	15.6874
 301	1	4	0.180684	-13.9578	-29.3639	15.5343
 302	1	2	-0.223565	-11.7275	-32.1949	17.048
 303	1	2	-0.141841	-12.5416	-31.0487	16.9483
 304	1	1	0.17153	-11.4165	-32.5635	18.0212
 305	1	1	0.139148	-12.8502	-30.5677	17.8708
 306	1	2	-0.185386	-12.1876	-35.4697	16.9761
 307	1	1	0.155741	-12.9605	-34.7145	16.8703
 308	1	4	-0.198622	-14.402	-28.7854	16.9072
 309	1	4	-0.188008	-15.2349	-29.9587	14.872
 310	1	5	0.060726	-14.8643	-29.559	17.5342
 311	1	5	0.058265	-15.1466	-27.9893	16.7845
 312	1	5	0.044015	-13.5497	-28.3572	17.4491
 313	1	5	0.049647	-15.0474	-30.2399	13.8282
 314	1	5	0.045128	-16.0738	-29.253	14.8765
 315	1	5	0.061555	-15.566	-30.8592	15.4054
 316	1	1	0.151962	-11.3486	-28.8574	14.5397
 317	1	2	-0.211106	-12.0755	-28.1141	14.224
 318	1	2	-0.169243	-11.6671	-27.1167	13.3113
 319	1	1	0.166678	-10.6607	-27.128	12.9041
 320	1	2	0.259195	-12.5744	-26.1458	12.8584
 321	1	2	-0.207473	-13.8875	-26.1633	13.3433
 322	1	1	0.171716	-14.6014	-25.4384	12.9643
 323	1	2	-0.169975	-14.3015	-27.1675	14.2396
 324	1	1	0.141932	-15.3375	-27.1719	14.5648
 325	1	2	0.050656	-13.4196	-28.1922	14.6623
 326	1	6	0.518059	-11.5333	-39.0579	18.2309
 327	1	6	0.507614	-9.39058	-38.6355	17.5032
 328	1	7	-0.122906	-10.2378	-39.5538	18.1184
 329	1	8	-0.496938	-12.5041	-39.602	18.7277
 330	1	8	-0.484992	-8.2017	-38.7568	17.2642
 331	1	2	-0.048962	-11.5756	-22.0842	10.3349
 332	1	6	0.0776	-11.6032	-21.1886	9.15247
 333	1	8	-0.391129	-12.2532	-21.4021	8.1418
 334	1	2	0.038503	-10.8067	-21.4944	11.3149
 335	1	6	0.061082	-10.2726	-20.2084	10.7756
 336	1	7	0.459351	-10.769	-20.1026	9.4636
 337	1	8	-0.403808	-9.50256	-19.4682	11.3666
 338	1	2	-0.02278	-12.1138	-23.3673	10.4967
 339	1	2	-0.06542	-10.5797	-22.1403	12.5422
 340	1	2	0.157218	-11.8722	-24.0554	11.7031
 341	1	1	0.144625	-12.6624	-23.8421	9.68886
 342	1	2	-0.259423	-11.1249	-23.4355	12.7333
 343	1	3	-0.32062	-12.2729	-25.3732	11.7593
 344	1	1	0.165981	-9.96427	-21.6645	13.3031
 345	1	1	0.168674	-10.925	-23.9763	13.6539
 346	1	1	0.207625	-10.0701	-17.4997	10.0221
 347	1	2	-0.428502	-10.1222	-17.7265	8.96019
 348	1	2	-0.035773	-9.875	-16.6834	8.04233
 349	1	1	0.142536	-9.64655	-15.6872	8.41626
 350	1	2	0.020215	-9.96592	-16.9028	6.65329
 351	1	2	-0.058677	-10.2555	-18.2054	6.21101
 352	1	1	0.147375	-10.3366	-18.4106	5.14538
 353	1	2	-0.40884	-10.4767	-19.2477	7.13122
 354	1	1	0.20403	-10.7041	-20.232	6.73213
 355	1	2	0.301824	-10.4531	-19.0352	8.53188
 356	1	2	-0.079086	-9.52843	-14.5988	3.78151
 357	1	2	-0.121043	-9.21201	-14.1483	2.48569
 358	1	1	0.148865	-8.62335	-14.7621	1.80966
 359	1	2	0.229196	-9.7025	-12.8888	2.07216
 360	1	3	-0.312503	-9.41578	-12.4417	0.796408
 361	1	1	0.177824	-11.384	-11.9839	4.94916
 362	1	2	-0.142744	-10.7769	-12.57	4.26104
 363	1	2	-0.093344	-10.2894	-13.8286	4.6388
 364	1	1	0.162888	-11.7125	-12.8843	-0.423604
 365	1	1	0.147794	-13.117	-11.1977	-1.54
 366	1	2	-0.172056	-11.3821	-11.8506	-0.468031
 367	1	2	-0.198933	-12.1752	-10.8768	-1.10696
 368	1	2	0.236899	-10.1671	-11.4954	0.133177
 369	1	2	0.029337	-11.77	-9.51861	-1.15717
 370	1	4	0.180684	-12.6728	-8.38995	-1.73714
 371	1	2	-0.223565	-9.72891	-10.1661	0.0590602
 372	1	2	-0.141841	-10.5206	-9.19002	-0.579804
 373	1	1	0.17153	-8.78248	-9.89444	0.516965
 374	1	1	0.139148	-10.1683	-8.16212	-0.605995
 375	1	2	-0.185386	-10.4749	-12.1041	2.96387
 376	1	1	0.155741	-10.846	-11.1334	2.64897
 377	1	4	-0.198622	-12.9135	-7.37063	-0.584565
 378	1	4	-0.188008	-14.0761	-8.91053	-2.15356
 379	1	5	0.060726	-13.7234	-6.66822	-0.81483
 380	1	5	0.058265	-12.012	-6.78256	-0.373777
 381	1	5	0.044015	-13.1984	-7.89169	0.338832
 382	1	5	0.049647	-14.0014	-9.63565	-2.97378
 383	1	5	0.045128	-14.7129	-8.08857	-2.50506
 384	1	5	0.061555	-14.5918	-9.3872	-1.30987
 385	1	1	0.151962	-10.8335	-9.38961	-3.59455
 386	1	2	-0.211106	-11.1556	-8.3792	-3.83524
 387	1	2	-0.169243	-10.6691	-7.76983	-5.01214
 388	1	1	0.166678	-9.97108	-8.3004	-5.65294
 389	1	2	0.259195	-11.0837	-6.47968	-5.38199
 390	1	2	-0.207473	-11.9717	-5.7898	-4.54172
 391	1	1	0.171716	-12.2818	-4.78208	-4.79944
 392	1	2	-0.169975	-12.4634	-6.39817	-3.37017
 393	1	1	0.141932	-13.1765	-5.84439	-2.76858
 394	1	2	0.050656	-12.0603	-7.70099	-2.98676
 395	1	6	0.518059	-10.4996	-14.597	5.89595
 396	1	6	0.507614	-9.23146	-15.8892	4.4751
 397	1	7	-0.122906	-9.86271	-15.8204	5.71751
 398	1	8	-0.496938	-11.1631	-14.2279	6.84946
 399	1	8	-0.484992	-8.61453	-16.8277	4.00166
 400	1	2	-0.048962	-10.9735	-3.12212	-8.9009
 401	1	6	0.0776	-10.3791	-2.08216	-9.78748
 402	1	8	-0.391129	-9.19293	-1.82146	-9.89764
 403	1	2	0.038503	-12.3433	-3.11612	-9.09095
 404	1	6	0.061082	-12.6775	-2.07497	-10.1028
 405	1	7	0.459351	-11.4538	-1.52111	-10.4799
 406	1	8	-0.403808	-13.79	-1.81122	-10.5291
 407	1	2	-0.02278	-10.3587	-4.04326	-8.03639
 408	1	2	-0.06542	-13.1736	-4.03392	-8.43308
 409	1	2	0.157218	-11.1735	-4.96777	-7.3447
 410	1	1	0.144625	-9.27944	-4.05589	-7.91632
 411	1	2	-0.259423	-12.5741	-4.96993	-7.55907
 412	1	3	-0.32062	-10.5663	-5.909	-6.53192
 413	1	1	0.165981	-14.2458	-4.03223	-8.61833
 414	1	1	0.168674	-13.1929	-5.71521	-7.0673
 415	1	1	0.207625	-10.9413	1.14069	-10.2508
 416	1	2	-0.428502	-11.033	0.795955	-11.2773
 417	1	2	-0.035773	-10.8631	1.7162	-12.3332
 418	1	1	0.142536	-10.6499	2.75902	-12.1062
 419	1	2	0.020215	-10.9606	1.30059	-13.6774
 420	1	2	-0.058677	-11.2411	-0.0546027	-13.9398
 421	1	1	0.147375	-11.3321	-0.398317	-14.9682
 422	1	2	-0.40884	-11.4109	-0.971469	-12.8836
 423	1	1	0.20403	-11.632	-2.01061	-13.1125
 424	1	2	0.301824	-11.3051	-0.564806	-11.5369
 425	1	2	-0.079086	-10.0495	3.99866	-16.0387
 426	1	2	-0.121043	-9.39676	5.13524	-16.5425
 427	1	1	0.148865	-8.53441	5.55438	-16.0319
 428	1	2	0.229196	-9.90709	5.74598	-17.707
 429	1	3	-0.312503	-9.29648	6.9048	-18.14
 430	1	1	0.177824	-12.58	3.64113	-18.2987
 431	1	2	-0.142744	-11.6886	4.05536	-17.8298
 432	1	2	-0.093344	-11.1646	3.47613	-16.6629
 433	1	1	0.162888	-8.7018	6.11102	-20.5983
 434	1	1	0.147794	-9.00872	7.4347	-22.6565
 435	1	2	-0.172056	-9.1736	7.08788	-20.547
 436	1	2	-0.198933	-9.34656	7.85683	-21.7155
 437	1	2	0.236899	-9.5701	7.59255	-19.3005
 438	1	2	0.029337	-9.91149	9.15597	-21.6586
 439	1	4	0.180684	-10.0687	10.0667	-22.9084
 440	1	2	-0.223565	-10.1337	8.873	-19.2263
 441	1	2	-0.141841	-10.3044	9.64489	-20.3915
 442	1	1	0.17153	-10.4125	9.27398	-18.2564
 443	1	1	0.139148	-10.7191	10.6458	-20.3028
 444	1	2	-0.185386	-11.0481	5.20419	-18.3492
 445	1	1	0.155741	-11.4525	5.68795	-19.2335
 446	1	4	-0.198622	-11.5713	10.4586	-23.0197
 447	1	4	-0.188008	-9.709	9.33658	-24.2308
 448	1	5	0.060726	-11.862	11.1692	-22.2366
 449	1	5	0.058265	-12.2096	9.57087	-22.9215
 450	1	5	0.044015	-11.8057	10.9165	-23.9887
 451	1	5	0.049647	-10.3247	8.43856	-24.3707
 452	1	5	0.045128	-8.65206	9.04237	-24.247
 453	1	5	0.061555	-9.87566	9.99043	-25.0965
 454	1	1	0.151962	-7.60967	10.3077	-21.6354
 455	1	2	-0.211106	-7.91394	11.2351	-22.1144
 456	1	2	-0.169243	-7.05755	12.3504	-22.0303
 457	1	1	0.166678	-6.12125	12.2845	-21.4845
 458	1	2	0.259195	-7.39959	13.5579	-22.6535
 459	1	2	-0.207473	-8.60937	13.6485	-23.3575
 460	1	1	0.171716	-8.87528	14.5867	-23.8355
 461	1	2	-0.169975	-9.47043	12.5349	-23.4392
 462	1	1	0.141932	-10.3907	12.6352	-24.0061
 463	1	2	0.050656	-9.14703	11.3107	-22.8038
 464	1	6	0.518059	-11.6504	2.32532	-15.8471
 465	1	6	0.507614	-9.79129	3.19736	-14.808
 466	1	7	-0.122906	-10.7971	2.23655	-14.7505
 467	1	8	-0.496938	-12.6236	1.63554	-16.0963
 468	1	8	-0.484992	-8.89341	3.38908	-14.0067
 469	1	2	-0.048962	-4.22555	16.8459	-24.3402
 470	1	6	0.0776	-3.34001	18.0452	-24.3771
 471	1	8	-0.391129	-3.14249	18.822	-23.4581
 472	1	2	0.038503	-4.17224	16.2369	-25.5802
 473	1	6	0.061082	-3.26576	17.024	-26.4588
 474	1	7	0.459351	-2.81838	18.086	-25.6733
 475	1	8	-0.403808	-3.00042	16.7807	-27.6247
 476	1	2	-0.02278	-5.02946	16.3314	-23.309
 477	1	2	-0.06542	-4.90498	15.0759	-25.8569
 478	1	2	0.157218	-5.7845	15.1635	-23.5625
 479	1	1	0.144625	-5.07008	16.8194	-22.3395
 480	1	2	-0.259423	-5.71326	14.537	-24.8317
 481	1	3	-0.32062	-6.56053	14.6458	-22.5434
 482	1	1	0.165981	-4.84317	14.6104	-26.8383
 483	1	1	0.168674	-6.27974	13.631	-25.0257
 484	1	1	0.207625	-3.45349	19.943	-27.5166
 485	1	2	-0.428502	-2.43927	20.0407	-27.1384
 486	1	2	-0.035773	-1.61793	21.0761	-27.6274
 487	1	1	0.142536	-2.01033	21.7722	-28.366
 488	1	2	0.020215	-0.300456	21.2311	-27.1558
 489	1	2	-0.058677	0.183177	20.3189	-26.197
 490	1	1	0.147375	1.19446	20.4316	-25.8112
 491	1	2	-0.40884	-0.639345	19.2789	-25.7136
 492	1	1	0.20403	-0.249964	18.5972	-24.9619
 493	1	2	0.301824	-1.96747	19.1289	-26.1694
 494	1	2	-0.079086	1.64071	24.3383	-27.5747
 495	1	2	-0.121043	2.22193	25.5679	-27.224
 496	1	1	0.148865	2.30249	25.8661	-26.1827
 497	1	2	0.229196	2.67144	26.4227	-28.2522
 498	1	3	-0.312503	3.16822	27.6598	-27.889
 499	1	1	0.177824	1.77996	24.4959	-30.9787
 500	1	2	-0.142744	1.92304	24.795	-29.9412
 501	1	2	-0.093344	1.47707	23.969	-28.8955
 502	1	1	0.162888	5.66963	27.771	-27.1451
 503	1	1	0.147794	7.46101	29.0968	-28.1945
 504	1	2	-0.172056	5.45228	28.3718	-28.0233
 505	1	2	-0.198933	6.46588	29.143	-28.6251
 506	1	2	0.236899	4.15083	28.3708	-28.5422
 507	1	2	0.029337	6.19504	29.9462	-29.7604
 508	1	4	0.180684	7.29969	30.735	-30.5167
 509	1	2	-0.223565	3.85124	29.1973	-29.6358
 510	1	2	-0.141841	4.86388	29.9726	-30.2389
 511	1	1	0.17153	2.83156	29.2436	-30.0054
 512	1	1	0.139148	4.61243	30.5977	-31.0917
 513	1	2	-0.185386	2.53168	26.0287	-29.6062
 514	1	1	0.155741	2.8645	26.6929	-30.3973
 515	1	4	-0.198622	7.36016	30.1797	-31.9695
 516	1	4	-0.188008	8.72409	30.4856	-29.9386
 517	1	5	0.060726	7.53604	29.0962	-31.9617
 518	1	5	0.058265	8.17644	30.6422	-32.5398
 519	1	5	0.044015	6.42562	30.3537	-32.5156
 520	1	5	0.049647	8.81473	30.8311	-28.9019
 521	1	5	0.045128	9.48153	31.0209	-30.5258
 522	1	5	0.061555	8.98289	29.4189	-29.9642
 523	1	1	0.151962	7.14948	32.3609	-28.3029
 524	1	2	-0.211106	7.01408	32.9284	-29.2202
 525	1	2	-0.169243	6.84531	34.3253	-29.1418
 526	1	1	0.166678	6.84831	34.8245	-28.1771
 527	1	2	0.259195	6.67102	35.0948	-30.3015
 528	1	2	-0.207473	6.64814	34.4452	-31.5474
 529	1	1	0.171716	6.48923	35.0183	-32.4547
 530	1	2	-0.169975	6.83534	33.0505	-31.6295
 531	1	1	0.141932	6.83455	32.5987	-32.6154
 532	1	2	0.050656	7.02674	32.2631	-30.4666
 533	1	6	0.518059	0.735591	22.6706	-28.9199
 534	1	6	0.507614	1.03975	23.2756	-26.7201
 535	1	7	-0.122906	0.496105	22.3377	-27.5898
 536	1	8	-0.496938	0.357792	22.0779	-29.9154
 537	1	8	-0.484992	1.01274	23.2658	-25.5021
 538	1	2	-0.048962	5.0863	39.1644	-32.1838
 539	1	6	0.0776	3.97055	40.094	-32.4692
 540	1	8	-0.391129	2.94571	40.2061	-31.8184
 541	1	2	0.038503	6.04943	39.3241	-33.1634
 542	1	6	0.061082	5.57693	40.3656	-34.1238
 543	1	7	0.459351	4.31792	40.7418	-33.6528
 544	1	8	-0.403808	6.1403	40.7221	-35.1462
 545	1	2	-0.02278	5.20882	38.2072	-31.1694
 546	1	2	-0.06542	7.20916	38.5349	-33.1686
 547	1	2	0.157218	6.35297	37.3859	-31.1673
 548	1	1	0.144625	4.43406	38.0941	-30.4162
 549	1	2	-0.259423	7.35781	37.5633	-32.1493
 550	1	3	-0.32062	6.49487	36.4578	-30.1582
 551	1	1	0.165981	7.96295	38.6726	-33.9414
 552	1	1	0.168674	8.25207	36.9476	-32.1122
 553	1	1	0.207625	1.91934	39.9612	-34.4687
 554	1	2	-0.428502	2.12433	41.0049	-34.6918
 555	1	2	-0.035773	1.09333	41.8035	-35.2033
 556	1	1	0.142536	0.115109	41.3628	-35.3817
 557	1	2	0.020215	1.29464	43.1774	-35.4123
 558	1	2	-0.058677	2.57362	43.7217	-35.178
 559	1	1	0.147375	2.75147	44.7771	-35.3663
 560	1	2	-0.40884	3.605	42.9194	-34.644
 561	1	1	0.20403	4.57094	43.3633	-34.4152
 562	1	2	0.301824	3.37686	41.5561	-34.3561
 563	1	2	-0.079086	-1.9116	44.9346	-35.7764
 564	1	2	-0.121043	-3.22271	45.3222	-35.4779
 565	1	1	0.148865	-3.75718	44.8701	-34.6469
 566	1	2	0.229196	-3.80202	46.3541	-36.2464
 567	1	3	-0.312503	-5.01464	46.8838	-35.8681
 568	1	1	0.177824	-1.17171	47.0111	-38.3796
 569	1	2	-0.142744	-1.75286	46.5439	-37.586
 570	1	2	-0.093344	-1.18784	45.5387	-36.7853
 571	1	1	0.162888	-6.65337	45.7703	-34.1235
 572	1	1	0.147794	-6.46328	46.0021	-31.673
 573	1	2	-0.172056	-5.98541	46.5146	-33.7006
 574	1	2	-0.198933	-5.86555	46.6515	-32.3042
 575	1	2	0.236899	-5.14901	47.248	-34.5523
 576	1	2	0.029337	-4.88979	47.512	-31.744
 577	1	4	0.180684	-4.45198	47.4111	-30.2639
 578	1	2	-0.223565	-4.24581	48.173	-34.0154
 579	1	2	-0.141841	-4.11116	48.2961	-32.6259
 580	1	1	0.17153	-3.57528	48.7133	-34.6768
 581	1	1	0.139148	-3.3132	48.9258	-32.2461
 582	1	2	-0.185386	-3.07898	46.9464	-37.3055
 583	1	1	0.155741	-3.53928	47.7485	-37.8752
 584	1	4	-0.198622	-5.4889	46.6929	-29.3535
 585	1	4	-0.188008	-4.29363	48.8344	-29.6475
 586	1	5	0.060726	-6.46388	47.1948	-29.4058
 587	1	5	0.058265	-5.16087	46.7102	-28.3061
 588	1	5	0.044015	-5.63484	45.6418	-29.6242
 589	1	5	0.049647	-3.57197	49.4585	-30.1845
 590	1	5	0.045128	-3.95836	48.7749	-28.604
 591	1	5	0.061555	-5.25249	49.3682	-29.6594
 592	1	1	0.151962	-1.78149	48.1859	-29.6837
 593	1	2	-0.211106	-1.86861	47.188	-30.1004
 594	1	2	-0.169243	-0.689981	46.519	-30.4806
 595	1	1	0.166678	0.274708	46.9974	-30.345
 596	1	2	0.259195	-0.755386	45.2572	-31.0941
 597	1	2	-0.207473	-1.99185	44.6236	-31.2409
 598	1	1	0.171716	-2.03492	43.646	-31.7139
 599	1	2	-0.169975	-3.16997	45.2903	-30.8659
 600	1	1	0.141932	-4.12079	44.8103	-31.0749
 601	1	2	0.050656	-3.13464	46.6014	-30.3326
 602	1	6	0.518059	0.181825	44.9465	-36.7828
 603	1	6	0.507614	-1.04318	43.9291	-35.1169
 604	1	7	-0.122906	0.182995	43.995	-35.7701
 605	1	8	-0.496938	1.11011	45.283	-37.4962
 606	1	8	-0.484992	-1.3725	43.2056	-34.1929
 607	1	2	-0.048962	3.55567	46.097	-32.6585
 608	1	6	0.0776	4.97277	46.3611	-32.3334
 609	1	8	-0.391129	5.61145	45.8237	-31.4437
 610	1	2	0.038503	3.15924	46.984	-33.6442
 611	1	6	0.061082	4.32028	47.8472	-33.9979
 612	1	7	0.459351	5.3309	47.4526	-33.1219
 613	1	8	-0.403808	4.30257	48.8137	-34.7428
 614	1	2	-0.02278	2.6455	45.2676	-31.9961
 615	1	2	-0.06542	1.8174	47.0795	-34.0365
 616	1	2	0.157218	1.28884	45.3731	-32.3461
 617	1	1	0.144625	2.96628	44.6215	-31.1849
 618	1	2	-0.259423	0.876398	46.2637	-33.3682
 619	1	3	-0.32062	0.366485	44.663	-31.6176
 620	1	1	0.165981	1.51586	47.8022	-34.7925
 621	1	1	0.168674	-0.179705	46.3454	-33.6101
 622	1	1	0.207625	7.56434	48.0509	-34.6176
 623	1	2	-0.428502	7.54897	48.4921	-33.6244
 624	1	2	-0.035773	8.65141	49.2548	-33.1805
 625	1	1	0.142536	9.51825	49.3863	-33.8257
 626	1	2	0.020215	8.64982	49.8173	-31.8879
 627	1	2	-0.058677	7.53596	49.6158	-31.0549
 628	1	1	0.147375	7.52157	50.0211	-30.0457
 629	1	2	-0.40884	6.4461	48.8619	-31.4971
 630	1	1	0.20403	5.61028	48.6961	-30.8221
 631	1	2	0.301824	6.44201	48.2738	-32.7751
 632	1	2	-0.079086	10.9266	51.7423	-29.814
 633	1	2	-0.121043	11.2342	52.5312	-28.702
 634	1	1	0.148865	10.5167	53.2502	-28.3181
 635	1	2	0.229196	12.4607	52.3044	-28.0508
 636	1	3	-0.312503	12.733	52.9649	-26.8801
 637	1	1	0.177824	13.6714	49.7229	-29.9915
 638	1	2	-0.142744	13.0217	50.5273	-29.6493
 639	1	2	-0.093344	11.7798	50.7529	-30.2636
 640	1	1	0.162888	11.08	54.8888	-26.1438
 641	1	1	0.147794	9.39079	54.7324	-24.34
 642	1	2	-0.172056	10.9877	53.9756	-25.5634