pySIMM System Object

1520 atoms
1673 bonds
2816 angles
4352 dihedrals
528 impropers

9 atom types
11 bond types
18 angle types
9 dihedral types
4 improper types

-172.890218 172.890218 xlo xhi
-172.890218 172.890218 ylo yhi
-172.890218 172.890218 zlo zhi

Masses

   1	1.008	# ha
   2	12.01	# ca
   3	16.0	# os
   4	12.01	# c3
   5	1.008	# hc
   6	12.01	# c
   7	14.01	# n
   8	16.0	# o
   9	1.008	# hn

Pair Coeffs

   1	0.015	2.59964245953351	# ha
   2	0.086	3.3996695084235347	# ca
   3	0.17	3.0000123434657784	# os
   4	0.1094	3.3996695084235347	# c3
   5	0.0157	2.649532787749369	# hc
   6	0.086	3.3996695084235347	# c
   7	0.17	3.249998523775958	# n
   8	0.21	2.959921901149463	# o
   9	0.0157	1.069078461768407	# hn

Bond Coeffs

   1	461.1	1.3984	# ca,ca
   2	427.6	1.3789	# c,n
   3	345.9	1.4906	# c,ca
   4	300.9	1.5375	# c3,c3
   5	345.8	1.086	# ca,ha
   6	384.2	1.4121	# ca,n
   7	321.0	1.5156	# c3,ca
   8	330.6	1.0969	# c3,hc
   9	637.7	1.2183	# c,o
  10	376.6	1.3696	# ca,os
  11	403.2	1.0129	# hn,n

Angle Coeffs

   1	46.34	109.8	# c3,c3,hc
   2	74.22	123.05	# n,c,o
   3	48.33	117.55	# c,n,hn
   4	63.56	112.24	# ca,c3,ca
   5	63.48	119.89	# ca,os,ca
   6	62.86	111.51	# c3,c3,c3
   7	66.62	120.02	# ca,ca,ca
   8	64.28	120.33	# c,ca,ca
   9	63.15	112.07	# c3,c3,ca
  10	39.4	107.58	# hc,c3,hc
  11	48.18	119.88	# ca,ca,ha
  12	63.53	120.77	# c3,ca,ca
  13	63.74	127.08	# c,n,c
  14	67.68	115.25	# ca,c,n
  15	63.82	123.71	# c,n,ca
  16	68.72	122.6	# ca,c,o
  17	67.87	120.19	# ca,ca,n
  18	69.58	119.2	# ca,ca,os

Dihedral Coeffs

   1	1	3.625	2	180	# X,ca,ca,X
   2	1	1.0	2	180	# X,c,ca,X
   3	1	0.0	2	0	# X,c3,ca,X
   4	1	0.15555555555555556	3	0	# X,c3,c3,X
   5	1	0.9	2	180	# X,ca,os,X
   6	1	2.5	2	180	# X,c,n,X
   7	1	0.45	2	180	# X,ca,n,X
   8	1	0.16	3	0	# hc,c3,c3,c3
   9	2	2.5	2	180	2.0	1	0	# hn,n,c,o

Improper Coeffs

   1	1.1	-1	2	# n,X,X,hn
   2	1.1	-1	2	# ca,ca,ca,c3
   3	10.5	-1	2	# c,X,X,o
   4	1.1	-1	2	# ca,X,X,ha

Atoms

   1	1	1	0.207625	37.0223	70.4338	-29.7706
   2	1	2	-0.428502	35.9987	70.1945	-30.0404
   3	1	2	-0.035773	35.0501	71.2213	-30.1998
   4	1	1	0.142536	35.3444	72.2582	-30.0513
   5	1	2	0.020215	33.7216	70.9112	-30.5501
   6	1	2	-0.058677	33.3557	69.5636	-30.7358
   7	1	1	0.147375	32.3344	69.3114	-31.014
   8	1	2	-0.40884	34.3081	68.5415	-30.5678
   9	1	1	0.20403	34.0265	67.503	-30.7095
  10	1	2	0.301824	35.6298	68.8545	-30.2219
  11	1	2	-0.079086	31.4699	73.8173	-30.3912
  12	1	2	-0.121043	30.8502	74.974	-29.8955
  13	1	1	0.148865	31.1206	75.3829	-28.9259
  14	1	2	0.229196	29.8632	75.5906	-30.6897
  15	1	3	-0.312503	29.2534	76.7277	-30.2072
  16	1	1	0.177824	29.9327	73.4746	-33.4197
  17	1	2	-0.142744	30.1719	73.8948	-32.4439
  18	1	2	-0.093344	31.1316	73.289	-31.6229
  19	1	1	0.162888	27.0567	75.2287	-30.4617
  20	1	1	0.147794	24.8438	76.0473	-31.2222
  21	1	2	-0.172056	26.9214	76.2802	-30.699
  22	1	2	-0.198933	25.6674	76.7512	-31.1264
  23	1	2	0.236899	28.0064	77.1643	-30.589
  24	1	2	0.029337	25.4665	78.1166	-31.431
  25	1	4	0.180684	24.0772	78.5786	-31.9312
  26	1	2	-0.223565	27.8193	78.5237	-30.8664
  27	1	2	-0.141841	26.5638	78.9988	-31.2881
  28	1	1	0.17153	28.6602	79.2037	-30.7664
  29	1	1	0.139148	26.4644	80.0566	-31.5097
  30	1	2	-0.185386	29.5427	75.0635	-31.9664
  31	1	1	0.155741	28.8075	75.563	-32.5903
  32	1	4	-0.198622	23.9318	78.0722	-33.3925
  33	1	4	-0.188008	23.9188	80.1225	-31.9723
  34	1	5	0.060726	23.01	78.4421	-33.8586
  35	1	5	0.058265	23.9253	76.9757	-33.4352
  36	1	5	0.044015	24.7716	78.4215	-34.0071
  37	1	5	0.049647	24.1086	80.5699	-30.9885
  38	1	5	0.045128	22.8977	80.3966	-32.268
  39	1	5	0.061555	24.6027	80.5794	-32.6987
  40	1	1	0.151962	21.6402	77.2455	-32.518
  41	1	2	-0.211106	21.8147	77.3842	-31.4557
  42	1	2	-0.169243	20.8512	76.8967	-30.5531
  43	1	1	0.166678	19.9628	76.3886	-30.9172
  44	1	2	0.259195	21.0377	77.0491	-29.1716
  45	1	2	-0.207473	22.174	77.7088	-28.6909
  46	1	1	0.171716	22.31	77.8224	-27.6195
  47	1	2	-0.169975	23.1353	78.2012	-29.591
  48	1	1	0.141932	24.0163	78.705	-29.2002
  49	1	2	0.050656	22.9814	78.0339	-30.9858
  50	1	6	0.518059	31.9574	72.0728	-31.8481
  51	1	6	0.507614	32.5323	72.9597	-29.7993
  52	1	7	-0.122906	32.7624	71.9484	-30.724
  53	1	8	-0.496938	31.9189	71.3488	-32.828
  54	1	8	-0.484992	33.097	73.1443	-28.735
  55	1	2	-0.048962	20.6961	72.8667	-28.4121
  56	1	6	0.0776	21.4139	71.6885	-28.9502
  57	1	8	-0.391129	22.3513	71.714	-29.7314
  58	1	2	0.038503	19.6709	72.4241	-27.5969
  59	1	6	0.061082	19.7032	70.9373	-27.5674
  60	1	7	0.459351	20.7529	70.5836	-28.4148
  61	1	8	-0.403808	18.9293	70.2056	-26.9719
  62	1	2	-0.02278	20.905	74.2254	-28.6653
  63	1	2	-0.06542	18.7831	73.323	-26.9925
  64	1	2	0.157218	20.0178	75.1533	-28.0739
  65	1	1	0.144625	21.7216	74.5359	-29.3096
  66	1	2	-0.259423	18.9687	74.7014	-27.2423
  67	1	3	-0.32062	20.142	76.509	-28.283
  68	1	1	0.165981	17.9719	72.9586	-26.3653
  69	1	1	0.168674	18.2961	75.4301	-26.7982
  70	1	1	0.207625	20.7903	69.6226	-30.9082
  71	1	2	-0.428502	21.0367	68.8793	-30.154
  72	1	2	-0.035773	21.3517	67.5732	-30.5557
  73	1	1	0.142536	21.3347	67.3174	-31.6131
  74	1	2	0.020215	21.7007	66.5999	-29.6031
  75	1	2	-0.058677	21.7292	66.9497	-28.2403
  76	1	1	0.147375	22.0112	66.2069	-27.4968
  77	1	2	-0.40884	21.4023	68.2604	-27.8393
  78	1	1	0.20403	21.4161	68.5168	-26.7827
  79	1	2	0.301824	21.059	69.2427	-28.7928
  80	1	2	-0.079086	22.1514	63.4206	-31.3537
  81	1	2	-0.121043	21.9389	62.4614	-32.3511
  82	1	1	0.148865	20.9973	62.4157	-32.8905
  83	1	2	0.229196	23.0137	61.6189	-32.6935
  84	1	3	-0.312503	22.8999	60.7484	-33.7493
  85	1	1	0.177824	25.3716	62.748	-30.4418
  86	1	2	-0.142744	24.421	62.6479	-30.964
  87	1	2	-0.093344	23.355	63.5146	-30.6803
  88	1	1	0.162888	23.9298	59.2962	-35.6457
  89	1	1	0.147794	24.185	59.9331	-38.0255
  90	1	2	-0.172056	23.5621	60.2583	-35.9917
  91	1	2	-0.198933	23.6933	60.6228	-37.3447
  92	1	2	0.236899	22.9857	61.141	-35.0692
  93	1	2	0.029337	23.2196	61.869	-37.8155
  94	1	4	0.180684	23.4406	62.2647	-39.298
  95	1	2	-0.223565	22.525	62.3916	-35.5201
  96	1	2	-0.141841	22.6312	62.7466	-36.8759
  97	1	1	0.17153	22.0819	63.1003	-34.8322
  98	1	1	0.139148	22.2681	63.7243	-37.1747
  99	1	2	-0.185386	24.2366	61.6939	-31.9894
 100	1	1	0.155741	25.0488	61.0285	-32.2685
 101	1	4	-0.198622	22.7142	63.5778	-39.6981
 102	1	4	-0.188008	22.8384	61.1462	-40.1973
 103	1	5	0.060726	21.6341	63.505	-39.5155
 104	1	5	0.058265	22.8587	63.7922	-40.7648
 105	1	5	0.044015	23.1045	64.4394	-39.1424
 106	1	5	0.049647	21.8015	60.9345	-39.9058
 107	1	5	0.045128	23.4039	60.2099	-40.119
 108	1	5	0.061555	22.827	61.4401	-41.2543
 109	1	1	0.151962	25.1072	61.4563	-41.443
 110	1	2	-0.211106	25.6401	61.98	-40.6556
 111	1	2	-0.169243	27.0377	62.1136	-40.7652
 112	1	1	0.166678	27.5692	61.6777	-41.606
 113	1	2	0.259195	27.7659	62.7474	-39.7492
 114	1	2	-0.207473	27.0958	63.2957	-38.6493
 115	1	1	0.171716	27.6677	63.7712	-37.8577
 116	1	2	-0.169975	25.7013	63.1735	-38.5438
 117	1	1	0.141932	25.2065	63.5857	-37.6682
 118	1	2	0.050656	24.955	62.4753	-39.5205
 119	1	6	0.518059	23.2909	64.7085	-29.7914
 120	1	6	0.507614	21.2925	64.5555	-30.9336
 121	1	7	-0.122906	22.0584	65.2964	-30.0436
 122	1	8	-0.496938	24.1906	65.1343	-29.0887
 123	1	8	-0.484992	20.213	64.8493	-31.4172
 124	1	2	-0.048962	29.6935	59.7954	-37.5053
 125	1	6	0.0776	29.2105	58.5276	-36.9172
 126	1	8	-0.391129	28.1918	57.9358	-37.2372
 127	1	2	0.038503	30.8488	60.1804	-36.8535
 128	1	6	0.061082	31.152	59.1639	-35.8087
 129	1	7	0.459351	30.1254	58.2201	-35.9101
 130	1	8	-0.403808	32.0778	59.1998	-35.014
 131	1	2	-0.02278	29.1094	60.5826	-38.4978
 132	1	2	-0.06542	31.5006	61.3789	-37.1784
 133	1	2	0.157218	29.7311	61.8065	-38.828
 134	1	1	0.144625	28.1835	60.2642	-38.9669
 135	1	2	-0.259423	30.927	62.1939	-38.1826
 136	1	3	-0.32062	29.1353	62.6625	-39.7266
 137	1	1	0.165981	32.4036	61.6752	-36.6486
 138	1	1	0.168674	31.3857	63.1439	-38.443
 139	1	1	0.207625	30.2928	58.2156	-33.2083
 140	1	2	-0.428502	30.0285	57.2509	-33.6356
 141	1	2	-0.035773	29.7404	56.1738	-32.778
 142	1	1	0.142536	29.7755	56.3193	-31.7001
 143	1	2	0.020215	29.3731	54.9214	-33.3052
 144	1	2	-0.058677	29.3287	54.7546	-34.7009
 145	1	1	0.147375	29.0416	53.7947	-35.1259
 146	1	2	-0.40884	29.6189	55.8321	-35.554
 147	1	1	0.20403	29.5372	55.6915	-36.6294
 148	1	2	0.301824	29.9552	57.1009	-35.0367
 149	1	2	-0.079086	27.9272	52.6303	-30.8236
 150	1	2	-0.121043	27.1051	52.1853	-29.7809
 151	1	1	0.148865	26.4754	52.8817	-29.2339
 152	1	2	0.229196	27.1048	50.8063	-29.483
 153	1	3	-0.312503	26.28	50.3044	-28.5054
 154	1	1	0.177824	29.3818	49.7097	-31.8302
 155	1	2	-0.142744	28.753	50.3852	-31.252
 156	1	2	-0.093344	28.7224	51.7571	-31.5412
 157	1	1	0.162888	25.1172	50.7774	-26.2077
 158	1	1	0.147794	22.8088	51.6221	-25.8875
 159	1	2	-0.172056	24.4778	50.9543	-27.0673
 160	1	2	-0.198933	23.1652	51.4299	-26.8951
 161	1	2	0.236899	24.9816	50.7281	-28.3534
 162	1	2	0.029337	22.3282	51.6783	-28.0081
 163	1	4	0.180684	20.904	52.2437	-27.8024
 164	1	2	-0.223565	24.163	50.9596	-29.4694
 165	1	2	-0.141841	22.8538	51.4399	-29.3
 166	1	1	0.17153	24.5466	50.7768	-30.4685
 167	1	1	0.139148	22.2618	51.6321	-30.1904
 168	1	2	-0.185386	27.9315	49.9168	-30.2036
 169	1	1	0.155741	27.9132	48.8596	-29.9545
 170	1	4	-0.198622	21.0368	53.6995	-27.2748
 171	1	4	-0.188008	20.1539	51.4444	-26.696
 172	1	5	0.060726	21.521	53.724	-26.2905
 173	1	5	0.058265	20.0524	54.1739	-27.1705
 174	1	5	0.044015	21.6517	54.3113	-27.9469
 175	1	5	0.049647	20.5643	51.6388	-25.6979
 176	1	5	0.045128	20.2181	50.3627	-26.8643
 177	1	5	0.061555	19.0923	51.7223	-26.669
 178	1	1	0.151962	20.1923	54.2944	-29.6311
 179	1	2	-0.211106	19.8108	53.3171	-29.9093
 180	1	2	-0.169243	19.0395	53.2205	-31.0828
 181	1	1	0.166678	18.8222	54.1049	-31.6747
 182	1	2	0.259195	18.5194	51.9852	-31.485
 183	1	2	-0.207473	18.8039	50.8357	-30.7347
 184	1	1	0.171716	18.4084	49.8762	-31.0556
 185	1	2	-0.169975	19.5773	50.9293	-29.5647
 186	1	1	0.141932	19.7878	50.0211	-29.0072
 187	1	2	0.050656	20.0714	52.1751	-29.1114
 188	1	6	0.518059	29.4265	52.5381	-32.5946
 189	1	6	0.507614	28.1003	53.9917	-31.3924
 190	1	7	-0.122906	28.9979	53.8517	-32.4434
 191	1	8	-0.496938	30.1794	52.0864	-33.4399
 192	1	8	-0.484992	27.5268	55.0021	-31.0226
 193	1	2	-0.048962	14.4277	50.9226	-31.1692
 194	1	6	0.0776	13.5092	50.8109	-30.0156
 195	1	8	-0.391129	13.7149	51.2695	-28.9032
 196	1	2	0.038503	13.8484	50.3035	-32.2592
 197	1	6	0.061082	12.5285	49.7585	-31.8399
 198	1	7	0.459351	12.4082	50.0887	-30.4854
 199	1	8	-0.403808	11.7563	49.1281	-32.5447
 200	1	2	-0.02278	15.6986	51.4983	-31.2343
 201	1	2	-0.06542	14.5089	50.241	-33.4939
 202	1	2	0.157218	16.399	51.4208	-32.4578
 203	1	1	0.144625	16.1303	51.9688	-30.3556
 204	1	2	-0.259423	15.7994	50.8123	-33.5833
 205	1	3	-0.32062	17.6784	51.9169	-32.5692
 206	1	1	0.165981	14.0398	49.7513	-34.3448
 207	1	1	0.168674	16.3508	50.7709	-34.5185
 208	1	1	0.207625	9.76635	50.0742	-31.1473
 209	1	2	-0.428502	9.96643	49.792	-30.1159
 210	1	2	-0.035773	8.88301	49.5136	-29.2609
 211	1	1	0.142536	7.86759	49.5923	-29.644
 212	1	2	0.020215	9.10285	49.1767	-27.9103
 213	1	2	-0.058677	10.4293	49.0822	-27.4495
 214	1	1	0.147375	10.6348	48.8346	-26.4105
 215	1	2	-0.40884	11.5063	49.3386	-28.3115
 216	1	1	0.20403	12.5166	49.2758	-27.9143
 217	1	2	0.301824	11.2981	49.7282	-29.6516
 218	1	2	-0.079086	6.79463	48.3969	-25.1502
 219	1	2	-0.121043	6.37072	47.8754	-23.9213
 220	1	1	0.148865	6.93792	47.0999	-23.4146
 221	1	2	0.229196	5.21302	48.4253	-23.339
 222	1	3	-0.312503	4.82949	48.0213	-22.0866
 223	1	1	0.177824	4.43002	50.7941	-25.7183
 224	1	2	-0.142744	4.9461	49.9738	-25.2212
 225	1	2	-0.093344	6.11318	49.4246	-25.7727
 226	1	1	0.162888	4.86133	46.5804	-19.9089
 227	1	1	0.147794	6.18095	47.0515	-17.8536
 228	1	2	-0.172056	5.50945	47.4505	-19.8641
 229	1	2	-0.198933	6.25993	47.7226	-18.7056
 230	1	2	0.236899	5.58631	48.3033	-20.9722
 231	1	2	0.029337	7.09595	48.8592	-18.6299
 232	1	4	0.180684	7.84854	49.1543	-17.3125
 233	1	2	-0.223565	6.41468	49.4376	-20.9136
 234	1	2	-0.141841	7.16055	49.7142	-19.7545
 235	1	1	0.17153	6.46812	50.1177	-21.7582
 236	1	1	0.139148	7.77376	50.6095	-19.7432
 237	1	2	-0.185386	4.49579	49.4542	-23.9882
 238	1	1	0.155741	3.61373	49.8692	-23.5087
 239	1	4	-0.198622	6.77485	49.5841	-16.273
 240	1	4	-0.188008	8.85091	50.335	-17.4238
 241	1	5	0.060726	6.17467	50.4177	-16.6599
 242	1	5	0.058265	7.23184	49.9187	-15.3332
 243	1	5	0.044015	6.08501	48.7612	-16.046
 244	1	5	0.049647	8.33699	51.2803	-17.6406
 245	1	5	0.045128	9.59406	50.156	-18.2109
 246	1	5	0.061555	9.39497	50.4675	-16.4796
 247	1	1	0.151962	7.95244	47.8416	-14.8114
 248	1	2	-0.211106	8.58554	47.3867	-15.5659
 249	1	2	-0.169243	9.33388	46.2551	-15.2041
 250	1	1	0.166678	9.26341	45.8502	-14.1991
 251	1	2	0.259195	10.1727	45.6238	-16.1293
 252	1	2	-0.207473	10.2673	46.1315	-17.4356
 253	1	1	0.171716	10.9075	45.6429	-18.1636
 254	1	2	-0.169975	9.51466	47.267	-17.8021
 255	1	1	0.141932	9.59204	47.6489	-18.8176
 256	1	2	0.050656	8.65475	47.9072	-16.878
 257	1	6	0.518059	6.88625	49.8213	-26.9804
 258	1	6	0.507614	8.00838	48.0921	-25.9496
 259	1	7	-0.122906	8.01369	49.0047	-27.0011
 260	1	8	-0.496938	6.61109	50.7452	-27.7264
 261	1	8	-0.484992	8.84808	47.2537	-25.6699
 262	1	2	-0.048962	12.5514	41.604	-17.0877
 263	1	6	0.0776	12.5793	40.1396	-17.3176
 264	1	8	-0.391129	11.6256	39.3817	-17.2513
 265	1	2	0.038503	13.8346	42.0986	-17.2377
 266	1	6	0.061082	14.7411	40.9588	-17.5484
 267	1	7	0.459351	13.9171	39.8328	-17.5563
 268	1	8	-0.403808	15.9536	41.0104	-17.6766
 269	1	2	-0.02278	11.5009	42.4126	-16.6415
 270	1	2	-0.06542	14.1293	43.4474	-16.9916
 271	1	2	0.157218	11.7778	43.764	-16.3637
 272	1	1	0.144625	10.5199	41.9917	-16.443
 273	1	2	-0.259423	13.0795	44.2849	-16.5474
 274	1	3	-0.32062	10.8224	44.4913	-15.7017
 275	1	1	0.165981	15.1512	43.8106	-17.0823
 276	1	1	0.168674	13.2855	45.3158	-16.2729
 277	1	1	0.207625	13.3085	38.1038	-19.5314
 278	1	2	-0.428502	13.9664	37.6878	-18.7726
 279	1	2	-0.035773	14.3577	36.34	-18.8603
 280	1	1	0.142536	14.0146	35.73	-19.6934
 281	1	2	0.020215	15.1631	35.7661	-17.86
 282	1	2	-0.058677	15.5935	36.5621	-16.7831
 283	1	1	0.147375	16.205	36.1238	-15.9968
 284	1	2	-0.40884	15.2139	37.9152	-16.7066
 285	1	1	0.20403	15.5449	38.5168	-15.8636
 286	1	2	0.301824	14.3854	38.4916	-17.6927
 287	1	2	-0.079086	15.5491	32.1373	-17.4528
 288	1	2	-0.121043	15.3703	30.8581	-16.9086
 289	1	1	0.148865	14.8959	30.7237	-15.9406
 290	1	2	0.229196	15.7934	29.7464	-17.6625
 291	1	3	-0.312503	15.5691	28.4969	-17.1303
 292	1	1	0.177824	16.9986	31.3911	-20.451
 293	1	2	-0.142744	16.5601	31.2303	-19.4672
 294	1	2	-0.093344	16.1192	32.3173	-18.6987
 295	1	1	0.162888	13.9536	26.9317	-18.4907
 296	1	1	0.147794	14.5521	24.7591	-19.5088
 297	1	2	-0.172056	14.969	26.5554	-18.4085
 298	1	2	-0.198933	15.3181	25.3153	-18.975
 299	1	2	0.236899	15.9275	27.314	-17.7249
 300	1	2	0.029337	16.6301	24.7997	-18.8425
 301	1	4	0.180684	17.0366	23.4342	-19.4497
 302	1	2	-0.223565	17.239	26.838	-17.6113
 303	1	2	-0.141841	17.5879	25.5949	-18.1694
 304	1	1	0.17153	17.9764	27.4302	-17.0778
 305	1	1	0.139148	18.6135	25.2524	-18.0712
 306	1	2	-0.185386	16.3919	29.9328	-18.9344
 307	1	1	0.155741	16.7091	29.0736	-19.5179
 308	1	4	-0.198622	17.8994	22.6156	-18.4457
 309	1	4	-0.188008	17.9406	23.7211	-20.6806
 310	1	5	0.060726	18.8936	23.0547	-18.3014
 311	1	5	0.058265	18.0492	21.5914	-18.811
 312	1	5	0.044015	17.4208	22.5551	-17.4607
 313	1	5	0.049647	17.4152	24.3388	-21.4199
 314	1	5	0.045128	18.2607	22.7896	-21.1653
 315	1	5	0.061555	18.8463	24.2675	-20.3894
 316	1	1	0.151962	15.1659	22.3379	-17.7466
 317	1	2	-0.211106	14.952	22.0903	-18.7833
 318	1	2	-0.169243	13.8166	21.3099	-19.0759
 319	1	1	0.166678	13.1702	20.9652	-18.2741
 320	1	2	0.259195	13.5055	20.9885	-20.4072
 321	1	2	-0.207473	14.3184	21.4736	-21.4377
 322	1	1	0.171716	14.06	21.2397	-22.4661
 323	1	2	-0.169975	15.4524	22.2539	-21.1481
 324	1	1	0.141932	16.0503	22.6067	-21.982
 325	1	2	0.050656	15.7966	22.5719	-19.8118
 326	1	6	0.518059	16.0916	33.7732	-19.0109
 327	1	6	0.507614	15.154	33.4716	-16.9265
 328	1	7	-0.122906	15.4894	34.3829	-17.9186
 329	1	8	-0.496938	16.4604	34.2946	-20.0487
 330	1	8	-0.484992	14.6108	33.6938	-15.8586
 331	1	2	-0.048962	9.94924	17.9769	-19.2468
 332	1	6	0.0776	8.53929	17.5839	-18.9978
 333	1	8	-0.391129	7.55519	18.1486	-19.4471
 334	1	2	0.038503	10.7732	17.0942	-18.5756
 335	1	6	0.061082	9.92493	16.1058	-17.8623
 336	1	7	0.459351	8.60557	16.4741	-18.1479
 337	1	8	-0.403808	10.3318	15.2124	-17.1362
 338	1	2	-0.02278	10.4695	19.0502	-19.9812
 339	1	2	-0.06542	12.1675	17.2232	-18.6089
 340	1	2	0.157218	11.8686	19.2153	-20.0133
 341	1	1	0.144625	9.81286	19.7424	-20.4998
 342	1	2	-0.259423	12.7145	18.2977	-19.3443
 343	1	3	-0.32062	12.3876	20.2592	-20.7429
 344	1	1	0.165981	12.7976	16.5124	-18.078
 345	1	1	0.168674	13.793	18.4171	-19.4016
 346	1	1	0.207625	8.24591	13.821	-17.6791
 347	1	2	-0.428502	7.41293	14.442	-17.3573
 348	1	2	-0.035773	6.33096	13.8353	-16.6932
 349	1	1	0.142536	6.34813	12.7612	-16.5203
 350	1	2	0.020215	5.24886	14.6083	-16.2292
 351	1	2	-0.058677	5.26351	15.9953	-16.47
 352	1	1	0.147375	4.43797	16.6171	-16.1295
 353	1	2	-0.40884	6.35562	16.5993	-17.1166
 354	1	1	0.20403	6.34702	17.6775	-17.2588
 355	1	2	0.301824	7.45824	15.8386	-17.5623
 356	1	2	-0.079086	2.57528	13.6294	-13.886
 357	1	2	-0.121043	1.69591	13.7112	-12.7972
 358	1	1	0.148865	1.67937	14.5848	-12.1518
 359	1	2	0.229196	0.838827	12.6207	-12.5608
 360	1	3	-0.312503	-0.0357267	12.6725	-11.5046
 361	1	1	0.177824	1.78342	10.5658	-15.1671
 362	1	2	-0.142744	1.7522	11.4287	-14.5034
 363	1	2	-0.093344	2.5977	12.5273	-14.7186
 364	1	1	0.162888	-2.11169	11.7133	-10.2391
 365	1	1	0.147794	-2.05692	10.1185	-8.32917
 366	1	2	-0.172056	-1.16147	11.3601	-9.84956
 367	1	2	-0.198933	-1.12284	10.4601	-8.76869
 368	1	2	0.236899	0.0274365	11.7982	-10.4467
 369	1	2	0.029337	0.107636	9.99223	-8.25535
 370	1	4	0.180684	0.102335	8.95535	-7.10582
 371	1	2	-0.223565	1.25939	11.3553	-9.9414
 372	1	2	-0.141841	1.30018	10.4606	-8.85733
 373	1	1	0.17153	2.18477	11.7064	-10.388
 374	1	1	0.139148	2.27311	10.1348	-8.50429
 375	1	2	-0.185386	0.867532	11.4858	-13.404
 376	1	1	0.155741	0.193208	10.6579	-13.2039
 377	1	4	-0.198622	1.52145	8.6502	-6.55538
 378	1	4	-0.188008	-0.444735	7.63151	-7.7092
 379	1	5	0.060726	1.46845	7.93862	-5.72138
 380	1	5	0.058265	2.00239	9.56186	-6.17827
 381	1	5	0.044015	2.16662	8.20601	-7.32393
 382	1	5	0.049647	-1.51049	7.71703	-7.95584
 383	1	5	0.045128	-0.317138	6.78444	-7.0242
 384	1	5	0.061555	0.0912706	7.38091	-8.63383
 385	1	1	0.151962	-0.0953509	11.5231	-6.09696
 386	1	2	-0.211106	-0.689216	10.816	-5.52225
 387	1	2	-0.169243	-1.38304	11.273	-4.38476
 388	1	1	0.166678	-1.33107	12.3175	-4.09192
 389	1	2	0.259195	-2.13427	10.3838	-3.60407
 390	1	2	-0.207473	-2.18273	9.02687	-3.96672
 391	1	1	0.171716	-2.7355	8.32078	-3.35482
 392	1	2	-0.169975	-1.49315	8.56931	-5.10397
 393	1	1	0.141932	-1.53413	7.50991	-5.33432
 394	1	2	0.050656	-0.738377	9.45656	-5.90663
 395	1	6	0.518059	3.62662	12.7652	-15.7689
 396	1	6	0.507614	3.59875	14.5927	-14.3664
 397	1	7	-0.122906	4.18206	14.0104	-15.4885
 398	1	8	-0.496938	3.91341	11.9977	-16.6713
 399	1	8	-0.484992	3.87455	15.6555	-13.837
 400	1	2	-0.048962	-4.77505	9.117	0.0548995
 401	1	6	0.0776	-4.92354	8.51296	1.40612
 402	1	8	-0.391129	-4.1035	8.55925	2.30817
 403	1	2	0.038503	-5.9125	8.82656	-0.6767
 404	1	6	0.061082	-6.82841	8.02389	0.169902
 405	1	7	0.459351	-6.16077	7.86471	1.38583
 406	1	8	-0.403808	-7.91293	7.5788	-0.170469
 407	1	2	-0.02278	-3.70263	9.82017	-0.512253
 408	1	2	-0.06542	-6.05571	9.23138	-2.00905
 409	1	2	0.157218	-3.81427	10.2156	-1.86152
 410	1	1	0.144625	-2.80229	10.0254	0.0593436
 411	1	2	-0.259423	-4.98667	9.9362	-2.6008
 412	1	3	-0.32062	-2.76181	10.8556	-2.4704
 413	1	1	0.165981	-6.95957	8.98853	-2.56416
 414	1	1	0.168674	-5.05504	10.2583	-3.63645
 415	1	1	0.207625	-6.29236	8.52762	4.01754
 416	1	2	-0.428502	-6.69847	7.54492	3.78874
 417	1	2	-0.035773	-7.24672	6.76642	4.82637
 418	1	1	0.142536	-7.27143	7.16259	5.83967
 419	1	2	0.020215	-7.77703	5.48927	4.55814
 420	1	2	-0.058677	-7.7241	4.99648	3.24139
 421	1	1	0.147375	-8.13427	4.01568	3.00916
 422	1	2	-0.40884	-7.17801	5.7765	2.20948
 423	1	1	0.20403	-7.18488	5.38687	1.19414
 424	1	2	0.301824	-6.67045	7.06818	2.4605
 425	1	2	-0.079086	-8.90799	3.73816	7.60257
 426	1	2	-0.121043	-8.94352	3.3031	8.93691
 427	1	1	0.148865	-8.14795	3.55671	9.63169
 428	1	2	0.229196	-10.0567	2.54825	9.35831
 429	1	3	-0.312503	-10.127	2.14964	10.6754
 430	1	1	0.177824	-11.8282	2.44569	6.39386
 431	1	2	-0.142744	-11.0352	2.67227	7.10513
 432	1	2	-0.093344	-9.92557	3.43189	6.71961
 433	1	1	0.162888	-11.1494	-0.263371	10.9025
 434	1	1	0.147794	-13.4784	-0.768755	11.5953
 435	1	2	-0.172056	-11.7992	0.531988	11.2555
 436	1	2	-0.198933	-13.1213	0.2562	11.6432
 437	1	2	0.236899	-11.3343	1.85262	11.2516
 438	1	2	0.029337	-13.9935	1.29276	12.0474
 439	1	4	0.180684	-15.4613	0.947854	12.3782
 440	1	2	-0.223565	-12.1699	2.89015	11.6822
 441	1	2	-0.141841	-13.487	2.61374	12.0888
 442	1	1	0.17153	-11.803	3.91192	11.6622
 443	1	1	0.139148	-14.1092	3.44605	12.4005
 444	1	2	-0.185386	-11.0924	2.23073	8.44079
 445	1	1	0.155741	-11.9508	1.64756	8.76012
 446	1	4	-0.198622	-16.3042	2.18371	12.8194
 447	1	4	-0.188008	-15.4869	0.00190211	13.6137
 448	1	5	0.060726	-16.2958	2.9889	12.077
 449	1	5	0.058265	-15.9284	2.60602	13.7602
 450	1	5	0.044015	-17.3521	1.89857	12.9806
 451	1	5	0.049647	-15.1054	0.516023	14.5052
 452	1	5	0.045128	-14.8638	-0.888414	13.4741
 453	1	5	0.061555	-16.5107	-0.329164	13.8324
 454	1	1	0.151962	-16.411	2.1946	10.0791
 455	1	2	-0.211106	-16.5576	1.1198	10.0531
 456	1	2	-0.169243	-17.2436	0.567219	8.95569
 457	1	1	0.166678	-17.6457	1.20706	8.17561
 458	1	2	0.259195	-17.4586	-0.81302	8.88459
 459	1	2	-0.207473	-16.9198	-1.64821	9.87519
 460	1	1	0.171716	-17.0665	-2.72222	9.80536
 461	1	2	-0.169975	-16.2647	-1.09463	10.9893
 462	1	1	0.141932	-15.9061	-1.77235	11.7568
 463	1	2	0.050656	-16.1088	0.306454	11.1218
 464	1	6	0.518059	-9.61242	4.05767	5.41121
 465	1	6	0.507614	-7.91001	4.57261	6.87689
 466	1	7	-0.122906	-8.4042	4.72247	5.58482
 467	1	8	-0.496938	-10.308	4.00105	4.41179
 468	1	8	-0.484992	-6.88808	5.04109	7.34755
 469	1	2	-0.048962	-21.0276	-2.93571	9.75298
 470	1	6	0.0776	-21.6594	-3.28208	11.0447
 471	1	8	-0.391129	-21.3393	-2.85141	12.1404
 472	1	2	0.038503	-21.6067	-3.69534	8.7546
 473	1	6	0.061082	-22.6558	-4.5526	9.37294
 474	1	7	0.459351	-22.5943	-4.26495	10.7364
 475	1	8	-0.403808	-23.3331	-5.39506	8.80728
 476	1	2	-0.02278	-19.9444	-2.09224	9.5059
 477	1	2	-0.06542	-21.1283	-3.64585	7.43792
 478	1	2	0.157218	-19.4093	-2.05827	8.19776
 479	1	1	0.144625	-19.5136	-1.5239	10.3242
 480	1	2	-0.259423	-20.0142	-2.81596	7.16889
 481	1	3	-0.32062	-18.2781	-1.32295	7.90431
 482	1	1	0.165981	-21.5829	-4.26171	6.66445
 483	1	1	0.168674	-19.5946	-2.77529	6.16718
 484	1	1	0.207625	-25.1523	-3.97399	11.612
 485	1	2	-0.428502	-24.587	-4.74399	12.1299
 486	1	2	-0.035773	-25.1812	-5.44244	13.1999
 487	1	1	0.142536	-26.1989	-5.20626	13.5044
 488	1	2	0.020215	-24.4548	-6.42888	13.8946
 489	1	2	-0.058677	-23.1327	-6.70918	13.5071
 490	1	1	0.147375	-22.5572	-7.46233	14.0415
 491	1	2	-0.40884	-22.5403	-6.00689	12.4472
 492	1	1	0.20403	-21.5084	-6.21823	12.1799
 493	1	2	0.301824	-23.2564	-5.01552	11.7484
 494	1	2	-0.079086	-25.4533	-8.75851	16.5463
 495	1	2	-0.121043	-25.529	-9.96105	17.2625
 496	1	1	0.148865	-25.2321	-10.9038	16.8115
 497	1	2	0.229196	-25.9669	-9.90479	18.5983
 498	1	3	-0.312503	-26.0181	-11.0651	19.3304
 499	1	1	0.177824	-26.5192	-6.50936	18.8835
 500	1	2	-0.142744	-26.2574	-7.47063	18.4438
 501	1	2	-0.093344	-25.8079	-7.55038	17.1179
 502	1	1	0.162888	-23.6539	-10.0779	20.0675
 503	1	1	0.147794	-22.6336	-10.3119	22.2922
 504	1	2	-0.172056	-24.1867	-10.6145	20.8469
 505	1	2	-0.198933	-23.6133	-10.7504	22.1234
 506	1	2	0.236899	-25.4388	-11.1844	20.5704
 507	1	2	0.029337	-24.2903	-11.4408	23.1581
 508	1	4	0.180684	-23.6773	-11.5876	24.5734
 509	1	2	-0.223565	-26.0996	-11.9134	21.5655
 510	1	2	-0.141841	-25.5337	-12.0391	22.8474
 511	1	1	0.17153	-27.0541	-12.3769	21.3361
 512	1	1	0.139148	-26.0676	-12.6155	23.5967
 513	1	2	-0.185386	-26.3331	-8.66993	19.1848
 514	1	1	0.155741	-26.6686	-8.64883	20.2179
 515	1	4	-0.198622	-23.1881	-13.0526	24.7316
 516	1	4	-0.188008	-24.7527	-11.355	25.6744
 517	1	5	0.060726	-24.0207	-13.7604	24.632
 518	1	5	0.058265	-22.7338	-13.2153	25.7175
 519	1	5	0.044015	-22.4519	-13.3086	23.9592
 520	1	5	0.049647	-25.2962	-10.4158	25.5155
 521	1	5	0.045128	-24.2865	-11.3102	26.6673
 522	1	5	0.061555	-25.4942	-12.1622	25.7028
 523	1	1	0.151962	-20.8761	-11.9571	24.9353
 524	1	2	-0.211106	-21.1812	-10.9155	24.9364
 525	1	2	-0.169243	-20.1802	-9.93261	25.0642
 526	1	1	0.166678	-19.1376	-10.219	25.1694
 527	1	2	0.259195	-20.5152	-8.57263	25.0526
 528	1	2	-0.207473	-21.8619	-8.19714	24.9129
 529	1	1	0.171716	-22.1327	-7.14616	24.882
 530	1	2	-0.169975	-22.8616	-9.17586	24.7886
 531	1	1	0.141932	-23.8915	-8.85733	24.6514
 532	1	2	0.050656	-22.5431	-10.5526	24.7931
 533	1	6	0.518059	-25.5508	-6.47537	16.1197
 534	1	6	0.507614	-24.9515	-8.49137	15.1737
 535	1	7	-0.122906	-25.0131	-7.11354	15.0097
 536	1	8	-0.496938	-25.7167	-5.27994	16.2895
 537	1	8	-0.484992	-24.4908	-9.31713	14.4049
 538	1	2	-0.048962	-20.6093	-5.18024	27.6476
 539	1	6	0.0776	-21.242	-4.89965	28.9528
 540	1	8	-0.391129	-21.457	-5.71802	29.8325
 541	1	2	0.038503	-20.5724	-4.00992	26.9111
 542	1	6	0.061082	-21.1842	-2.9245	27.7278
 543	1	7	0.459351	-21.5842	-3.54847	28.9106
 544	1	8	-0.403808	-21.3721	-1.77064	27.3775
 545	1	2	-0.02278	-20.2075	-6.40568	27.1118
 546	1	2	-0.06542	-20.1064	-3.99956	25.5886
 547	1	2	0.157218	-19.7629	-6.42216	25.7769
 548	1	1	0.144625	-20.2962	-7.32237	27.6876
 549	1	2	-0.259423	-19.6973	-5.22929	25.0229
 550	1	3	-0.32062	-19.5211	-7.62602	25.1659
 551	1	1	0.165981	-20.1073	-3.07723	25.0112
 552	1	1	0.168674	-19.3718	-5.27401	23.9869
 553	1	1	0.207625	-23.8756	-4.49194	29.8991
 554	1	2	-0.428502	-23.5509	-3.56689	30.3692
 555	1	2	-0.035773	-24.2849	-3.05993	31.4489
 556	1	1	0.142536	-25.1646	-3.60041	31.7804
 557	1	2	0.020215	-23.8686	-1.89488	32.1183
 558	1	2	-0.058677	-22.7168	-1.22613	31.6538
 559	1	1	0.147375	-22.3742	-0.32262	32.1544
 560	1	2	-0.40884	-21.9759	-1.74185	30.5714
 561	1	1	0.20403	-21.0765	-1.22621	30.2428
 562	1	2	0.301824	-22.3703	-2.93545	29.9324
 563	1	2	-0.079086	-25.0029	-0.840986	35.4587
 564	1	2	-0.121043	-24.9203	-0.460589	36.8049
 565	1	1	0.148865	-23.9611	-0.203076	37.2454
 566	1	2	0.229196	-26.1165	-0.420173	37.5553
 567	1	3	-0.312503	-26.1293	-0.0324933	38.8754
 568	1	1	0.177824	-28.3508	-1.40459	35.1167
 569	1	2	-0.142744	-27.4098	-1.13453	35.593
 570	1	2	-0.093344	-26.2096	-1.16123	34.87
 571	1	1	0.162888	-25.2018	2.10659	40.07
 572	1	1	0.147794	-23.1774	2.2083	41.515
 573	1	2	-0.172056	-24.6193	1.20981	40.2584
 574	1	2	-0.198933	-23.4754	1.25976	41.0749
 575	1	2	0.236899	-25.0131	0.000475998	39.6732
 576	1	2	0.029337	-22.7097	0.0990065	41.3251
 577	1	4	0.180684	-21.4767	0.198229	42.2557
 578	1	2	-0.223565	-24.2679	-1.16306	39.9091
 579	1	2	-0.141841	-23.1241	-1.11481	40.7258
 580	1	1	0.17153	-24.5796	-2.10015	39.4595
 581	1	1	0.139148	-22.5643	-2.03206	40.8761
 582	1	2	-0.185386	-27.3488	-0.753118	36.9502
 583	1	1	0.155741	-28.2564	-0.712513	37.5454
 584	1	4	-0.198622	-20.6819	-1.12866	42.3588
 585	1	4	-0.188008	-22.0089	0.518115	43.6802
 586	1	5	0.060726	-21.2932	-1.93785	42.7759
 587	1	5	0.058265	-19.804	-1.00773	43.0069
 588	1	5	0.044015	-20.3143	-1.4361	41.372
 589	1	5	0.049647	-22.4288	1.53012	43.7318
 590	1	5	0.045128	-21.2214	0.434543	44.4391
 591	1	5	0.061555	-22.8017	-0.18772	43.9598
 592	1	1	0.151962	-20.8178	0.766672	39.6413
 593	1	2	-0.211106	-20.2553	1.38032	40.3423
 594	1	2	-0.169243	-19.2548	2.23392	39.846
 595	1	1	0.166678	-19.0531	2.28091	38.7802
 596	1	2	0.259195	-18.4597	2.97479	40.73
 597	1	2	-0.207473	-18.6797	2.88322	42.1102
 598	1	1	0.171716	-18.0292	3.42499	42.7901
 599	1	2	-0.169975	-19.6797	2.02793	42.6086
 600	1	1	0.141932	-19.7824	1.92876	43.6841
 601	1	2	0.050656	-20.4809	1.25768	41.7322
 602	1	6	0.518059	-25.9448	-1.54352	33.4575
 603	1	6	0.507614	-23.9313	-1.02051	34.4448
 604	1	7	-0.122906	-24.5655	-1.45718	33.2865
 605	1	8	-0.496938	-26.7844	-1.9146	32.6543
 606	1	8	-0.484992	-22.7365	-0.884665	34.6463
 607	1	2	-0.048962	-14.8285	0.973632	40.0295
 608	1	6	0.0776	-14.333	-0.355	40.4438
 609	1	8	-0.391129	-14.835	-1.07111	41.2967
 610	1	2	0.038503	-14.0102	1.46471	39.0302
 611	1	6	0.061082	-12.9498	0.4543	38.7578
 612	1	7	0.459351	-13.2178	-0.595671	39.6401
 613	1	8	-0.403808	-12.0616	0.541409	37.9248
 614	1	2	-0.02278	-15.9472	1.67332	40.4829
 615	1	2	-0.06542	-14.2621	2.70888	38.4352
 616	1	2	0.157218	-16.2334	2.92271	39.8892
 617	1	1	0.144625	-16.5763	1.24229	41.2571
 618	1	2	-0.259423	-15.3879	3.44021	38.8816
 619	1	3	-0.32062	-17.3536	3.63523	40.2563
 620	1	1	0.165981	-13.6139	3.08295	37.6454
 621	1	1	0.168674	-15.6264	4.40121	38.4347
 622	1	1	0.207625	-12.3457	-2.13823	37.5714
 623	1	2	-0.428502	-12.1446	-2.55619	38.5557
 624	1	2	-0.035773	-11.5858	-3.84561	38.6572
 625	1	1	0.142536	-11.3672	-4.41212	37.7538
 626	1	2	0.020215	-11.3664	-4.42736	39.9211
 627	1	2	-0.058677	-11.6691	-3.68171	41.0745
 628	1	1	0.147375	-11.5294	-4.11511	42.0625
 629	1	2	-0.40884	-12.2053	-2.39296	40.9692
 630	1	1	0.20403	-12.4646	-1.85864	41.88
 631	1	2	0.301824	-12.4886	-1.82285	39.7121
 632	1	2	-0.079086	-10.163	-7.68944	41.0595
 633	1	2	-0.121043	-9.64986	-8.60958	41.979
 634	1	1	0.148865	-9.04039	-8.27706	42.8142
 635	1	2	0.229196	-10.0105	-9.96302	41.8304
 636	1	3	-0.312503	-9.63606	-10.8728	42.7885
 637	1	1	0.177824	-12.0461	-9.71144	39.0573
 638	1	2	-0.142744	-11.3566	-9.42374	39.8498
 639	1	2	-0.093344	-11.005	-8.07777	40.0356
 640	1	1	0.162888	-7.78547	-10.9323	44.6547
 641	1	1	0.147794	-8.08606	-10.2751	47.0195
 642	1	2	-0.172056	-8.76387	-10.6269	45.0136
 643	1	2	-0.198933	-8.94477	-10.2438	46.3564
 644	1	2	0.236899	-9.83932	-10.5874	44.117
 645	1	2	0.029337	-10.2116	-9.81502	46.821
 646	1	4	0.180684	-10.4647	-9.34948	48.2733