pySIMM System Object

2624 atoms
2889 bonds
4864 angles
7520 dihedrals
912 impropers

9 atom types
11 bond types
18 angle types
9 dihedral types
4 improper types

-208.816381 208.816381 xlo xhi
-208.816381 208.816381 ylo yhi
-208.816381 208.816381 zlo zhi

Masses

   1	1.008	# ha
   2	12.01	# ca
   3	16.0	# os
   4	12.01	# c3
   5	1.008	# hc
   6	12.01	# c
   7	14.01	# n
   8	16.0	# o
   9	1.008	# hn

Pair Coeffs

   1	0.015	2.59964245953351	# ha
   2	0.086	3.3996695084235347	# ca
   3	0.17	3.0000123434657784	# os
   4	0.1094	3.3996695084235347	# c3
   5	0.0157	2.649532787749369	# hc
   6	0.086	3.3996695084235347	# c
   7	0.17	3.249998523775958	# n
   8	0.21	2.959921901149463	# o
   9	0.0157	1.069078461768407	# hn

Bond Coeffs

   1	461.1	1.3984	# ca,ca
   2	427.6	1.3789	# c,n
   3	345.9	1.4906	# c,ca
   4	300.9	1.5375	# c3,c3
   5	345.8	1.086	# ca,ha
   6	384.2	1.4121	# ca,n
   7	321.0	1.5156	# c3,ca
   8	330.6	1.0969	# c3,hc
   9	637.7	1.2183	# c,o
  10	376.6	1.3696	# ca,os
  11	403.2	1.0129	# hn,n

Angle Coeffs

   1	46.34	109.8	# c3,c3,hc
   2	74.22	123.05	# n,c,o
   3	48.33	117.55	# c,n,hn
   4	63.56	112.24	# ca,c3,ca
   5	63.48	119.89	# ca,os,ca
   6	62.86	111.51	# c3,c3,c3
   7	66.62	120.02	# ca,ca,ca
   8	64.28	120.33	# c,ca,ca
   9	63.15	112.07	# c3,c3,ca
  10	39.4	107.58	# hc,c3,hc
  11	48.18	119.88	# ca,ca,ha
  12	63.53	120.77	# c3,ca,ca
  13	63.74	127.08	# c,n,c
  14	67.68	115.25	# ca,c,n
  15	63.82	123.71	# c,n,ca
  16	68.72	122.6	# ca,c,o
  17	67.87	120.19	# ca,ca,n
  18	69.58	119.2	# ca,ca,os

Dihedral Coeffs

   1	1	3.625	2	180	# X,ca,ca,X
   2	1	1.0	2	180	# X,c,ca,X
   3	1	0.0	2	0	# X,c3,ca,X
   4	1	0.15555555555555556	3	0	# X,c3,c3,X
   5	1	0.9	2	180	# X,ca,os,X
   6	1	2.5	2	180	# X,c,n,X
   7	1	0.45	2	180	# X,ca,n,X
   8	1	0.16	3	0	# hc,c3,c3,c3
   9	2	2.5	2	180	2.0	1	0	# hn,n,c,o

Improper Coeffs

   1	1.1	-1	2	# n,X,X,hn
   2	1.1	-1	2	# ca,ca,ca,c3
   3	10.5	-1	2	# c,X,X,o
   4	1.1	-1	2	# ca,X,X,ha

Atoms

   1	1	1	0.207625	-115.933	25.6292	-107.258
   2	1	2	-0.428502	-116.791	26.1928	-106.906
   3	1	2	-0.035773	-116.937	26.4806	-105.537
   4	1	1	0.142536	-116.183	26.135	-104.833
   5	1	2	0.020215	-118.055	27.2056	-105.076
   6	1	2	-0.058677	-119.019	27.6398	-106.008
   7	1	1	0.147375	-119.886	28.2056	-105.672
   8	1	2	-0.40884	-118.867	27.3477	-107.376
   9	1	1	0.20403	-119.609	27.6841	-108.092
  10	1	2	0.301824	-117.755	26.6235	-107.827
  11	1	2	-0.079086	-118.258	27.2759	-101.4
  12	1	2	-0.121043	-118.19	26.8228	-100.075
  13	1	1	0.148865	-117.912	25.7981	-99.8454
  14	1	2	0.229196	-118.486	27.7385	-99.0477
  15	1	3	-0.312503	-118.424	27.3082	-97.744
  16	1	1	0.177824	-119.211	30.5239	-100.954
  17	1	2	-0.142744	-118.926	29.5043	-100.698
  18	1	2	-0.093344	-118.613	28.5769	-101.702
  19	1	1	0.162888	-119.101	27.1098	-95.2393
  20	1	1	0.147794	-118.074	28.3001	-93.3342
  21	1	2	-0.172056	-118.283	27.8023	-95.4112
  22	1	2	-0.198933	-117.687	28.4812	-94.3321
  23	1	2	0.236899	-117.829	28.0091	-96.7206
  24	1	2	0.029337	-116.612	29.3744	-94.547
  25	1	4	0.180684	-115.917	30.1384	-93.3969
  26	1	2	-0.223565	-116.763	28.8933	-96.9496
  27	1	2	-0.141841	-116.17	29.5771	-95.874
  28	1	1	0.17153	-116.386	29.0436	-97.9566
  29	1	1	0.139148	-115.35	30.2617	-96.0747
  30	1	2	-0.185386	-118.863	29.0676	-99.3571
  31	1	1	0.155741	-119.108	29.7547	-98.5523
  32	1	4	-0.198622	-116.229	29.5483	-91.994
  33	1	4	-0.188008	-116.47	31.5887	-93.4086
  34	1	5	0.060726	-115.632	30.054	-91.2234
  35	1	5	0.058265	-115.99	28.4785	-91.9475
  36	1	5	0.044015	-117.285	29.6765	-91.7255
  37	1	5	0.049647	-116.221	32.1022	-94.3461
  38	1	5	0.045128	-116.071	32.1784	-92.573
  39	1	5	0.061555	-117.564	31.5848	-93.3163
  40	1	1	0.151962	-113.97	32.2073	-93.5007
  41	1	2	-0.211106	-113.557	31.2123	-93.6299
  42	1	2	-0.169243	-112.171	31.0905	-93.8404
  43	1	1	0.166678	-111.538	31.9728	-93.8737
  44	1	2	0.259195	-111.587	29.8283	-94.0035
  45	1	2	-0.207473	-112.393	28.6807	-93.9725
  46	1	1	0.171716	-111.944	27.7026	-94.12
  47	1	2	-0.169975	-113.779	28.8	-93.7663
  48	1	1	0.141932	-114.391	27.9013	-93.7544
  49	1	2	0.050656	-114.385	30.0652	-93.595
  50	1	6	0.518059	-118.588	28.7295	-103.182
  51	1	6	0.507614	-117.995	26.5601	-102.676
  52	1	7	-0.122906	-118.209	27.4904	-103.687
  53	1	8	-0.496938	-118.849	29.7466	-103.801
  54	1	8	-0.484992	-117.656	25.3945	-102.786
  55	1	2	-0.048962	-108.792	27.5214	-91.6514
  56	1	6	0.0776	-108.803	26.9294	-90.2912
  57	1	8	-0.391129	-109.648	27.1301	-89.4339
  58	1	2	0.038503	-107.683	27.0461	-92.3264
  59	1	6	0.061082	-106.939	26.1296	-91.4253
  60	1	7	0.459351	-107.666	26.1187	-90.2313
  61	1	8	-0.403808	-105.902	25.546	-91.6949
  62	1	2	-0.02278	-109.681	28.4258	-92.2437
  63	1	2	-0.06542	-107.395	27.4493	-93.6358
  64	1	2	0.157218	-109.418	28.8373	-93.569
  65	1	1	0.144625	-110.537	28.801	-91.6899
  66	1	2	-0.259423	-108.279	28.3591	-94.2542
  67	1	3	-0.32062	-110.232	29.738	-94.213
  68	1	1	0.165981	-106.511	27.0727	-94.1464
  69	1	1	0.168674	-108.088	28.7026	-95.2672
  70	1	1	0.207625	-107.715	26.9739	-87.6649
  71	1	2	-0.428502	-107.344	25.9583	-87.7822
  72	1	2	-0.035773	-106.944	25.2432	-86.64
  73	1	1	0.142536	-107.006	25.7179	-85.6629
  74	1	2	0.020215	-106.456	23.9279	-86.7538
  75	1	2	-0.058677	-106.387	23.3388	-88.0301
  76	1	1	0.147375	-106.011	22.3236	-88.1409
  77	1	2	-0.40884	-106.794	24.0559	-89.1697
  78	1	1	0.20403	-106.716	23.5837	-90.1466
  79	1	2	0.301824	-107.274	25.3795	-89.0676
  80	1	2	-0.079086	-105.012	22.6834	-83.6043
  81	1	2	-0.121043	-104.281	22.6857	-82.4085
  82	1	1	0.148865	-103.758	23.5764	-82.0725
  83	1	2	0.229196	-104.241	21.4982	-81.6543
  84	1	3	-0.312503	-103.505	21.491	-80.4933
  85	1	1	0.177824	-106.151	19.4667	-83.6911
  86	1	2	-0.142744	-105.637	20.3527	-83.3213
  87	1	2	-0.093344	-105.672	21.5531	-84.0456
  88	1	1	0.162888	-105.979	21.0488	-79.5518
  89	1	1	0.147794	-106.521	19.8442	-77.4757
  90	1	2	-0.172056	-105.176	20.6401	-78.945
  91	1	2	-0.198933	-105.478	19.9571	-77.752
  92	1	2	0.236899	-103.841	20.8075	-79.3484
  93	1	2	0.029337	-104.445	19.4443	-76.9314
  94	1	4	0.180684	-104.713	18.7022	-75.6016
  95	1	2	-0.223565	-102.81	20.3109	-78.5423
  96	1	2	-0.141841	-103.109	19.6328	-77.3479
  97	1	1	0.17153	-101.779	20.4591	-78.8492
  98	1	1	0.139148	-102.293	19.2583	-76.7344
  99	1	2	-0.185386	-104.904	20.3342	-82.1144
 100	1	1	0.155741	-104.838	19.4153	-81.5387
 101	1	4	-0.198622	-104.313	17.2153	-75.8107
 102	1	4	-0.188008	-106.21	18.7053	-75.1869
 103	1	5	0.060726	-104.843	16.7925	-76.6743
 104	1	5	0.058265	-104.57	16.6025	-74.9372
 105	1	5	0.044015	-103.238	17.111	-75.9995
 106	1	5	0.049647	-106.83	18.1701	-75.9169
 107	1	5	0.045128	-106.596	19.7278	-75.0892
 108	1	5	0.061555	-106.342	18.2108	-74.2157
 109	1	1	0.151962	-103.019	17.6067	-73.6038
 110	1	2	-0.211106	-103.114	18.6863	-73.5474
 111	1	2	-0.169243	-102.426	19.364	-72.5231
 112	1	1	0.166678	-101.822	18.8094	-71.8111
 113	1	2	0.259195	-102.528	20.7592	-72.403
 114	1	2	-0.207473	-103.336	21.4715	-73.2977
 115	1	1	0.171716	-103.424	22.5484	-73.1895
 116	1	2	-0.169975	-104.022	20.7974	-74.323
 117	1	1	0.141932	-104.643	21.3698	-75.0084
 118	1	2	0.050656	-103.921	19.3958	-74.4693
 119	1	6	0.518059	-106.334	21.883	-85.338
 120	1	6	0.507614	-105.228	23.7656	-84.5998
 121	1	7	-0.122906	-106.023	23.2132	-85.598
 122	1	8	-0.496938	-107.006	21.1223	-86.0125
 123	1	8	-0.484992	-104.788	24.9002	-84.5302
 124	1	2	-0.048962	-98.9505	21.2493	-69.2261
 125	1	6	0.0776	-98.3224	21.4229	-67.892
 126	1	8	-0.391129	-98.8959	21.7712	-66.8728
 127	1	2	0.038503	-97.9737	20.8512	-70.1193
 128	1	6	0.061082	-96.6802	20.7583	-69.3945
 129	1	7	0.459351	-96.9711	21.1154	-68.075
 130	1	8	-0.403808	-95.6091	20.4293	-69.8791
 131	1	2	-0.02278	-100.277	21.4454	-69.63
 132	1	2	-0.06542	-98.2661	20.6215	-71.4695
 133	1	2	0.157218	-100.6	21.2129	-70.9817
 134	1	1	0.144625	-101.034	21.7736	-68.9237
 135	1	2	-0.259423	-99.5982	20.8099	-71.8985
 136	1	3	-0.32062	-101.892	21.4425	-71.3941
 137	1	1	0.165981	-97.4792	20.321	-72.1584
 138	1	1	0.168674	-99.8502	20.6639	-72.9451
 139	1	1	0.207625	-94.4718	22.148	-68.2136
 140	1	2	-0.428502	-94.7234	21.7388	-67.2377
 141	1	2	-0.035773	-93.7631	21.7799	-66.2107
 142	1	1	0.142536	-92.7897	22.2273	-66.402
 143	1	2	0.020215	-94.0519	21.2433	-64.9424
 144	1	2	-0.058677	-95.317	20.6688	-64.72
 145	1	1	0.147375	-95.5585	20.2479	-63.7459
 146	1	2	-0.40884	-96.2735	20.6286	-65.7499
 147	1	1	0.20403	-97.2466	20.1855	-65.5505
 148	1	2	0.301824	-95.9945	21.1612	-67.0269
 149	1	2	-0.079086	-91.4554	21.9734	-62.4313
 150	1	2	-0.121043	-90.506	22.6973	-61.6936
 151	1	1	0.148865	-90.3041	23.7421	-61.9119
 152	1	2	0.229196	-89.8243	22.0326	-60.6549
 153	1	3	-0.312503	-88.8879	22.7329	-59.9267
 154	1	1	0.177824	-91.256	18.9032	-60.9517
 155	1	2	-0.142744	-91.0435	19.9541	-61.1432
 156	1	2	-0.093344	-91.7188	20.6445	-62.1585
 157	1	1	0.162888	-86.4583	22.5078	-58.9716
 158	1	1	0.147794	-85.8537	21.9293	-56.6316
 159	1	2	-0.172056	-87.2363	22.3558	-58.2293
 160	1	2	-0.198933	-86.9023	22.0318	-56.901
 161	1	2	0.236899	-88.579	22.4583	-58.615
 162	1	2	0.029337	-87.9068	21.8231	-55.9286
 163	1	4	0.180684	-87.5136	21.387	-54.4977
 164	1	2	-0.223565	-89.5892	22.268	-57.6604
 165	1	2	-0.141841	-89.2577	21.9465	-56.3319
 166	1	1	0.17153	-90.6303	22.3583	-57.9561
 167	1	1	0.139148	-90.0674	21.7791	-55.6293
 168	1	2	-0.185386	-90.0832	20.6641	-60.3922
 169	1	1	0.155741	-89.5336	20.1517	-59.6078
 170	1	4	-0.198622	-87.3007	19.8497	-54.5403
 171	1	4	-0.188008	-88.6366	21.6538	-53.4558
 172	1	5	0.060726	-88.2022	19.344	-54.9094
 173	1	5	0.058265	-87.0818	19.4461	-53.5435
 174	1	5	0.044015	-86.4766	19.5824	-55.214
 175	1	5	0.049647	-89.5087	21.0091	-53.6206
 176	1	5	0.045128	-88.9723	22.6979	-53.4882
 177	1	5	0.061555	-88.2738	21.453	-52.4393
 178	1	1	0.151962	-87.1756	24.1001	-54.3473
 179	1	2	-0.211106	-86.2942	23.5732	-53.989
 180	1	2	-0.169243	-85.2059	24.3142	-53.4909
 181	1	1	0.166678	-85.2448	25.3991	-53.4611
 182	1	2	0.259195	-84.0666	23.6585	-53.0068
 183	1	2	-0.207473	-83.9997	22.258	-53.0652
 184	1	1	0.171716	-83.1054	21.7511	-52.7151
 185	1	2	-0.169975	-85.089	21.5146	-53.5553
 186	1	1	0.141932	-85.0059	20.4327	-53.5611
 187	1	2	0.050656	-86.2623	22.1609	-54.0144
 188	1	6	0.518059	-92.7683	20.1769	-63.1032
 189	1	6	0.507614	-92.3268	22.3915	-63.5638
 190	1	7	-0.122906	-93.0773	21.271	-63.902
 191	1	8	-0.496938	-93.2527	19.0589	-63.1384
 192	1	8	-0.484992	-92.3599	23.4975	-64.0749
 193	1	2	-0.048962	-80.4176	24.4083	-49.9215
 194	1	6	0.0776	-79.086	24.8578	-49.438
 195	1	8	-0.391129	-78.3066	25.5655	-50.055
 196	1	2	0.038503	-81.0039	23.6465	-48.9292
 197	1	6	0.061082	-80.0712	23.5685	-47.7768
 198	1	7	0.459351	-78.9554	24.3239	-48.1512
 199	1	8	-0.403808	-80.2713	22.9584	-46.7383
 200	1	2	-0.02278	-81.0773	24.668	-51.131
 201	1	2	-0.06542	-82.2883	23.111	-49.0789
 202	1	2	0.157218	-82.3669	24.128	-51.3159
 203	1	1	0.144625	-80.6115	25.2749	-51.9017
 204	1	2	-0.259423	-82.9745	23.3669	-50.2854
 205	1	3	-0.32062	-83.0281	24.4023	-52.4944
 206	1	1	0.165981	-82.7385	22.5307	-48.276
 207	1	1	0.168674	-83.9835	22.9853	-50.4123
 208	1	1	0.207625	-78.9883	24.8071	-45.4885
 209	1	2	-0.428502	-77.9892	24.7943	-45.9183
 210	1	2	-0.035773	-76.8855	25.0111	-45.075
 211	1	1	0.142536	-77.0516	25.1918	-44.015
 212	1	2	0.020215	-75.5758	24.999	-45.5902
 213	1	2	-0.058677	-75.3952	24.7578	-46.9656
 214	1	1	0.147375	-74.392	24.7442	-47.3873
 215	1	2	-0.40884	-76.5031	24.5319	-47.8045
 216	1	1	0.20403	-76.3341	24.355	-48.8644
 217	1	2	0.301824	-77.8217	24.5471	-47.2983
 218	1	2	-0.079086	-72.4175	25.0373	-43.6821
 219	1	2	-0.121043	-71.1323	24.6636	-43.2605
 220	1	1	0.148865	-70.5972	23.8515	-43.7446
 221	1	2	0.229196	-70.5564	25.3671	-42.1842
 222	1	3	-0.312503	-69.2927	25.0192	-41.7662
 223	1	1	0.177824	-73.0986	27.6136	-41.5473
 224	1	2	-0.142744	-72.5466	26.7964	-42.0093
 225	1	2	-0.093344	-73.1027	26.0707	-43.0726
 226	1	1	0.162888	-70.8419	24.3274	-39.6865
 227	1	1	0.147794	-70.0856	24.0697	-37.3653
 228	1	2	-0.172056	-69.8038	24.5278	-39.4393
 229	1	2	-0.198933	-69.362	24.3806	-38.1116
 230	1	2	0.236899	-68.9036	24.9042	-40.4499
 231	1	2	0.029337	-68.0071	24.6003	-37.7657
 232	1	4	0.180684	-67.4749	24.3742	-36.3286
 233	1	2	-0.223565	-67.5561	25.1082	-40.1254
 234	1	2	-0.141841	-67.1106	24.9534	-38.7994
 235	1	1	0.17153	-66.8571	25.3733	-40.913
 236	1	1	0.139148	-66.0562	25.0983	-38.5764
 237	1	2	-0.185386	-71.2549	26.4345	-41.5704
 238	1	1	0.155741	-70.7868	26.9834	-40.7581
 239	1	4	-0.198622	-66.8763	22.9417	-36.3035
 240	1	4	-0.188008	-68.6001	24.4239	-35.2591
 241	1	5	0.060726	-67.601	22.2143	-36.6919
 242	1	5	0.058265	-66.6158	22.6261	-35.2857
 243	1	5	0.044015	-65.9766	22.879	-36.9289
 244	1	5	0.049647	-69.2958	23.5817	-35.3582
 245	1	5	0.045128	-69.1722	25.3578	-35.3317
 246	1	5	0.061555	-68.1745	24.374	-34.2485
 247	1	1	0.151962	-67.6191	27.0883	-36.759
 248	1	2	-0.211106	-66.7128	26.8179	-36.2219
 249	1	2	-0.169243	-65.8301	27.8347	-35.8119
 250	1	1	0.166678	-66.0496	28.8751	-36.0327
 251	1	2	0.259195	-64.6678	27.5227	-35.0937
 252	1	2	-0.207473	-64.3985	26.1816	-34.7748
 253	1	1	0.171716	-63.5232	25.9326	-34.1829
 254	1	2	-0.169975	-65.2756	25.1623	-35.1911
 255	1	1	0.141932	-65.0423	24.1414	-34.9072
 256	1	2	0.050656	-66.4464	25.4618	-35.9286
 257	1	6	0.518059	-74.4229	26.2085	-43.7452
 258	1	6	0.507614	-73.2819	24.4839	-44.7609
 259	1	7	-0.122906	-74.4576	25.2272	-44.7306
 260	1	8	-0.496938	-75.2881	27.0175	-43.4573
 261	1	8	-0.484992	-72.9992	23.5555	-45.4983
 262	1	2	-0.048962	-60.6688	29.1264	-32.9672
 263	1	6	0.0776	-59.8815	29.7715	-31.8852
 264	1	8	-0.391129	-60.3325	30.4777	-30.9981
 265	1	2	0.038503	-59.7997	28.4179	-33.7753
 266	1	6	0.061082	-58.421	28.5839	-33.2454
 267	1	7	0.459351	-58.5533	29.4053	-32.1219
 268	1	8	-0.403808	-57.4085	28.0895	-33.7152
 269	1	2	-0.02278	-62.043	29.1771	-33.2366
 270	1	2	-0.06542	-60.2534	27.7161	-34.8997
 271	1	2	0.157218	-62.5269	28.471	-34.3566
 272	1	1	0.144625	-62.7147	29.7512	-32.6054
 273	1	2	-0.259423	-61.6355	27.7524	-35.1892
 274	1	3	-0.32062	-63.8672	28.5561	-34.6575
 275	1	1	0.165981	-59.5502	27.177	-35.5314
 276	1	1	0.168674	-62.0156	27.2416	-36.0695
 277	1	1	0.207625	-58.4526	29.4836	-29.4159
 278	1	2	-0.428502	-57.5345	29.811	-29.8984
 279	1	2	-0.035773	-56.4518	30.2211	-29.0994
 280	1	1	0.142536	-56.545	30.1936	-28.0155
 281	1	2	0.020215	-55.2515	30.6594	-29.69
 282	1	2	-0.058677	-55.1582	30.6846	-31.094
 283	1	1	0.147375	-54.239	31.0189	-31.5711
 284	1	2	-0.40884	-56.2445	30.2755	-31.8893
 285	1	1	0.20403	-56.1423	30.2925	-32.972
 286	1	2	0.301824	-57.4508	29.8284	-31.3076
 287	1	2	-0.079086	-52.3425	32.2075	-28.0304
 288	1	2	-0.121043	-51.3105	33.1221	-27.7658
 289	1	1	0.148865	-51.1666	34.0	-28.3892
 290	1	2	0.229196	-50.462	32.8694	-26.6687
 291	1	3	-0.312503	-49.4505	33.7649	-26.3943
 292	1	1	0.177824	-51.8844	29.9364	-25.5237
 293	1	2	-0.142744	-51.7131	30.8189	-26.1384
 294	1	2	-0.093344	-52.5356	31.0913	-27.2392
 295	1	1	0.162888	-48.8054	34.7141	-24.0257
 296	1	1	0.147794	-46.8787	33.9615	-22.6365
 297	1	2	-0.172056	-48.1088	33.9751	-24.4107
 298	1	2	-0.198933	-47.0184	33.5441	-23.6312
 299	1	2	0.236899	-48.3309	33.4196	-25.6776
 300	1	2	0.029337	-46.1268	32.557	-24.1097
 301	1	4	0.180684	-45.0173	32.017	-23.1735
 302	1	2	-0.223565	-47.4409	32.4624	-26.1816
 303	1	2	-0.141841	-46.3484	32.0341	-25.407
 304	1	1	0.17153	-47.617	32.0367	-27.1651
 305	1	1	0.139148	-45.6997	31.2706	-25.8236
 306	1	2	-0.185386	-50.669	31.7248	-25.8574
 307	1	1	0.155741	-50.0242	31.5411	-25.003
 308	1	4	-0.198622	-44.0276	31.0622	-23.8945
 309	1	4	-0.188008	-45.7417	31.1807	-22.0815
 310	1	5	0.060726	-44.53	30.1563	-24.2565
 311	1	5	0.058265	-43.2306	30.7413	-23.2114
 312	1	5	0.044015	-43.5488	31.5615	-24.7467
 313	1	5	0.049647	-46.3165	31.8253	-21.4045
 314	1	5	0.045128	-45.0394	30.5903	-21.4807
 315	1	5	0.061555	-46.443	30.4725	-22.5415
 316	1	1	0.151962	-44.2371	34.4012	-24.3549
 317	1	2	-0.211106	-43.8341	34.2942	-23.3503
 318	1	2	-0.169243	-42.9595	35.2825	-22.856
 319	1	1	0.166678	-42.697	36.1418	-23.466
 320	1	2	0.259195	-42.3815	35.1445	-21.5866
 321	1	2	-0.207473	-42.711	34.0346	-20.7953
 322	1	1	0.171716	-42.2625	33.9277	-19.812
 323	1	2	-0.169975	-43.5865	33.0496	-21.2848
 324	1	1	0.141932	-43.7837	32.186	-20.6585
 325	1	2	0.050656	-44.1613	33.1587	-22.5734
 326	1	6	0.518059	-53.7003	30.3375	-27.7759
 327	1	6	0.507614	-53.3795	32.196	-29.0997
 328	1	7	-0.122906	-54.1454	31.0555	-28.8794
 329	1	8	-0.496938	-54.1525	29.3016	-27.3197
 330	1	8	-0.484992	-53.506	33.0241	-29.9849
 331	1	2	-0.048962	-38.4431	36.0586	-19.0512
 332	1	6	0.0776	-37.6351	36.6219	-17.9359
 333	1	8	-0.391129	-37.9131	37.6087	-17.2747
 334	1	2	0.038503	-37.7922	34.9361	-19.5297
 335	1	6	0.061082	-36.5528	34.7307	-18.741
 336	1	7	0.459351	-36.5373	35.7666	-17.8054
 337	1	8	-0.403808	-35.752	33.821	-18.8879
 338	1	2	-0.02278	-39.6733	36.4727	-19.5842
 339	1	2	-0.06542	-38.3179	34.1707	-20.5757
 340	1	2	0.157218	-40.2369	35.7043	-20.6249
 341	1	1	0.144625	-40.1871	37.3456	-19.1925
 342	1	2	-0.259423	-39.5533	34.5692	-21.1265
 343	1	3	-0.32062	-41.46	36.0674	-21.1461
 344	1	1	0.165981	-37.7852	33.2933	-20.9371
 345	1	1	0.168674	-39.9848	33.9935	-21.9405
 346	1	1	0.207625	-35.6131	33.812	-16.2008
 347	1	2	-0.428502	-35.1467	34.778	-16.0222
 348	1	2	-0.035773	-34.1516	34.8837	-15.0362
 349	1	1	0.142536	-33.8728	34.0047	-14.4584
 350	1	2	0.020215	-33.5126	36.1135	-14.7965
 351	1	2	-0.058677	-33.8901	37.2366	-15.5569
 352	1	1	0.147375	-33.4035	38.1948	-15.3852
 353	1	2	-0.40884	-34.8914	37.1274	-16.5413
 354	1	1	0.20403	-35.1763	38.0088	-17.1114
 355	1	2	0.301824	-35.5317	35.895	-16.7939
 356	1	2	-0.079086	-30.5007	36.614	-12.7345
 357	1	2	-0.121043	-29.1923	36.9833	-12.3858
 358	1	1	0.148865	-28.5461	37.4936	-13.0944
 359	1	2	0.229196	-28.7341	36.6636	-11.092
 360	1	3	-0.312503	-27.4523	37.0217	-10.7375
 361	1	1	0.177824	-31.5692	35.1306	-9.85075
 362	1	2	-0.142744	-30.9016	35.641	-10.5435
 363	1	2	-0.093344	-31.3259	35.9578	-11.8408
 364	1	1	0.162888	-26.3516	38.1093	-8.61804
 365	1	1	0.147794	-25.1067	36.8964	-6.83649
 366	1	2	-0.172056	-26.1905	37.0382	-8.69638
 367	1	2	-0.198933	-25.487	36.3454	-7.69361
 368	1	2	0.236899	-26.7173	36.3453	-9.79371
 369	1	2	0.029337	-25.2819	34.9494	-7.78016
 370	1	4	0.180684	-24.5669	34.2123	-6.62191
 371	1	2	-0.223565	-26.5134	34.9624	-9.90338
 372	1	2	-0.141841	-25.8054	34.2689	-8.90556
 373	1	1	0.17153	-26.917	34.4285	-10.7586
 374	1	1	0.139148	-25.6875	33.1958	-9.01609
 375	1	2	-0.185386	-29.5904	36.0066	-10.1733
 376	1	1	0.155741	-29.2378	35.7829	-9.17046
 377	1	4	-0.198622	-24.1405	32.7659	-6.99225
 378	1	4	-0.188008	-25.6006	34.1035	-5.46758
 379	1	5	0.060726	-23.5676	32.3112	-6.1735
 380	1	5	0.058265	-23.5023	32.7587	-7.88509
 381	1	5	0.044015	-25.0082	32.1208	-7.17868
 382	1	5	0.049647	-25.8343	35.0916	-5.05132
 383	1	5	0.045128	-25.2394	33.4612	-4.65484
 384	1	5	0.061555	-26.5395	33.6667	-5.83151
 385	1	1	0.151962	-22.6576	35.3424	-8.25094
 386	1	2	-0.211106	-22.4048	35.4579	-7.19935
 387	1	2	-0.169243	-21.198	36.0934	-6.85106
 388	1	1	0.166678	-20.5305	36.4669	-7.62188
 389	1	2	0.259195	-20.8349	36.2405	-5.50576
 390	1	2	-0.207473	-21.6816	35.733	-4.5063
 391	1	1	0.171716	-21.3933	35.8102	-3.46263
 392	1	2	-0.169975	-22.8901	35.1012	-4.85199
 393	1	1	0.141932	-23.5068	34.7059	-4.05155
 394	1	2	0.050656	-23.2774	34.9601	-6.20564
 395	1	6	0.518059	-32.6232	35.6913	-12.5179
 396	1	6	0.507614	-31.2519	36.7912	-14.0084
 397	1	7	-0.122906	-32.497	36.209	-13.8009
 398	1	8	-0.496938	-33.5761	35.1045	-12.0347
 399	1	8	-0.484992	-30.8352	37.3258	-15.0212
 400	1	2	-0.048962	-17.8564	37.7997	-2.14797
 401	1	6	0.0776	-16.6935	37.6732	-1.23228
 402	1	8	-0.391129	-15.7374	36.9321	-1.39199
 403	1	2	0.038503	-18.7327	38.7253	-1.613
 404	1	6	0.061082	-18.1667	39.2291	-0.336399
 405	1	7	0.459351	-16.9532	38.5531	-0.177171
 406	1	8	-0.403808	-18.6808	40.0628	0.392277
 407	1	2	-0.02278	-18.1293	37.1476	-3.35784
 408	1	2	-0.06542	-19.9313	39.059	-2.2558
 409	1	2	0.157218	-19.3377	37.4541	-4.01535
 410	1	1	0.144625	-17.435	36.4223	-3.7717
 411	1	2	-0.259423	-20.2284	38.4112	-3.47424
 412	1	3	-0.32062	-19.6264	36.8293	-5.20522
 413	1	1	0.165981	-20.6017	39.7976	-1.82092
 414	1	1	0.168674	-21.1444	38.6527	-4.00674
 415	1	1	0.207625	-14.2465	38.7467	-0.205827
 416	1	2	-0.428502	-14.683	38.8346	0.786698
 417	1	2	-0.035773	-13.8341	39.0312	1.89181
 418	1	1	0.142536	-12.7591	39.1021	1.73742
 419	1	2	0.020215	-14.3658	39.1411	3.19053
 420	1	2	-0.058677	-15.7581	39.0344	3.36325
 421	1	1	0.147375	-16.1915	39.125	4.35738
 422	1	2	-0.40884	-16.6014	38.8308	2.25739
 423	1	1	0.20403	-17.6756	38.7748	2.41824
 424	1	2	0.301824	-16.0826	38.7358	0.948147
 425	1	2	-0.079086	-11.7748	39.271	5.8112
 426	1	2	-0.121043	-10.5978	38.9706	6.51377
 427	1	1	0.148865	-9.90612	38.2155	6.15104
 428	1	2	0.229196	-10.3367	39.6757	7.7056
 429	1	3	-0.312503	-9.17838	39.392	8.39518
 430	1	1	0.177824	-13.1234	41.7163	7.77455
 431	1	2	-0.142744	-12.4196	40.9556	7.4397
 432	1	2	-0.093344	-12.658	40.2318	6.26446
 433	1	1	0.162888	-10.6006	38.4635	10.4207
 434	1	1	0.147794	-10.3731	39.1553	12.7789
 435	1	2	-0.172056	-9.83159	39.1762	10.7043
 436	1	2	-0.198933	-9.69103	39.5737	12.046
 437	1	2	0.236899	-8.99653	39.7172	9.71645
 438	1	2	0.029337	-8.7039	40.5153	12.4228
 439	1	4	0.180684	-8.5773	41.0379	13.8724
 440	1	2	-0.223565	-8.00624	40.64	10.0724
 441	1	2	-0.141841	-7.86618	41.0422	11.413
 442	1	1	0.17153	-7.36878	41.06	9.30002
 443	1	1	0.139148	-7.11031	41.7829	11.6636
 444	1	2	-0.185386	-11.2408	40.67	8.15914
 445	1	1	0.155741	-11.0263	41.2283	9.06578
 446	1	4	-0.198622	-9.19149	40.0675	14.9201
 447	1	4	-0.188008	-9.39426	42.3557	13.9477
 448	1	5	0.060726	-8.78273	39.0548	14.8139
 449	1	5	0.058265	-10.283	40.0073	14.8299
 450	1	5	0.044015	-8.97001	40.4101	15.9393
 451	1	5	0.049647	-10.4339	42.1849	13.6398
 452	1	5	0.045128	-8.97589	43.1201	13.2805
 453	1	5	0.061555	-9.41566	42.7573	14.9688
 454	1	1	0.151962	-7.19414	43.3205	14.8522
 455	1	2	-0.211106	-6.5657	42.4424	14.7443
 456	1	2	-0.169243	-5.21471	42.5453	15.1228
 457	1	1	0.166678	-4.82236	43.4834	15.5046
 458	1	2	0.259195	-4.36692	41.431	15.0319
 459	1	2	-0.207473	-4.86024	40.2268	14.5154
 460	1	1	0.171716	-4.19495	39.3725	14.4336
 461	1	2	-0.169975	-6.20918	40.1229	14.1297
 462	1	1	0.141932	-6.57883	39.1759	13.7429
 463	1	2	0.050656	-7.08822	41.2225	14.2507
 464	1	6	0.518059	-13.7895	40.3114	5.30386
 465	1	6	0.507614	-12.3177	38.7095	4.54365
 466	1	7	-0.122906	-13.5156	39.3772	4.31165
 467	1	8	-0.496938	-14.7522	41.053	5.39645
 468	1	8	-0.484992	-11.7977	37.8427	3.86282
 469	1	2	-0.048962	-0.87775	42.7947	18.0873
 470	1	6	0.0776	0.472036	43.1983	18.5584
 471	1	8	-0.391129	1.48769	43.2245	17.8827
 472	1	2	0.038503	-1.75336	42.8828	19.1531
 473	1	6	0.061082	-1.00467	43.3561	20.3446
 474	1	7	0.459351	0.315497	43.5045	19.913
 475	1	8	-0.403808	-1.46822	43.5261	21.4611
 476	1	2	-0.02278	-1.29834	42.3436	16.829
 477	1	2	-0.06542	-3.09652	42.51	19.0301
 478	1	2	0.157218	-2.64985	41.9746	16.6721
 479	1	1	0.144625	-0.599632	42.2669	16.0012
 480	1	2	-0.259423	-3.54024	42.0442	17.7739
 481	1	3	-0.32062	-3.05742	41.5006	15.4437
 482	1	1	0.165981	-3.76211	42.5622	19.8894
 483	1	1	0.168674	-4.57134	41.7202	17.6647
 484	1	1	0.207625	0.352696	45.5003	21.7446
 485	1	2	-0.428502	1.27584	44.9267	21.7019
 486	1	2	-0.035773	2.31582	45.2327	22.5988
 487	1	1	0.142536	2.18823	46.0439	23.313
 488	1	2	0.020215	3.50498	44.4793	22.5972
 489	1	2	-0.058677	3.64324	43.4315	21.6681
 490	1	1	0.147375	4.5527	42.834	21.6546
 491	1	2	-0.40884	2.60152	43.1291	20.7737
 492	1	1	0.20403	2.7277	42.3066	20.0732
 493	1	2	0.301824	1.39626	43.8627	20.782
 494	1	2	-0.079086	6.08005	44.4412	25.2242
 495	1	2	-0.121043	6.90789	43.9291	26.2316
 496	1	1	0.148865	6.94879	42.8629	26.4357
 497	1	2	0.229196	7.66881	44.8376	26.9896
 498	1	3	-0.312503	8.42982	44.3406	28.0198
 499	1	1	0.177824	6.64182	47.7938	25.532
 500	1	2	-0.142744	6.73666	46.726	25.7238
 501	1	2	-0.093344	5.99429	45.798	24.9774
 502	1	1	0.162888	10.2524	45.4404	26.3598
 503	1	1	0.147794	12.5783	45.9746	26.9628
 504	1	2	-0.172056	10.5952	45.262	27.3744
 505	1	2	-0.198933	11.9255	45.5619	27.7253
 506	1	2	0.236899	9.72125	44.7042	28.3233
 507	1	2	0.029337	12.4092	45.302	29.0296
 508	1	4	0.180684	13.8802	45.5589	29.4324
 509	1	2	-0.223565	10.1926	44.4278	29.6118
 510	1	2	-0.141841	11.5224	44.7171	29.9613
 511	1	1	0.17153	9.52229	43.9704	30.3334
 512	1	1	0.139148	11.8653	44.4708	30.9634
 513	1	2	-0.185386	7.57872	46.2289	26.7439
 514	1	1	0.155741	8.14394	46.9189	27.364
 515	1	4	-0.198622	14.5642	46.6451	28.5561
 516	1	4	-0.188008	14.6518	44.2334	29.1937
 517	1	5	0.060726	14.7062	46.3056	27.5228
 518	1	5	0.058265	15.5572	46.8907	28.9548
 519	1	5	0.044015	13.9755	47.5706	28.5338
 520	1	5	0.049647	14.2548	43.4258	29.822
 521	1	5	0.045128	15.7224	44.3471	29.4067
 522	1	5	0.061555	14.5551	43.9117	28.1487
 523	1	1	0.151962	15.2888	44.5019	31.6665
 524	1	2	-0.211106	14.7077	45.3889	31.8978
 525	1	2	-0.169243	14.7212	45.8635	33.2227
 526	1	1	0.166678	15.2947	45.3434	33.9841
 527	1	2	0.259195	13.9881	47.0081	33.5725
 528	1	2	-0.207473	13.2241	47.6634	32.5998
 529	1	1	0.171716	12.6465	48.539	32.8807
 530	1	2	-0.169975	13.2077	47.1903	31.2754
 531	1	1	0.141932	12.6043	47.7097	30.5347
 532	1	2	0.050656	13.9478	46.0466	30.9004
 533	1	6	0.518059	4.99342	46.0034	23.8923
 534	1	6	0.507614	5.14467	43.7413	24.3065
 535	1	7	-0.122906	4.52941	44.7363	23.5559
 536	1	8	-0.496938	4.64172	47.0771	23.435
 537	1	8	-0.484992	4.95626	42.538	24.2599
 538	1	2	-0.048962	16.0457	47.8423	37.858
 539	1	6	0.0776	16.1683	47.918	39.3365
 540	1	8	-0.391129	15.2595	47.7765	40.138
 541	1	2	0.038503	17.2923	48.0694	37.3061
 542	1	6	0.061082	18.2614	48.3029	38.4059
 543	1	7	0.459351	17.5131	48.2074	39.5818
 544	1	8	-0.403808	19.4513	48.5408	38.273
 545	1	2	-0.02278	14.9176	47.6298	37.0549
 546	1	2	-0.06542	17.4872	48.0956	35.9203
 547	1	2	0.157218	15.0865	47.6443	35.6556
 548	1	1	0.144625	13.9385	47.4727	37.4978
 549	1	2	-0.259423	16.3643	47.8842	35.0916
 550	1	3	-0.32062	13.9729	47.4814	34.8629
 551	1	1	0.165981	18.4745	48.2939	35.508
 552	1	1	0.168674	16.4827	47.9296	34.0126
 553	1	1	0.207625	19.164	50.2042	40.3362
 554	1	2	-0.428502	18.9017	49.5259	41.1451
 555	1	2	-0.035773	19.4345	49.752	42.4259
 556	1	1	0.142536	20.0882	50.6067	42.5872
 557	1	2	0.020215	19.1361	48.8807	43.4909
 558	1	2	-0.058677	18.2904	47.7812	43.2466
 559	1	1	0.147375	18.0378	47.0989	44.056
 560	1	2	-0.40884	17.7585	47.5589	41.9626
 561	1	1	0.20403	17.0923	46.7139	41.8038
 562	1	2	0.301824	18.0567	48.4255	40.8893
 563	1	2	-0.079086	21.1283	49.6546	46.4946
 564	1	2	-0.121043	22.2274	50.045	47.2722
 565	1	1	0.148865	23.178	50.299	46.8118
 566	1	2	0.229196	22.0632	50.1047	48.6689
 567	1	3	-0.312503	23.1413	50.4813	49.4359
 568	1	1	0.177824	18.7694	49.0923	48.8967
 569	1	2	-0.142744	19.7293	49.3631	48.459
 570	1	2	-0.093344	19.9144	49.3324	47.0693
 571	1	1	0.162888	21.3455	52.404	49.985
 572	1	1	0.147794	21.2871	53.7538	52.0418
 573	1	2	-0.172056	22.0851	52.2285	50.7601
 574	1	2	-0.198933	22.0577	52.9967	51.9379
 575	1	2	0.236899	23.0739	51.2476	50.577
 576	1	2	0.029337	23.0238	52.8079	52.9534
 577	1	4	0.180684	23.0156	53.6763	54.2335
 578	1	2	-0.223565	24.0605	51.0773	51.5554
 579	1	2	-0.141841	24.043	51.8536	52.7281
 580	1	1	0.17153	24.8441	50.343	51.3943
 581	1	1	0.139148	24.8344	51.7077	53.4591
 582	1	2	-0.185386	20.8264	49.747	49.2602
 583	1	1	0.155741	20.7229	49.7649	50.3414
 584	1	4	-0.198622	21.568	53.9968	54.7043
 585	1	4	-0.188008	23.685	55.0298	53.8738
 586	1	5	0.060726	21.0554	54.6866	54.0236
 587	1	5	0.058265	21.5815	54.4729	55.6933
 588	1	5	0.044015	20.9619	53.0854	54.7805
 589	1	5	0.049647	24.7262	54.8828	53.5594
 590	1	5	0.045128	23.6698	55.7234	54.7242
 591	1	5	0.061555	23.1588	55.5171	53.0431
 592	1	1	0.151962	25.2486	54.4511	55.8151
 593	1	2	-0.211106	24.8222	53.4952	56.1018
 594	1	2	-0.169243	25.3913	52.8193	57.1962
 595	1	1	0.166678	26.2295	53.2524	57.7342
 596	1	2	0.259195	24.8664	51.5895	57.6188
 597	1	2	-0.207473	23.7918	51.0188	56.9273
 598	1	1	0.171716	23.3936	50.0643	57.2587
 599	1	2	-0.169975	23.2193	51.6941	55.834
 600	1	1	0.141932	22.3772	51.2424	55.3149
 601	1	2	0.050656	23.7149	52.9484	55.409
 602	1	6	0.518059	18.9674	48.9793	45.9765
 603	1	6	0.507614	20.9964	49.5076	45.0213
 604	1	7	-0.122906	19.683	49.1107	44.7903
 605	1	8	-0.496938	17.8009	48.6576	46.1219
 606	1	8	-0.484992	21.8774	49.7091	44.2036
 607	1	2	-0.048962	26.3259	51.6561	62.1992
 608	1	6	0.0776	27.1468	51.3493	63.3997
 609	1	8	-0.391129	28.002	50.4832	63.4839
 610	1	2	0.038503	25.4752	52.7006	62.512
 611	1	6	0.061082	25.7176	53.1079	63.917
 612	1	7	0.459351	26.7138	52.2463	64.3788
 613	1	8	-0.403808	25.1624	54.0213	64.5075
 614	1	2	-0.02278	26.3114	51.0551	60.9331
 615	1	2	-0.06542	24.5552	53.2018	61.586
 616	1	2	0.157218	25.4023	51.5495	59.9755
 617	1	1	0.144625	26.9783	50.2311	60.6967
 618	1	2	-0.259423	24.5218	52.6107	60.3064
 619	1	3	-0.32062	25.3699	50.9607	58.7309
 620	1	1	0.165981	23.8849	54.014	61.8604
 621	1	1	0.168674	23.8021	52.9715	59.5774
 622	1	1	0.207625	29.3107	52.1972	65.1679
 623	1	2	-0.428502	28.6002	52.2713	65.9882
 624	1	2	-0.035773	29.0789	52.362	67.3085
 625	1	1	0.142536	30.1528	52.3653	67.4823
 626	1	2	0.020215	28.1848	52.4682	68.3942
 627	1	2	-0.058677	26.8032	52.4399	68.1252
 628	1	1	0.147375	26.0799	52.5074	68.9326
 629	1	2	-0.40884	26.3295	52.3552	66.8078
 630	1	1	0.20403	25.255	52.3737	66.636
 631	1	2	0.301824	27.2166	52.2826	65.7163
 632	1	2	-0.079086	29.8519	53.4414	71.5314
 633	1	2	-0.121043	30.7324	54.1252	72.3757
 634	1	1	0.148865	31.5234	54.7384	71.9546
 635	1	2	0.229196	30.5352	54.0226	73.7716
 636	1	3	-0.312503	31.3426	54.7166	74.6493
 637	1	1	0.177824	27.7711	51.9555	73.7898
 638	1	2	-0.142744	28.6042	52.5457	73.4101
 639	1	2	-0.093344	28.8202	52.6736	72.0296
 640	1	1	0.162888	33.9349	55.0902	74.3829
 641	1	1	0.147794	34.9874	57.0057	73.2202
 642	1	2	-0.172056	33.3298	55.9368	74.0724
 643	1	2	-0.198933	33.9179	57.0285	73.4046
 644	1	2	0.236899	31.9406	55.8861	74.2527
 645	1	2	0.029337	33.114	58.0807	72.9047
 646	1	4	0.180684	33.6374	59.1506	71.9195