pySIMM System Object

2693 atoms
2965 bonds
4992 angles
7718 dihedrals
936 impropers

9 atom types
11 bond types
18 angle types
9 dihedral types
4 improper types

-210.680912 210.680912 xlo xhi
-210.680912 210.680912 ylo yhi
-210.680912 210.680912 zlo zhi

Masses

   1	1.008	# ha
   2	12.01	# ca
   3	16.0	# os
   4	12.01	# c3
   5	1.008	# hc
   6	12.01	# c
   7	14.01	# n
   8	16.0	# o
   9	1.008	# hn

Pair Coeffs

   1	0.015	2.59964245953351	# ha
   2	0.086	3.3996695084235347	# ca
   3	0.17	3.0000123434657784	# os
   4	0.1094	3.3996695084235347	# c3
   5	0.0157	2.649532787749369	# hc
   6	0.086	3.3996695084235347	# c
   7	0.17	3.249998523775958	# n
   8	0.21	2.959921901149463	# o
   9	0.0157	1.069078461768407	# hn

Bond Coeffs

   1	461.1	1.3984	# ca,ca
   2	427.6	1.3789	# c,n
   3	345.9	1.4906	# c,ca
   4	300.9	1.5375	# c3,c3
   5	345.8	1.086	# ca,ha
   6	384.2	1.4121	# ca,n
   7	321.0	1.5156	# c3,ca
   8	330.6	1.0969	# c3,hc
   9	637.7	1.2183	# c,o
  10	376.6	1.3696	# ca,os
  11	403.2	1.0129	# hn,n

Angle Coeffs

   1	46.34	109.8	# c3,c3,hc
   2	74.22	123.05	# n,c,o
   3	48.33	117.55	# c,n,hn
   4	63.56	112.24	# ca,c3,ca
   5	63.48	119.89	# ca,os,ca
   6	62.86	111.51	# c3,c3,c3
   7	66.62	120.02	# ca,ca,ca
   8	64.28	120.33	# c,ca,ca
   9	63.15	112.07	# c3,c3,ca
  10	39.4	107.58	# hc,c3,hc
  11	48.18	119.88	# ca,ca,ha
  12	63.53	120.77	# c3,ca,ca
  13	63.74	127.08	# c,n,c
  14	67.68	115.25	# ca,c,n
  15	63.82	123.71	# c,n,ca
  16	68.72	122.6	# ca,c,o
  17	67.87	120.19	# ca,ca,n
  18	69.58	119.2	# ca,ca,os

Dihedral Coeffs

   1	1	3.625	2	180	# X,ca,ca,X
   2	1	1.0	2	180	# X,c,ca,X
   3	1	0.0	2	0	# X,c3,ca,X
   4	1	0.15555555555555556	3	0	# X,c3,c3,X
   5	1	0.9	2	180	# X,ca,os,X
   6	1	2.5	2	180	# X,c,n,X
   7	1	0.45	2	180	# X,ca,n,X
   8	1	0.16	3	0	# hc,c3,c3,c3
   9	2	2.5	2	180	2.0	1	0	# hn,n,c,o

Improper Coeffs

   1	1.1	-1	2	# n,X,X,hn
   2	1.1	-1	2	# ca,ca,ca,c3
   3	10.5	-1	2	# c,X,X,o
   4	1.1	-1	2	# ca,X,X,ha

Atoms

   1	1	1	0.207625	84.7546	-113.125	-79.5891
   2	1	2	-0.428502	83.9198	-113.645	-80.0481
   3	1	2	-0.035773	82.6159	-113.464	-79.5525
   4	1	1	0.142536	82.4514	-112.799	-78.7069
   5	1	2	0.020215	81.5273	-114.139	-80.1415
   6	1	2	-0.058677	81.7697	-115.0	-81.231
   7	1	1	0.147375	80.9437	-115.53	-81.7004
   8	1	2	-0.40884	83.0763	-115.177	-81.7216
   9	1	1	0.20403	83.258	-115.838	-82.5632
  10	1	2	0.301824	84.1533	-114.5	-81.1334
  11	1	2	-0.079086	78.4105	-113.724	-78.2223
  12	1	2	-0.121043	77.5579	-113.627	-77.1146
  13	1	1	0.148865	77.9434	-113.705	-76.1024
  14	1	2	0.229196	76.1843	-113.43	-77.3481
  15	1	3	-0.312503	75.3521	-113.362	-76.2548
  16	1	1	0.177824	76.1991	-113.398	-80.8017
  17	1	2	-0.142744	76.5639	-113.452	-79.7772
  18	1	2	-0.093344	77.9293	-113.633	-79.5138
  19	1	1	0.162888	73.2203	-114.418	-75.2064
  20	1	1	0.147794	70.9648	-113.418	-75.1405
  21	1	2	-0.172056	73.0498	-113.435	-75.6346
  22	1	2	-0.198933	71.7708	-112.853	-75.5969
  23	1	2	0.236899	74.1176	-112.761	-76.238
  24	1	2	0.029337	71.5431	-111.571	-76.1507
  25	1	4	0.180684	70.1421	-110.918	-76.1711
  26	1	2	-0.223565	73.9132	-111.485	-76.7861
  27	1	2	-0.141841	72.6339	-110.901	-76.7513
  28	1	1	0.17153	74.7455	-110.953	-77.2364
  29	1	1	0.139148	72.4901	-109.92	-77.1964
  30	1	2	-0.185386	75.6877	-113.358	-78.6742
  31	1	1	0.155741	74.6223	-113.241	-78.8475
  32	1	4	-0.198622	69.165	-111.548	-75.1399
  33	1	4	-0.188008	69.5455	-111.186	-77.5793
  34	1	5	0.060726	68.2236	-110.985	-75.1078
  35	1	5	0.058265	69.5912	-111.539	-74.1288
  36	1	5	0.044015	68.9139	-112.585	-75.3969
  37	1	5	0.049647	70.1484	-110.709	-78.363
  38	1	5	0.045128	68.5156	-110.815	-77.6584
  39	1	5	0.061555	69.5255	-112.263	-77.7916
  40	1	1	0.151962	69.2414	-108.637	-77.6029
  41	1	2	-0.211106	69.739	-108.396	-76.669
  42	1	2	-0.169243	69.8636	-107.041	-76.3152
  43	1	1	0.166678	69.48	-106.263	-76.9692
  44	1	2	0.259195	70.4835	-106.674	-75.1144
  45	1	2	-0.207473	71.003	-107.667	-74.2706
  46	1	1	0.171716	71.5112	-107.382	-73.3541
  47	1	2	-0.169975	70.8876	-109.024	-74.6269
  48	1	1	0.141932	71.3043	-109.782	-73.9678
  49	1	2	0.050656	70.2533	-109.413	-75.8292
  50	1	6	0.518059	79.0817	-113.779	-80.4446
  51	1	6	0.507614	79.8804	-113.936	-78.2884
  52	1	7	-0.122906	80.2032	-113.956	-79.6409
  53	1	8	-0.496938	79.0238	-113.747	-81.6617
  54	1	8	-0.484992	80.6271	-114.065	-77.3338
  55	1	2	-0.048962	69.1074	-104.47	-71.5792
  56	1	6	0.0776	68.0233	-104.59	-70.568
  57	1	8	-0.391129	67.0944	-105.38	-70.6094
  58	1	2	0.038503	69.9601	-103.458	-71.1778
  59	1	6	0.061082	69.4629	-102.896	-69.8976
  60	1	7	0.459351	68.2986	-103.612	-69.6062
  61	1	8	-0.403808	69.9658	-101.968	-69.2832
  62	1	2	-0.02278	69.3031	-105.156	-72.7872
  63	1	2	-0.06542	71.0562	-103.068	-71.9559
  64	1	2	0.157218	70.4045	-104.779	-73.5882
  65	1	1	0.144625	68.6085	-105.927	-73.1073
  66	1	2	-0.259423	71.2678	-103.74	-73.1774
  67	1	3	-0.32062	70.6242	-105.34	-74.8227
  68	1	1	0.165981	71.7016	-102.254	-71.6303
  69	1	1	0.168674	72.0922	-103.451	-73.8236
  70	1	1	0.207625	65.5913	-103.475	-69.5664
  71	1	2	-0.428502	66.0553	-103.263	-68.6057
  72	1	2	-0.035773	65.2377	-102.912	-67.515
  73	1	1	0.142536	64.1598	-102.852	-67.6512
  74	1	2	0.020215	65.8042	-102.612	-66.2612
  75	1	2	-0.058677	67.2019	-102.696	-66.1161
  76	1	1	0.147375	67.6638	-102.464	-65.1582
  77	1	2	-0.40884	68.0148	-103.051	-67.2079
  78	1	1	0.20403	69.094	-103.077	-67.0744
  79	1	2	0.301824	67.4599	-103.327	-68.4765
  80	1	2	-0.079086	63.4381	-101.04	-63.9111
  81	1	2	-0.121043	62.4433	-100.17	-63.441
  82	1	1	0.148865	61.9097	-99.5116	-64.1208
  83	1	2	0.229196	62.1674	-100.153	-62.0596
  84	1	3	-0.312503	61.2238	-99.2571	-61.6043
  85	1	1	0.177824	64.4714	-102.502	-61.007
  86	1	2	-0.142744	63.8936	-101.862	-61.6723
  87	1	2	-0.093344	64.1402	-101.863	-63.0531
  88	1	1	0.162888	60.035	-101.403	-60.5498
  89	1	1	0.147794	58.8495	-101.471	-58.3924
  90	1	2	-0.172056	59.9713	-100.505	-59.9423
  91	1	2	-0.198933	59.2893	-100.531	-58.7106
  92	1	2	0.236899	60.5682	-99.3191	-60.3965
  93	1	2	0.029337	59.1789	-99.3644	-57.9145
  94	1	4	0.180684	58.4632	-99.3437	-56.5384
  95	1	2	-0.223565	60.4475	-98.152	-59.6325
  96	1	2	-0.141841	59.7638	-98.1745	-58.4032
  97	1	1	0.17153	60.891	-97.2313	-59.9996
  98	1	1	0.139148	59.6843	-97.2568	-57.8257
  99	1	2	-0.185386	62.8988	-100.989	-61.1787
 100	1	1	0.155741	62.7114	-100.946	-60.11
 101	1	4	-0.198622	59.54	-98.9888	-55.4735
 102	1	4	-0.188008	57.8784	-100.726	-56.1432
 103	1	5	0.060726	60.4306	-99.6175	-55.6032
 104	1	5	0.058265	59.1785	-99.1525	-54.4513
 105	1	5	0.044015	59.855	-97.9413	-55.5565
 106	1	5	0.049647	58.6629	-101.491	-56.0804
 107	1	5	0.045128	57.1238	-101.057	-56.8685
 108	1	5	0.061555	57.3871	-100.676	-55.1629
 109	1	1	0.151962	57.3244	-97.9649	-54.3829
 110	1	2	-0.211106	56.8289	-97.7501	-55.3241
 111	1	2	-0.169243	55.7007	-96.9076	-55.307
 112	1	1	0.166678	55.3491	-96.4923	-54.3675
 113	1	2	0.259195	55.0047	-96.6312	-56.4953
 114	1	2	-0.207473	55.4349	-97.2191	-57.6919
 115	1	1	0.171716	54.8767	-97.028	-58.6035
 116	1	2	-0.169975	56.5578	-98.0676	-57.7103
 117	1	1	0.141932	56.846	-98.5308	-58.6508
 118	1	2	0.050656	57.2836	-98.3398	-56.528
 119	1	6	0.518059	65.1408	-102.62	-63.857
 120	1	6	0.507614	63.9705	-101.243	-65.2856
 121	1	7	-0.122906	64.9853	-102.188	-65.1701
 122	1	8	-0.496938	65.944	-103.427	-63.4216
 123	1	8	-0.484992	63.5952	-100.664	-66.2903
 124	1	2	-0.048962	51.8613	-93.6751	-54.3662
 125	1	6	0.0776	50.5463	-93.2737	-53.8024
 126	1	8	-0.391129	49.486	-93.8509	-53.9801
 127	1	2	0.038503	52.8122	-92.7652	-53.9435
 128	1	6	0.061082	52.1443	-91.7432	-53.0969
 129	1	7	0.459351	50.796	-92.1104	-53.0691
 130	1	8	-0.403808	52.6877	-90.7894	-52.5625
 131	1	2	-0.02278	52.1926	-94.7364	-55.2191
 132	1	2	-0.06542	54.1506	-92.8646	-54.3444
 133	1	2	0.157218	53.5351	-94.8643	-55.6306
 134	1	1	0.144625	51.4338	-95.4321	-55.5651
 135	1	2	-0.259423	54.5071	-93.9284	-55.2024
 136	1	3	-0.32062	53.8575	-95.8682	-56.5151
 137	1	1	0.165981	54.8784	-92.1258	-54.015
 138	1	1	0.168674	55.5301	-94.0141	-55.5578
 139	1	1	0.207625	50.4725	-89.4288	-53.0935
 140	1	2	-0.428502	49.7273	-89.9529	-52.4992
 141	1	2	-0.035773	48.7355	-89.2083	-51.8372
 142	1	1	0.142536	48.7232	-88.1247	-51.936
 143	1	2	0.020215	47.7648	-89.8528	-51.0482
 144	1	2	-0.058677	47.8055	-91.2552	-50.9344
 145	1	1	0.147375	47.0649	-91.7712	-50.3264
 146	1	2	-0.40884	48.8006	-91.9968	-51.599
 147	1	1	0.20403	48.8055	-93.0804	-51.5048
 148	1	2	0.301824	49.7803	-91.3591	-52.391
 149	1	2	-0.079086	45.1733	-87.5085	-49.8827
 150	1	2	-0.121043	44.2709	-86.4354	-49.9065
 151	1	1	0.148865	44.1059	-85.8627	-50.8148
 152	1	2	0.229196	43.594	-86.1075	-48.7159
 153	1	3	-0.312503	42.743	-85.0251	-48.7346
 154	1	1	0.177824	44.9648	-88.4863	-46.6197
 155	1	2	-0.142744	44.7537	-87.9202	-47.5258
 156	1	2	-0.093344	45.4043	-88.2317	-48.7284
 157	1	1	0.162888	42.1465	-82.7495	-47.6097
 158	1	1	0.147794	40.2298	-82.3182	-46.0866
 159	1	2	-0.172056	41.4626	-83.5532	-47.3533
 160	1	2	-0.198933	40.3744	-83.316	-46.4945
 161	1	2	0.236899	41.6802	-84.8309	-47.8836
 162	1	2	0.029337	39.471	-84.3502	-46.1626
 163	1	4	0.180684	38.3025	-84.0472	-45.1943
 164	1	2	-0.223565	40.7886	-85.8693	-47.5727
 165	1	2	-0.141841	39.6984	-85.6344	-46.7138
 166	1	1	0.17153	40.9409	-86.8547	-48.003
 167	1	1	0.139148	39.0369	-86.4644	-46.4876
 168	1	2	-0.185386	43.8445	-86.8396	-47.5284
 169	1	1	0.155741	43.348	-86.5566	-46.6048
 170	1	4	-0.198622	38.9127	-83.9434	-43.7698
 171	1	4	-0.188008	37.2392	-85.1781	-45.1474
 172	1	5	0.060726	39.4875	-84.8473	-43.53
 173	1	5	0.058265	38.1349	-83.8374	-43.0032
 174	1	5	0.044015	39.5955	-83.0879	-43.6909
 175	1	5	0.049647	37.6537	-86.1068	-44.7355
 176	1	5	0.045128	36.8399	-85.3907	-46.1473
 177	1	5	0.061555	36.3945	-84.8862	-44.51
 178	1	1	0.151962	37.4102	-83.4041	-47.7034
 179	1	2	-0.211106	37.1768	-82.6186	-46.9881
 180	1	2	-0.169243	36.489	-81.4725	-47.4285
 181	1	1	0.166678	36.1974	-81.3712	-48.4696
 182	1	2	0.259195	36.167	-80.4495	-46.5273
 183	1	2	-0.207473	36.5588	-80.566	-45.1841
 184	1	1	0.171716	36.3315	-79.7643	-44.488
 185	1	2	-0.169975	37.246	-81.7118	-44.7409
 186	1	1	0.141932	37.5215	-81.7695	-43.6929
 187	1	2	0.050656	37.5698	-82.7578	-45.6382
 188	1	6	0.518059	46.4295	-89.2684	-49.032
 189	1	6	0.507614	46.0462	-88.0576	-50.9548
 190	1	7	-0.122906	46.7676	-89.0917	-50.3688
 191	1	8	-0.496938	46.8771	-90.0852	-48.2459
 192	1	8	-0.484992	46.1177	-87.6485	-52.1007
 193	1	2	-0.048962	33.3958	-76.5639	-45.8609
 194	1	6	0.0776	33.0073	-75.1311	-45.924
 195	1	8	-0.391129	33.5483	-74.2758	-46.6058
 196	1	2	0.038503	32.5323	-77.2105	-44.9975
 197	1	6	0.061082	31.5613	-76.2193	-44.4687
 198	1	7	0.459351	31.9011	-75.0067	-45.0771
 199	1	8	-0.403808	30.6649	-76.4535	-43.6736
 200	1	2	-0.02278	34.4099	-77.2562	-46.5364
 201	1	2	-0.06542	32.6245	-78.588	-44.7637
 202	1	2	0.157218	34.5353	-78.6415	-46.307
 203	1	1	0.144625	35.0748	-76.7421	-47.2242
 204	1	2	-0.259423	33.6377	-79.3059	-45.4354
 205	1	3	-0.32062	35.5075	-79.3345	-46.9931
 206	1	1	0.165981	31.9198	-79.0802	-44.0965
 207	1	1	0.168674	33.7157	-80.3804	-45.2948
 208	1	1	0.207625	29.2152	-74.7239	-44.9292
 209	1	2	-0.428502	29.759	-73.7862	-44.8394
 210	1	2	-0.035773	29.0331	-72.5948	-44.6673
 211	1	1	0.142536	27.9463	-72.6334	-44.6318
 212	1	2	0.020215	29.6982	-71.3598	-44.5496
 213	1	2	-0.058677	31.1057	-71.3463	-44.5953
 214	1	1	0.147375	31.6432	-70.404	-44.5079
 215	1	2	-0.40884	31.8287	-72.5433	-44.7575
 216	1	1	0.20403	32.9148	-72.5014	-44.8002
 217	1	2	0.301824	31.1699	-73.7858	-44.8872
 218	1	2	-0.079086	28.2474	-68.0837	-43.6666
 219	1	2	-0.121043	28.0944	-66.8444	-43.0274
 220	1	1	0.148865	28.8094	-66.5055	-42.2831
 221	1	2	0.229196	26.9858	-66.0491	-43.3776
 222	1	3	-0.312503	26.8422	-64.8206	-42.7756
 223	1	1	0.177824	25.551	-68.0932	-45.7609
 224	1	2	-0.142744	26.2431	-67.7398	-44.9978
 225	1	2	-0.093344	27.3482	-68.517	-44.6217
 226	1	1	0.162888	24.6821	-66.17	-41.9145
 227	1	1	0.147794	22.6149	-65.1547	-41.058
 228	1	2	-0.172056	24.5873	-65.0886	-41.8963
 229	1	2	-0.198933	23.4073	-64.4997	-41.4051
 230	1	2	0.236899	25.6534	-64.2844	-42.333
 231	1	2	0.029337	23.271	-63.0929	-41.3328
 232	1	4	0.180684	22.0181	-62.4169	-40.725
 233	1	2	-0.223565	25.5382	-62.8909	-42.2517
 234	1	2	-0.141841	24.3629	-62.3003	-41.7527
 235	1	1	0.17153	26.3745	-62.2722	-42.5633
 236	1	1	0.139148	24.3083	-61.2168	-41.6796
 237	1	2	-0.185386	26.0718	-66.4895	-44.3651
 238	1	1	0.155741	25.238	-65.8524	-44.6456
 239	1	4	-0.198622	22.3383	-62.158	-39.2281
 240	1	4	-0.188008	20.7609	-63.3282	-40.7745
 241	1	5	0.060726	22.661	-63.085	-38.7367
 242	1	5	0.058265	21.4604	-61.7897	-38.6828
 243	1	5	0.044015	23.1497	-61.4271	-39.1186
 244	1	5	0.049647	20.8596	-64.1983	-40.1141
 245	1	5	0.045128	20.5721	-63.6875	-41.7941
 246	1	5	0.061555	19.8711	-62.7744	-40.4475
 247	1	1	0.151962	21.7918	-62.0857	-43.4387
 248	1	2	-0.211106	21.5694	-61.1625	-42.9081
 249	1	2	-0.169243	21.1868	-60.0239	-43.6414
 250	1	1	0.166678	21.1146	-60.0652	-44.7242
 251	1	2	0.259195	20.875	-58.8259	-42.9849
 252	1	2	-0.207473	20.9468	-58.7735	-41.5822
 253	1	1	0.171716	20.6851	-57.8599	-41.0578
 254	1	2	-0.169975	21.3334	-59.9099	-40.8475
 255	1	1	0.141932	21.3597	-59.8321	-39.7656
 256	1	2	0.050656	21.6538	-61.1253	-41.4985
 257	1	6	0.518059	27.7976	-69.8508	-45.1053
 258	1	6	0.507614	29.2945	-69.1299	-43.5092
 259	1	7	-0.122906	28.9559	-70.1488	-44.3942
 260	1	8	-0.496938	27.2386	-70.5268	-45.9518
 261	1	8	-0.484992	30.2426	-69.0827	-42.7447
 262	1	2	-0.048962	18.9605	-54.5533	-42.7755
 263	1	6	0.0776	17.7698	-53.6821	-42.6086
 264	1	8	-0.391129	16.6188	-53.9854	-42.8767
 265	1	2	0.038503	20.0752	-53.8549	-42.3486
 266	1	6	0.061082	19.6433	-52.5056	-41.9
 267	1	7	0.459351	18.2578	-52.4852	-42.0778
 268	1	8	-0.403808	20.3672	-51.634	-41.4453
 269	1	2	-0.02278	19.0562	-55.8665	-43.2536
 270	1	2	-0.06542	21.3523	-54.4305	-42.3681
 271	1	2	0.157218	20.3296	-56.469	-43.2733
 272	1	1	0.144625	18.1756	-56.4056	-43.5904
 273	1	2	-0.259423	21.4711	-55.7567	-42.8389
 274	1	3	-0.32062	20.4572	-57.7533	-43.7422
 275	1	1	0.165981	22.2168	-53.8635	-42.0285
 276	1	1	0.168674	22.4455	-56.2359	-42.8771
 277	1	1	0.207625	15.94	-52.5891	-40.6972
 278	1	2	-0.428502	16.2405	-51.5805	-40.9715
 279	1	2	-0.035773	15.435	-50.4971	-40.5803
 280	1	1	0.142536	14.5321	-50.6811	-40.0014
 281	1	2	0.020215	15.7948	-49.1798	-40.9199
 282	1	2	-0.058677	16.9679	-48.967	-41.6678
 283	1	1	0.147375	17.2621	-47.955	-41.9393
 284	1	2	-0.40884	17.7723	-50.0545	-42.0563
 285	1	1	0.20403	18.6869	-49.8657	-42.6141
 286	1	2	0.301824	17.4252	-51.3786	-41.7111
 287	1	2	-0.079086	13.7902	-46.1226	-40.4475
 288	1	2	-0.121043	13.1401	-44.9157	-40.7483
 289	1	1	0.148865	13.1773	-44.4924	-41.748
 290	1	2	0.229196	12.4386	-44.2641	-39.7144
 291	1	3	-0.312503	11.789	-43.0835	-39.9973
 292	1	1	0.177824	13.0069	-46.5011	-37.1457
 293	1	2	-0.142744	13.0407	-46.0495	-38.1361
 294	1	2	-0.093344	13.7415	-46.6697	-39.1792
 295	1	1	0.162888	9.53685	-41.8297	-39.521
 296	1	1	0.147794	9.18966	-40.0323	-37.8377
 297	1	2	-0.172056	10.3697	-41.4769	-38.9198
 298	1	2	-0.198933	10.1825	-40.4566	-37.9678
 299	1	2	0.236899	11.6295	-42.0668	-39.0853
 300	1	2	0.029337	11.2602	-39.9893	-37.1809
 301	1	4	0.180684	11.0185	-38.9135	-36.0934
 302	1	2	-0.223565	12.7101	-41.6166	-38.3132
 303	1	2	-0.141841	12.527	-40.5929	-37.3667
 304	1	1	0.17153	13.689	-42.0678	-38.4453
 305	1	1	0.139148	13.3826	-40.2892	-36.7729
 306	1	2	-0.185386	12.3823	-44.8342	-38.4186
 307	1	1	0.155741	11.8196	-44.3357	-37.6346
 308	1	4	-0.198622	12.3221	-38.1718	-35.6881
 309	1	4	-0.188008	10.5096	-39.669	-34.836
 310	1	5	0.060726	13.0202	-38.8302	-35.157
 311	1	5	0.058265	12.0958	-37.3335	-35.0164
 312	1	5	0.044015	12.8334	-37.7624	-36.5688
 313	1	5	0.049647	9.524	-40.1164	-35.0174
 314	1	5	0.045128	10.4374	-39.0063	-33.9645
 315	1	5	0.061555	11.1972	-40.482	-34.5689
 316	1	1	0.151962	11.0252	-37.5831	-38.4983
 317	1	2	-0.211106	10.2221	-37.2323	-37.8538
 318	1	2	-0.169243	9.39004	-36.187	-38.2994
 319	1	1	0.166678	9.54221	-35.7406	-39.2776
 320	1	2	0.259195	8.36881	-35.6944	-37.4757
 321	1	2	-0.207473	8.1606	-36.2747	-36.2154
 322	1	1	0.171716	7.36006	-35.9046	-35.5822
 323	1	2	-0.169975	8.98638	-37.3238	-35.7707
 324	1	1	0.141932	8.80418	-37.7307	-34.7816
 325	1	2	0.050656	10.0346	-37.8209	-36.5825
 326	1	6	0.518059	14.5169	-47.9386	-39.1926
 327	1	6	0.507614	14.6021	-47.0275	-41.3078
 328	1	7	-0.122906	14.9944	-48.0811	-40.4897
 329	1	8	-0.496938	14.6835	-48.6856	-38.2438
 330	1	8	-0.484992	14.8649	-46.8551	-42.4853
 331	1	2	-0.048962	5.56441	-31.9071	-36.5698
 332	1	6	0.0776	4.3086	-31.111	-36.5503
 333	1	8	-0.391129	3.32483	-31.3159	-37.2425
 334	1	2	0.038503	6.43051	-31.3715	-35.6354
 335	1	6	0.061082	5.76694	-30.2137	-34.9825
 336	1	7	0.459351	4.50638	-30.1214	-35.581
 337	1	8	-0.403808	6.25649	-29.507	-34.1156
 338	1	2	-0.02278	5.9242	-33.0153	-37.3506
 339	1	2	-0.06542	7.70775	-31.907	-35.4284
 340	1	2	0.157218	7.19947	-33.5838	-37.1509
 341	1	1	0.144625	5.23978	-33.4261	-38.0868
 342	1	2	-0.259423	8.08941	-33.0253	-36.2012
 343	1	3	-0.32062	7.57597	-34.6613	-37.9226
 344	1	1	0.165981	8.37836	-31.4611	-34.6965
 345	1	1	0.168674	9.08046	-33.4519	-36.0741
 346	1	1	0.207625	3.87733	-29.2454	-33.0963
 347	1	2	-0.428502	3.30294	-28.7675	-33.8867
 348	1	2	-0.035773	2.35719	-27.7853	-33.5411
 349	1	1	0.142536	2.21096	-27.5303	-32.4934
 350	1	2	0.020215	1.60068	-27.1352	-34.5348
 351	1	2	-0.058677	1.81394	-27.4883	-35.8809
 352	1	1	0.147375	1.23931	-27.0016	-36.6666
 353	1	2	-0.40884	2.76584	-28.4683	-36.2226
 354	1	1	0.20403	2.90477	-28.7257	-37.2702
 355	1	2	0.301824	3.52936	-29.127	-35.2333
 356	1	2	-0.079086	-0.640902	-24.2257	-34.124
 357	1	2	-0.121043	-1.22367	-22.967	-34.3505
 358	1	1	0.148865	-0.874872	-22.3255	-35.1547
 359	1	2	0.229196	-2.27284	-22.5549	-33.5019
 360	1	3	-0.312503	-2.85997	-21.3244	-33.7138
 361	1	1	0.177824	-2.46686	-25.3361	-31.4623
 362	1	2	-0.142744	-2.12842	-24.6697	-32.2544
 363	1	2	-0.093344	-1.08027	-25.0474	-33.1039
 364	1	1	0.162888	-5.37507	-20.5493	-33.7671
 365	1	1	0.147794	-6.58796	-19.41	-31.9118
 366	1	2	-0.172056	-4.8503	-20.279	-32.8554
 367	1	2	-0.198933	-5.52931	-19.6341	-31.8026
 368	1	2	0.236899	-3.49705	-20.6181	-32.7199
 369	1	2	0.029337	-4.86353	-19.3051	-30.5995
 370	1	4	0.180684	-5.66939	-18.7102	-29.4153
 371	1	2	-0.223565	-2.81322	-20.2736	-31.5461
 372	1	2	-0.141841	-3.48788	-19.6258	-30.4959
 373	1	1	0.17153	-1.76313	-20.5323	-31.4448
 374	1	1	0.139148	-2.92636	-19.405	-29.5942
 375	1	2	-0.185386	-2.7267	-23.4101	-32.4663
 376	1	1	0.155741	-3.54968	-23.0993	-31.8293
 377	1	4	-0.198622	-4.76201	-18.2278	-28.251
 378	1	4	-0.188008	-6.54647	-19.8684	-28.8642
 379	1	5	0.060726	-5.36175	-17.7654	-27.4564
 380	1	5	0.058265	-4.04384	-17.4745	-28.6
 381	1	5	0.044015	-4.20656	-19.0578	-27.7968
 382	1	5	0.049647	-7.33857	-20.1372	-29.5744
 383	1	5	0.045128	-7.01482	-19.6128	-27.9062
 384	1	5	0.061555	-5.9356	-20.764	-28.6916
 385	1	1	0.151962	-5.08213	-16.7694	-31.3052
 386	1	2	-0.211106	-6.02536	-16.5738	-30.8001
 387	1	2	-0.169243	-6.71771	-15.3812	-31.0844
 388	1	1	0.166678	-6.31531	-14.6743	-31.8028
 389	1	2	0.259195	-7.90977	-15.0726	-30.4132
 390	1	2	-0.207473	-8.41319	-15.9639	-29.4573
 391	1	1	0.171716	-9.31142	-15.7052	-28.9051
 392	1	2	-0.169975	-7.72134	-17.1551	-29.1694
 393	1	1	0.141932	-8.11378	-17.7955	-28.3867
 394	1	2	0.050656	-6.51462	-17.4825	-29.8349
 395	1	6	0.518059	-0.268901	-26.2939	-33.1279
 396	1	6	0.507614	0.467164	-24.9296	-34.8314
 397	1	7	-0.122906	0.629407	-26.1488	-34.1789
 398	1	8	-0.496938	-0.385033	-27.2344	-32.3611
 399	1	8	-0.484992	1.09236	-24.503	-35.7867
 400	1	2	-0.048962	-11.8104	-12.324	-30.3076
 401	1	6	0.0776	-12.7088	-11.3035	-29.7052
 402	1	8	-0.391129	-12.5044	-10.7089	-28.6611
 403	1	2	0.038503	-12.4359	-12.8469	-31.4228
 404	1	6	0.061082	-13.7284	-12.1337	-31.6133
 405	1	7	0.459351	-13.8029	-11.1997	-30.5709
 406	1	8	-0.403808	-14.5014	-12.3063	-32.5423
 407	1	2	-0.02278	-10.4956	-12.6803	-29.9728
 408	1	2	-0.06542	-11.8146	-13.8168	-32.2231
 409	1	2	0.157218	-9.83474	-13.6218	-30.7888
 410	1	1	0.144625	-9.97966	-12.1944	-29.1493
 411	1	2	-0.259423	-10.4983	-14.2077	-31.8899
 412	1	3	-0.32062	-8.49196	-13.8432	-30.605
 413	1	1	0.165981	-12.3217	-14.2148	-33.1
 414	1	1	0.168674	-9.96629	-14.9163	-32.5187
 415	1	1	0.207625	-14.9351	-9.77521	-32.5778
 416	1	2	-0.428502	-15.3233	-9.52245	-31.594
 417	1	2	-0.035773	-16.328	-8.54138	-31.4949
 418	1	1	0.142536	-16.6978	-8.05191	-32.3929
 419	1	2	0.020215	-16.8644	-8.19003	-30.2457
 420	1	2	-0.058677	-16.3655	-8.82385	-29.0922
 421	1	1	0.147375	-16.7531	-8.54744	-28.1134
 422	1	2	-0.40884	-15.3688	-9.81801	-29.1981
 423	1	1	0.20403	-14.9996	-10.2921	-28.2913
 424	1	2	0.301824	-14.833	-10.1969	-30.4518
 425	1	2	-0.079086	-18.9879	-5.1808	-30.0985
 426	1	2	-0.121043	-19.3361	-3.82212	-30.021
 427	1	1	0.148865	-18.5951	-3.07158	-29.795
 428	1	2	0.229196	-20.6712	-3.44369	-30.2609
 429	1	3	-0.312503	-21.0008	-2.09955	-30.189
 430	1	1	0.177824	-21.9715	-6.56141	-30.9919
 431	1	2	-0.142744	-21.2545	-5.7963	-30.6993
 432	1	2	-0.093344	-19.9275	-6.14528	-30.402
 433	1	1	0.162888	-22.7483	-3.30279	-28.5291
 434	1	1	0.147794	-24.8376	-2.3487	-27.7171
 435	1	2	-0.172056	-23.0067	-2.28845	-28.8133
 436	1	2	-0.198933	-24.1977	-1.72208	-28.3277
 437	1	2	0.236899	-22.1651	-1.55955	-29.6681
 438	1	2	0.029337	-24.5668	-0.391673	-28.64
 439	1	4	0.180684	-25.9354	0.181923	-28.1832
 440	1	2	-0.223565	-22.5098	-0.232195	-29.9787
 441	1	2	-0.141841	-23.6976	0.345623	-29.4761
 442	1	1	0.17153	-21.855	0.343672	-30.6265
 443	1	1	0.139148	-23.9532	1.36429	-29.7589
 444	1	2	-0.185386	-21.6156	-4.42954	-30.6394
 445	1	1	0.155741	-22.6266	-4.12801	-30.8966
 446	1	4	-0.198622	-26.4164	-0.463589	-26.8515
 447	1	4	-0.188008	-26.9676	-0.224471	-29.271
 448	1	5	0.060726	-25.6415	-0.395105	-26.0773
 449	1	5	0.058265	-26.686	-1.5191	-26.975
 450	1	5	0.044015	-27.3104	0.0488974	-26.473
 451	1	5	0.049647	-26.9375	-1.30663	-29.4517
 452	1	5	0.045128	-26.7542	0.275358	-30.2244
 453	1	5	0.061555	-27.9932	0.0221606	-28.9675
 454	1	1	0.151962	-27.6721	2.22209	-29.1143
 455	1	2	-0.211106	-26.9278	2.57456	-28.4083
 456	1	2	-0.169243	-27.0412	3.9	-27.9514
 457	1	1	0.166678	-27.846	4.53352	-28.313
 458	1	2	0.259195	-26.1579	4.39746	-26.982
 459	1	2	-0.207473	-25.1116	3.58046	-26.5268
 460	1	1	0.171716	-24.4243	3.96406	-25.7781
 461	1	2	-0.169975	-24.9954	2.25047	-26.9849
 462	1	1	0.141932	-24.2157	1.61437	-26.5716
 463	1	2	0.050656	-25.9209	1.71137	-27.9089
 464	1	6	0.518059	-19.2355	-7.46871	-30.4323
 465	1	6	0.507614	-17.6644	-5.85591	-29.9728
 466	1	7	-0.122906	-17.8969	-7.20825	-30.1712
 467	1	8	-0.496938	-19.7414	-8.53969	-30.7163
 468	1	8	-0.484992	-16.5844	-5.3025	-29.9062
 469	1	2	-0.048962	-29.2774	7.80764	-25.803
 470	1	6	0.0776	-29.9913	9.1105	-25.9303
 471	1	8	-0.391129	-29.5358	10.132	-26.4174
 472	1	2	0.038503	-30.1385	6.90767	-25.2027
 473	1	6	0.061082	-31.4308	7.58728	-24.9332
 474	1	7	0.459351	-31.2696	8.89261	-25.4032
 475	1	8	-0.403808	-32.4148	7.07495	-24.4238
 476	1	2	-0.02278	-27.989	7.42294	-26.2138
 477	1	2	-0.06542	-29.762	5.58276	-24.9567
 478	1	2	0.157218	-27.5941	6.08208	-26.0034
 479	1	1	0.144625	-27.3258	8.1301	-26.7031
 480	1	2	-0.259423	-28.473	5.17616	-25.3603
 481	1	3	-0.32062	-26.3549	5.65155	-26.4389
 482	1	1	0.165981	-30.4565	4.89392	-24.4799
 483	1	1	0.168674	-28.1578	4.15121	-25.1852
 484	1	1	0.207625	-33.8455	8.5405	-26.1343
 485	1	2	-0.428502	-33.6276	9.54688	-25.7839
 486	1	2	-0.035773	-34.6712	10.489	-25.7266
 487	1	1	0.142536	-35.6708	10.2008	-26.046
 488	1	2	0.020215	-34.4354	11.7938	-25.2541
 489	1	2	-0.058677	-33.1301	12.1365	-24.8496
 490	1	1	0.147375	-32.9255	13.1403	-24.482
 491	1	2	-0.40884	-32.0866	11.1902	-24.9112
 492	1	1	0.20403	-31.0864	11.4813	-24.5982
 493	1	2	0.301824	-32.3174	9.87519	-25.3718
 494	1	2	-0.079086	-36.9674	14.3647	-24.4503
 495	1	2	-0.121043	-37.6757	15.3326	-23.7182
 496	1	1	0.148865	-37.3737	15.6029	-22.7103
 497	1	2	0.229196	-38.7935	15.9441	-24.3237
 498	1	3	-0.312503	-39.5152	16.8711	-23.6023
 499	1	1	0.177824	-38.7733	14.2742	-27.3456
 500	1	2	-0.142744	-38.4735	14.583	-26.3452
 501	1	2	-0.093344	-37.356	14.0033	-25.7261
 502	1	1	0.162888	-38.5466	18.3927	-25.5891
 503	1	1	0.147794	-39.5325	20.5058	-26.3847
 504	1	2	-0.172056	-39.472	18.7508	-25.1487
 505	1	2	-0.198933	-40.0419	19.9573	-25.5986
 506	1	2	0.236899	-40.0759	18.0256	-24.1088
 507	1	2	0.029337	-41.2285	20.4697	-25.0213
 508	1	4	0.180684	-41.8079	21.8331	-25.4778
 509	1	2	-0.223565	-41.239	18.5317	-23.5117
 510	1	2	-0.141841	-41.8095	19.74	-23.9584
 511	1	1	0.17153	-41.6879	17.987	-22.6864
 512	1	1	0.139148	-42.6982	20.1127	-23.4556
 513	1	2	-0.185386	-39.1953	15.5613	-25.6262
 514	1	1	0.155741	-40.0777	16.0147	-26.0688
 515	1	4	-0.198622	-41.6994	22.0038	-27.0214
 516	1	4	-0.188008	-40.9244	22.9456	-24.8494
 517	1	5	0.060726	-40.6626	22.1406	-27.3504
 518	1	5	0.058265	-42.2598	22.888	-27.3522
 519	1	5	0.044015	-42.1038	21.1325	-27.5509
 520	1	5	0.049647	-40.9354	22.8871	-23.7536
 521	1	5	0.045128	-41.2663	23.9444	-25.1506
 522	1	5	0.061555	-39.8791	22.846	-25.1681
 523	1	1	0.151962	-43.0963	23.6462	-23.6985
 524	1	2	-0.211106	-43.7816	22.9751	-24.206
 525	1	2	-0.169243	-45.1584	23.1242	-23.9502
 526	1	1	0.166678	-45.5051	23.8848	-23.2569
 527	1	2	0.259195	-46.0945	22.3024	-24.5976
 528	1	2	-0.207473	-45.6408	21.2943	-25.4575
 529	1	1	0.171716	-46.3661	20.6448	-25.9384
 530	1	2	-0.169975	-44.2643	21.1378	-25.7088
 531	1	1	0.141932	-43.9387	20.3543	-26.3883
 532	1	2	0.050656	-43.3086	21.9883	-25.1069
 533	1	6	0.518059	-36.4172	12.9549	-26.2156
 534	1	6	0.507614	-35.7663	13.5569	-24.0904
 535	1	7	-0.122906	-35.5025	12.7444	-25.1892
 536	1	8	-0.496938	-36.4663	12.4022	-27.3008
 537	1	8	-0.484992	-35.1523	13.6152	-23.0394
 538	1	2	-0.048962	-50.0542	24.8917	-23.5752
 539	1	6	0.0776	-51.3511	25.2312	-22.9329
 540	1	8	-0.391129	-52.0616	24.4522	-22.3186
 541	1	2	0.038503	-49.5676	26.0267	-24.193
 542	1	6	0.061082	-50.5207	27.1405	-23.9588
 543	1	7	0.459351	-51.5627	26.5891	-23.2034
 544	1	8	-0.403808	-50.3722	28.2901	-24.3416
 545	1	2	-0.02278	-49.355	23.677	-23.6216
 546	1	2	-0.06542	-48.3663	26.0123	-24.9116
 547	1	2	0.157218	-48.13	23.6381	-24.3204
 548	1	1	0.144625	-49.7466	22.7894	-23.1334
 549	1	2	-0.259423	-47.6499	24.7976	-24.9792
 550	1	3	-0.32062	-47.4485	22.4405	-24.383
 551	1	1	0.165981	-48.0125	26.9144	-25.4068
 552	1	1	0.168674	-46.7281	24.7551	-25.5525
 553	1	1	0.207625	-52.87	28.5563	-24.5451
 554	1	2	-0.428502	-53.2914	28.3375	-23.5668
 555	1	2	-0.035773	-54.3882	29.0962	-23.1202
 556	1	1	0.142536	-54.7938	29.8832	-23.7529
 557	1	2	0.020215	-54.9536	28.8547	-21.8565
 558	1	2	-0.058677	-54.4049	27.8445	-21.0476
 559	1	1	0.147375	-54.8386	27.6397	-20.0706
 560	1	2	-0.40884	-53.2919	27.1042	-21.4892
 561	1	1	0.20403	-52.8848	26.3341	-20.8382
 562	1	2	0.301824	-52.7101	27.3348	-22.7572
 563	1	2	-0.079086	-57.3455	31.4333	-20.7859
 564	1	2	-0.121043	-57.854	32.707	-20.4954
 565	1	1	0.148865	-57.265	33.602	-20.6755
 566	1	2	0.229196	-59.1517	32.7917	-19.9577
 567	1	3	-0.312503	-59.6617	34.0265	-19.6433
 568	1	1	0.177824	-59.9374	29.4351	-19.8087
 569	1	2	-0.142744	-59.3743	30.3471	-20.0022
 570	1	2	-0.093344	-58.0799	30.2876	-20.5406
 571	1	1	0.162888	-60.8211	33.3118	-21.9647
 572	1	1	0.147794	-62.8306	34.3428	-22.9275
 573	1	2	-0.172056	-61.3211	34.1091	-21.4231
 574	1	2	-0.198933	-62.4713	34.7071	-21.9705
 575	1	2	0.236899	-60.8059	34.5554	-20.194
 576	1	2	0.029337	-63.1275	35.766	-21.299
 577	1	4	0.180684	-64.3744	36.4792	-21.8735
 578	1	2	-0.223565	-61.441	35.6081	-19.5242
 579	1	2	-0.141841	-62.5891	36.2081	-20.0703
 580	1	1	0.17153	-61.0309	35.9614	-18.5827
 581	1	1	0.139148	-63.063	37.0281	-19.5354
 582	1	2	-0.185386	-59.9078	31.622	-19.7118
 583	1	1	0.155741	-60.9011	31.7117	-19.2807
 584	1	4	-0.198622	-65.0015	35.7332	-23.0819
 585	1	4	-0.188008	-63.8997	37.8654	-22.3895
 586	1	5	0.060726	-64.3182	35.7081	-23.94
 587	1	5	0.058265	-65.9204	36.2355	-23.4109
 588	1	5	0.044015	-65.2656	34.7014	-22.817
 589	1	5	0.049647	-63.5744	38.5076	-21.5613
 590	1	5	0.045128	-64.6913	38.3876	-22.941
 591	1	5	0.061555	-63.0487	37.7504	-23.0733
 592	1	1	0.151962	-66.0975	38.6276	-21.223
 593	1	2	-0.211106	-66.2563	37.7475	-20.6083
 594	1	2	-0.169243	-67.2681	37.7907	-19.6309
 595	1	1	0.166678	-67.8662	38.6871	-19.4959
 596	1	2	0.259195	-67.5219	36.6696	-18.8277
 597	1	2	-0.207473	-66.7569	35.5091	-18.9925
 598	1	1	0.171716	-66.9615	34.6457	-18.3666
 599	1	2	-0.169975	-65.7479	35.4623	-19.9712
 600	1	1	0.141932	-65.1753	34.546	-20.0952
 601	1	2	0.050656	-65.4732	36.5821	-20.7892
 602	1	6	0.518059	-57.2444	29.1155	-20.9257
 603	1	6	0.507614	-56.0296	31.0284	-21.3473
 604	1	7	-0.122906	-56.0469	29.6408	-21.394
 605	1	8	-0.496938	-57.5601	27.9428	-20.8278
 606	1	8	-0.484992	-55.1356	31.7782	-21.6984
 607	1	2	-0.048962	-72.143	36.9865	-17.4241
 608	1	6	0.0776	-73.3197	37.1255	-16.5266
 609	1	8	-0.391129	-73.2835	37.239	-15.3121
 610	1	2	0.038503	-72.5994	36.8809	-18.7241
 611	1	6	0.061082	-74.0804	36.9574	-18.7151
 612	1	7	0.459351	-74.4342	37.0877	-17.3698
 613	1	8	-0.403808	-74.8026	36.9414	-19.6992
 614	1	2	-0.02278	-70.775	36.938	-17.1243
 615	1	2	-0.06542	-71.7212	36.7116	-19.7997
 616	1	2	0.157218	-69.8656	36.7713	-18.1892
 617	1	1	0.144625	-70.4249	37.0157	-16.0991
 618	1	2	-0.259423	-70.3398	36.6509	-19.5205
 619	1	3	-0.32062	-68.5234	36.6918	-17.8886
 620	1	1	0.165981	-72.1056	36.6169	-20.8134
 621	1	1	0.168674	-69.644	36.4973	-20.3402
 622	1	1	0.207625	-75.4274	38.7809	-15.4969
 623	1	2	-0.428502	-76.1769	38.137	-15.9513
 624	1	2	-0.035773	-77.5224	38.2764	-15.5664
 625	1	1	0.142536	-77.7903	39.0333	-14.8323
 626	1	2	0.020215	-78.5228	37.4735	-16.1489
 627	1	2	-0.058677	-78.1408	36.5032	-17.0932
 628	1	1	0.147375	-78.8903	35.8723	-17.5659
 629	1	2	-0.40884	-76.7952	36.3643	-17.4709
 630	1	1	0.20403	-76.5398	35.6289	-18.2309
 631	1	2	0.301824	-75.7912	37.1884	-16.9217
 632	1	2	-0.079086	-81.9228	38.7611	-15.6469
 633	1	2	-0.121043	-82.9516	39.705	-15.6025
 634	1	1	0.148865	-82.7061	40.7619	-15.6312