pySIMM System Object

899 atoms
989 bonds
1664 angles
2570 dihedrals
312 impropers

9 atom types
11 bond types
18 angle types
9 dihedral types
4 improper types

-143.468890 143.468890 xlo xhi
-143.468890 143.468890 ylo yhi
-143.468890 143.468890 zlo zhi

Masses

   1	1.008	# ha
   2	12.01	# ca
   3	16.0	# os
   4	12.01	# c3
   5	1.008	# hc
   6	12.01	# c
   7	14.01	# n
   8	16.0	# o
   9	1.008	# hn

Pair Coeffs

   1	0.015	2.59964245953351	# ha
   2	0.086	3.3996695084235347	# ca
   3	0.17	3.0000123434657784	# os
   4	0.1094	3.3996695084235347	# c3
   5	0.0157	2.649532787749369	# hc
   6	0.086	3.3996695084235347	# c
   7	0.17	3.249998523775958	# n
   8	0.21	2.959921901149463	# o
   9	0.0157	1.069078461768407	# hn

Bond Coeffs

   1	461.1	1.3984	# ca,ca
   2	427.6	1.3789	# c,n
   3	345.9	1.4906	# c,ca
   4	300.9	1.5375	# c3,c3
   5	345.8	1.086	# ca,ha
   6	384.2	1.4121	# ca,n
   7	321.0	1.5156	# c3,ca
   8	330.6	1.0969	# c3,hc
   9	637.7	1.2183	# c,o
  10	376.6	1.3696	# ca,os
  11	403.2	1.0129	# hn,n

Angle Coeffs

   1	46.34	109.8	# c3,c3,hc
   2	74.22	123.05	# n,c,o
   3	48.33	117.55	# c,n,hn
   4	63.56	112.24	# ca,c3,ca
   5	63.48	119.89	# ca,os,ca
   6	62.86	111.51	# c3,c3,c3
   7	66.62	120.02	# ca,ca,ca
   8	64.28	120.33	# c,ca,ca
   9	63.15	112.07	# c3,c3,ca
  10	39.4	107.58	# hc,c3,hc
  11	48.18	119.88	# ca,ca,ha
  12	63.53	120.77	# c3,ca,ca
  13	63.74	127.08	# c,n,c
  14	67.68	115.25	# ca,c,n
  15	63.82	123.71	# c,n,ca
  16	68.72	122.6	# ca,c,o
  17	67.87	120.19	# ca,ca,n
  18	69.58	119.2	# ca,ca,os

Dihedral Coeffs

   1	1	3.625	2	180	# X,ca,ca,X
   2	1	1.0	2	180	# X,c,ca,X
   3	1	0.0	2	0	# X,c3,ca,X
   4	1	0.15555555555555556	3	0	# X,c3,c3,X
   5	1	0.9	2	180	# X,ca,os,X
   6	1	2.5	2	180	# X,c,n,X
   7	1	0.45	2	180	# X,ca,n,X
   8	1	0.16	3	0	# hc,c3,c3,c3
   9	2	2.5	2	180	2.0	1	0	# hn,n,c,o

Improper Coeffs

   1	1.1	-1	2	# n,X,X,hn
   2	1.1	-1	2	# ca,ca,ca,c3
   3	10.5	-1	2	# c,X,X,o
   4	1.1	-1	2	# ca,X,X,ha

Atoms

   1	1	1	0.207625	-6.62533	39.8343	-105.688
   2	1	2	-0.428502	-5.87727	39.9566	-106.465
   3	1	2	-0.035773	-4.72853	39.1461	-106.475
   4	1	1	0.142536	-4.58546	38.3906	-105.706
   5	1	2	0.020215	-3.76675	39.3047	-107.488
   6	1	2	-0.058677	-3.95313	40.2763	-108.486
   7	1	1	0.147375	-3.2111	40.3961	-109.272
   8	1	2	-0.40884	-5.10444	41.0843	-108.469
   9	1	1	0.20403	-5.25827	41.8333	-109.239
  10	1	2	0.301824	-6.0676	40.9244	-107.462
  11	1	2	-0.079086	-0.607777	37.5225	-107.016
  12	1	2	-0.121043	0.629224	37.1897	-106.448
  13	1	1	0.148865	1.1354	37.8656	-105.765
  14	1	2	0.229196	1.15245	35.9139	-106.725
  15	1	3	-0.312503	2.25773	35.4817	-106.039
  16	1	1	0.177824	-1.34153	34.6797	-108.765
  17	1	2	-0.142744	-0.776783	35.3723	-108.142
  18	1	2	-0.093344	-1.2922	36.637	-107.831
  19	1	1	0.162888	3.55471	33.2081	-106.192
  20	1	1	0.147794	3.06402	31.1816	-104.874
  21	1	2	-0.172056	2.81294	33.2416	-105.4
  22	1	2	-0.198933	2.51741	32.0911	-104.647
  23	1	2	0.236899	2.10181	34.4258	-105.18
  24	1	2	0.029337	1.50162	32.1118	-103.659
  25	1	4	0.180684	1.0435	30.843	-102.899
  26	1	2	-0.223565	1.13708	34.4824	-104.164
  27	1	2	-0.141841	0.849224	33.3381	-103.402
  28	1	1	0.17153	0.585982	35.4028	-103.995
  29	1	1	0.139148	0.0823548	33.3967	-102.634
  30	1	2	-0.185386	0.462743	35.0158	-107.573
  31	1	1	0.155741	0.873648	34.0259	-107.749
  32	1	4	-0.198622	1.7347	29.554	-103.418
  33	1	4	-0.188008	-0.479361	30.6691	-103.175
  34	1	5	0.060726	1.35302	28.668	-102.896
  35	1	5	0.058265	2.81796	29.5902	-103.248
  36	1	5	0.044015	1.5533	29.4096	-104.491
  37	1	5	0.049647	-1.07479	31.4205	-102.642
  38	1	5	0.045128	-0.84298	29.68	-102.872
  39	1	5	0.061555	-0.690835	30.7736	-104.248
  40	1	1	0.151962	-0.272845	29.652	-100.74
  41	1	2	-0.211106	0.581514	30.2471	-100.434
  42	1	2	-0.169243	0.919455	30.2766	-99.0697
  43	1	1	0.166678	0.327754	29.7279	-98.3433
  44	1	2	0.259195	2.03533	31.0021	-98.6362
  45	1	2	-0.207473	2.80173	31.7211	-99.5631
  46	1	1	0.171716	3.66118	32.2872	-99.2168
  47	1	2	-0.169975	2.47226	31.6842	-100.931
  48	1	1	0.141932	3.10427	32.2196	-101.635
  49	1	2	0.050656	1.35273	30.9505	-101.389
  50	1	6	0.518059	-2.60579	37.2437	-108.171
  51	1	6	0.507614	-1.46395	38.7205	-106.813
  52	1	7	-0.122906	-2.63037	38.4626	-107.514
  53	1	8	-0.496938	-3.49796	36.7246	-108.818
  54	1	8	-0.484992	-1.21283	39.6785	-106.103
  55	1	2	-0.048962	3.66762	28.5311	-94.9255
  56	1	6	0.0776	3.56579	27.8215	-93.6259
  57	1	8	-0.391129	2.68113	27.9586	-92.7975
  58	1	2	0.038503	4.80833	28.0916	-95.5728
  59	1	6	0.061082	5.49512	27.1014	-94.7012
  60	1	7	0.459351	4.68978	26.9982	-93.5674
  61	1	8	-0.403808	6.54947	26.5344	-94.9385
  62	1	2	-0.02278	2.83368	29.5071	-95.4865
  63	1	2	-0.06542	5.16634	28.5829	-96.8342
  64	1	2	0.157218	3.1721	30.0177	-96.7554
  65	1	1	0.144625	1.95322	29.8599	-94.9578
  66	1	2	-0.259423	4.3284	29.5521	-97.4284
  67	1	3	-0.32062	2.37512	30.9935	-97.3076
  68	1	1	0.165981	6.06781	28.2258	-97.3279
  69	1	1	0.168674	4.58752	29.9548	-98.4025
  70	1	1	0.207625	6.85817	27.1929	-91.9855
  71	1	2	-0.428502	6.15937	26.4194	-91.6763
  72	1	2	-0.035773	6.41887	25.6838	-90.5069
  73	1	1	0.142536	7.30731	25.9205	-89.9261
  74	1	2	0.020215	5.53396	24.673	-90.0756
  75	1	2	-0.058677	4.39179	24.4064	-90.8586
  76	1	1	0.147375	3.68709	23.6363	-90.5523
  77	1	2	-0.40884	4.12481	25.158	-92.0187
  78	1	1	0.20403	3.21176	24.9686	-92.5776
  79	1	2	0.301824	4.99866	26.1819	-92.4376
  80	1	2	-0.079086	6.81574	23.1132	-86.9861
  81	1	2	-0.121043	7.74476	22.7423	-86.0061
  82	1	1	0.148865	8.81224	22.8214	-86.1904
  83	1	2	0.229196	7.26202	22.2886	-84.7646
  84	1	3	-0.312503	8.2001	21.9845	-83.8057
  85	1	1	0.177824	3.87059	22.5725	-85.3531
  86	1	2	-0.142744	4.94564	22.6003	-85.5261
  87	1	2	-0.093344	5.45821	23.0631	-86.7475
  88	1	1	0.162888	9.1271	19.566	-83.5718
  89	1	1	0.147794	8.96115	18.1203	-81.5828
  90	1	2	-0.172056	8.58434	19.9098	-82.6962
  91	1	2	-0.198933	8.4879	19.0964	-81.554
  92	1	2	0.236899	8.00228	21.1822	-82.7117
  93	1	2	0.029337	7.81137	19.5515	-80.3972
  94	1	4	0.180684	7.70208	18.7058	-79.1046
  95	1	2	-0.223565	7.33472	21.6557	-81.5735
  96	1	2	-0.141841	7.23277	20.8416	-80.4297
  97	1	1	0.17153	6.91869	22.6589	-81.5745
  98	1	1	0.139148	6.72155	21.2254	-79.5499
  99	1	2	-0.185386	5.86645	22.201	-84.5308
 100	1	1	0.155741	5.49514	21.85	-83.5735
 101	1	4	-0.198622	8.44835	17.348	-79.1989
 102	1	4	-0.188008	6.19589	18.3778	-78.9018
 103	1	5	0.060726	8.0411	16.7222	-80.0033
 104	1	5	0.058265	8.35112	16.785	-78.2619
 105	1	5	0.044015	9.52032	17.4973	-79.3811
 106	1	5	0.049647	5.76698	17.9563	-79.8202
 107	1	5	0.045128	5.62056	19.2767	-78.6475
 108	1	5	0.061555	6.04235	17.6385	-78.1062
 109	1	1	0.151962	9.93744	20.3329	-79.0757
 110	1	2	-0.211106	9.47813	20.2597	-78.0927
 111	1	2	-0.169243	10.0542	20.9658	-77.0194
 112	1	1	0.166678	10.9295	21.5861	-77.1805
 113	1	2	0.259195	9.48175	20.8918	-75.7414
 114	1	2	-0.207473	8.34127	20.1056	-75.5386
 115	1	1	0.171716	7.90184	20.0565	-74.547
 116	1	2	-0.169975	7.7682	19.3937	-76.6078
 117	1	1	0.141932	6.89353	18.7836	-76.4081
 118	1	2	0.050656	8.31345	19.4773	-77.9104
 119	1	6	0.518059	4.76424	23.6189	-87.942
 120	1	6	0.507614	7.03021	23.669	-88.3469
 121	1	7	-0.122906	5.7663	23.9803	-88.8424
 122	1	8	-0.496938	3.55994	23.7743	-88.0474
 123	1	8	-0.484992	8.11432	23.8326	-88.8795
 124	1	2	-0.048962	12.7918	20.7313	-72.5584
 125	1	6	0.0776	13.2873	20.0897	-71.3174
 126	1	8	-0.391129	12.6638	19.3075	-70.6183
 127	1	2	0.038503	13.7677	21.5949	-73.0231
 128	1	6	0.061082	14.9331	21.5314	-72.0998
 129	1	7	0.459351	14.5437	20.6525	-71.0887
 130	1	8	-0.403808	15.942	22.2155	-72.1621
 131	1	2	-0.02278	11.5185	20.6782	-73.1383
 132	1	2	-0.06542	13.5248	22.4552	-74.1022
 133	1	2	0.157218	11.251	21.5387	-74.2205
 134	1	1	0.144625	10.7411	20.0467	-72.7192
 135	1	2	-0.259423	12.2437	22.4239	-74.6978
 136	1	3	-0.32062	9.96797	21.6332	-74.6947
 137	1	1	0.165981	14.2855	23.1655	-74.4197
 138	1	1	0.168674	11.9966	23.1237	-75.4907
 139	1	1	0.207625	13.5215	21.0874	-68.6658
 140	1	2	-0.428502	14.5675	20.7907	-68.6445
 141	1	2	-0.035773	15.2214	20.6877	-67.409
 142	1	1	0.142536	14.6766	20.9124	-66.4942
 143	1	2	0.020215	16.571	20.3003	-67.3475
 144	1	2	-0.058677	17.2575	20.0128	-68.5426
 145	1	1	0.147375	18.3012	19.7068	-68.5055
 146	1	2	-0.40884	16.5987	20.1255	-69.7844
 147	1	1	0.20403	17.1469	19.9245	-70.7016
 148	1	2	0.301824	15.2413	20.51	-69.85
 149	1	2	-0.079086	18.1374	19.3129	-64.1746
 150	1	2	-0.121043	18.6469	18.4637	-63.1792
 151	1	1	0.148865	18.9459	17.4467	-63.4166
 152	1	2	0.229196	18.6922	18.958	-61.8565
 153	1	3	-0.312503	19.0784	18.1782	-60.797
 154	1	1	0.177824	17.3712	22.1022	-62.3547
 155	1	2	-0.142744	17.7484	21.1045	-62.5739
 156	1	2	-0.093344	17.7022	20.5916	-63.8758
 157	1	1	0.162888	18.3389	15.6561	-60.842
 158	1	1	0.147794	19.875	13.708	-60.7061
 159	1	2	-0.172056	19.4143	15.8077	-60.8476
 160	1	2	-0.198933	20.2897	14.7115	-60.7676
 161	1	2	0.236899	19.9275	17.1094	-60.8804
 162	1	2	0.029337	21.6884	14.9024	-60.6941
 163	1	4	0.180684	22.5942	13.6733	-60.4523
 164	1	2	-0.223565	21.3114	17.3186	-60.8626
 165	1	2	-0.141841	22.1895	16.2237	-60.7747
 166	1	1	0.17153	21.6961	18.334	-60.8696
 167	1	1	0.139148	23.2551	16.424	-60.7294
 168	1	2	-0.185386	18.2484	20.2642	-61.5606
 169	1	1	0.155741	18.2699	20.6075	-60.5302
 170	1	4	-0.198622	24.0711	14.0489	-60.1547
 171	1	4	-0.188008	22.5945	12.8279	-61.7547
 172	1	5	0.060726	24.5402	14.5423	-61.0156
 173	1	5	0.058265	24.6604	13.1512	-59.9284
 174	1	5	0.044015	24.1464	14.7188	-59.2888
 175	1	5	0.049647	22.8934	13.4419	-62.6139
 176	1	5	0.045128	21.5971	12.4233	-61.9682
 177	1	5	0.061555	23.2991	11.9892	-61.6893
 178	1	1	0.151962	22.0855	10.9044	-60.0983
 179	1	2	-0.211106	21.8374	11.5044	-59.2287
 180	1	2	-0.169243	21.2723	10.8602	-58.1119
 181	1	1	0.166678	21.0875	9.7904	-58.1262
 182	1	2	0.259195	20.9264	11.5964	-56.9714
 183	1	2	-0.207473	21.1571	12.977	-56.937
 184	1	1	0.171716	20.8789	13.543	-56.0531
 185	1	2	-0.169975	21.7187	13.6236	-58.0526
 186	1	1	0.141932	21.87	14.7001	-58.0167
 187	1	2	0.050656	22.0499	12.9037	-59.2244
 188	1	6	0.518059	17.1201	21.1847	-65.1055
 189	1	6	0.507614	17.8415	19.0536	-65.6119
 190	1	7	-0.122906	17.2051	20.1975	-66.0779
 191	1	8	-0.496938	16.5829	22.2758	-65.1859
 192	1	8	-0.484992	18.0395	18.0116	-66.212
 193	1	2	-0.048962	20.9994	10.1013	-52.4122
 194	1	6	0.0776	20.5353	9.9637	-51.0061
 195	1	8	-0.391129	19.4044	10.1565	-50.5921
 196	1	2	0.038503	22.3564	9.83399	-52.4509
 197	1	6	0.061082	22.8132	9.50836	-51.0778
 198	1	7	0.459351	21.6766	9.62576	-50.2822
 199	1	8	-0.403808	23.9561	9.25305	-50.735
 200	1	2	-0.02278	20.2982	10.4798	-53.5641
 201	1	2	-0.06542	23.0925	9.93196	-53.6369
 202	1	2	0.157218	21.0182	10.5951	-54.7708
 203	1	1	0.144625	19.2349	10.697	-53.5249
 204	1	2	-0.259423	22.4074	10.3193	-54.808
 205	1	3	-0.32062	20.3357	10.9703	-55.9031
 206	1	1	0.165981	24.1609	9.72542	-53.639
 207	1	1	0.168674	22.956	10.4054	-55.7416
 208	1	1	0.207625	21.1486	7.43524	-48.7769
 209	1	2	-0.428502	21.4541	8.30632	-48.2036
 210	1	2	-0.035773	21.6118	8.19787	-46.809
 211	1	1	0.142536	21.4267	7.24333	-46.3201
 212	1	2	0.020215	22.0401	9.30514	-46.0499
 213	1	2	-0.058677	22.2727	10.5302	-46.7028
 214	1	1	0.147375	22.6116	11.3945	-46.1354
 215	1	2	-0.40884	22.1161	10.6357	-48.0945
 216	1	1	0.20403	22.3401	11.5787	-48.5862
 217	1	2	0.301824	21.7227	9.52303	-48.863
 218	1	2	-0.079086	23.3469	9.26145	-42.6112
 219	1	2	-0.121043	24.2418	9.46485	-41.5521
 220	1	1	0.148865	25.1676	10.0148	-41.6957
 221	1	2	0.229196	23.9116	8.91321	-40.2997
 222	1	3	-0.312503	24.7652	9.06738	-39.2371
 223	1	1	0.177824	20.9069	7.41629	-41.0947
 224	1	2	-0.142744	21.8272	7.98792	-41.207
 225	1	2	-0.093344	22.1742	8.54923	-42.4447
 226	1	1	0.162888	26.8099	9.5017	-37.6942
 227	1	1	0.147794	27.3062	11.5842	-36.457
 228	1	2	-0.172056	26.1721	10.3718	-37.819
 229	1	2	-0.198933	26.4526	11.5642	-37.1274
 230	1	2	0.236899	25.0491	10.279	-38.6496
 231	1	2	0.029337	25.6237	12.7016	-37.2652
 232	1	4	0.180684	25.8939	13.9673	-36.4069
 233	1	2	-0.223565	24.2142	11.3979	-38.8033
 234	1	2	-0.141841	24.5033	12.5967	-38.1262
 235	1	1	0.17153	23.3251	11.3338	-39.4229
 236	1	1	0.139148	23.8166	13.4268	-38.2527
 237	1	2	-0.185386	22.7191	8.17551	-40.1284
 238	1	1	0.155741	22.4966	7.74808	-39.1548
 239	1	4	-0.198622	25.1239	15.2149	-36.9238
 240	1	4	-0.188008	27.4029	14.3403	-36.5028
 241	1	5	0.060726	25.3542	15.4118	-37.979
 242	1	5	0.058265	25.3973	16.1087	-36.3485
 243	1	5	0.044015	24.0385	15.0947	-36.8224
 244	1	5	0.049647	27.7184	14.4067	-37.5521
 245	1	5	0.045128	28.0439	13.6023	-36.0069
 246	1	5	0.061555	27.6055	15.3137	-36.038
 247	1	1	0.151962	23.5245	12.8546	-35.604
 248	1	2	-0.211106	24.1578	13.097	-34.7557
 249	1	2	-0.169243	23.6978	12.7902	-33.4655
 250	1	1	0.166678	22.7345	12.3091	-33.3258
 251	1	2	0.259195	24.4812	13.0786	-32.3436
 252	1	2	-0.207473	25.7441	13.67	-32.5185
 253	1	1	0.171716	26.3725	13.8613	-31.6542
 254	1	2	-0.169975	26.2072	13.983	-33.8144
 255	1	1	0.141932	27.1862	14.4409	-33.9152
 256	1	2	0.050656	25.4262	13.6845	-34.9584
 257	1	6	0.518059	21.4784	8.49478	-43.7603
 258	1	6	0.507614	23.4394	9.6745	-44.0343
 259	1	7	-0.122906	22.2985	9.17529	-44.6533
 260	1	8	-0.496938	20.4184	7.93815	-43.9879
 261	1	8	-0.484992	24.3557	10.3033	-44.5349
 262	1	2	-0.048962	23.966	13.0518	-27.4975
 263	1	6	0.0776	23.7629	12.4513	-26.1562
 264	1	8	-0.391129	23.4524	11.2945	-25.9246
 265	1	2	0.038503	24.3	14.3834	-27.3391
 266	1	6	0.061082	24.3551	14.6808	-25.882
 267	1	7	0.459351	24.0327	13.4772	-25.2518
 268	1	8	-0.403808	24.6714	15.7435	-25.3719
 269	1	2	-0.02278	23.8875	12.4622	-28.7632
 270	1	2	-0.06542	24.5369	15.2119	-28.4449
 271	1	2	0.157218	24.1414	13.2652	-29.8917
 272	1	1	0.144625	23.6355	11.4116	-28.8727
 273	1	2	-0.259423	24.4407	14.6417	-29.7358
 274	1	3	-0.32062	24.0045	12.6641	-31.1215
 275	1	1	0.165981	24.7774	16.2633	-28.3003
 276	1	1	0.168674	24.586	15.2694	-30.6099
 277	1	1	0.207625	26.1533	13.8771	-23.6604
 278	1	2	-0.428502	25.2818	13.4976	-23.1325
 279	1	2	-0.035773	25.3762	13.2099	-21.76
 280	1	1	0.142536	26.3208	13.3539	-21.24
 281	1	2	0.020215	24.2641	12.7089	-21.0616
 282	1	2	-0.058677	23.0522	12.5102	-21.7466
 283	1	1	0.147375	22.19	12.1141	-21.2142
 284	1	2	-0.40884	22.9657	12.7837	-23.1256
 285	1	1	0.20403	22.0368	12.5811	-23.6533
 286	1	2	0.301824	24.0815	13.2748	-23.8383
 287	1	2	-0.079086	25.0893	11.2781	-17.7883
 288	1	2	-0.121043	25.7029	10.4407	-16.8488
 289	1	1	0.148865	26.3775	9.64997	-17.1651
 290	1	2	0.229196	25.4374	10.6554	-15.4833
 291	1	3	-0.312503	26.078	9.82181	-14.5941
 292	1	1	0.177824	23.2879	13.3462	-15.7604
 293	1	2	-0.142744	23.9531	12.5338	-16.0494
 294	1	2	-0.093344	24.2288	12.2886	-17.4041
 295	1	1	0.162888	28.202	10.056	-13.1384
 296	1	1	0.147794	28.3275	9.878	-10.6832
 297	1	2	-0.172056	27.2909	9.95348	-12.5561
 298	1	2	-0.198933	27.3512	9.8523	-11.1568
 299	1	2	0.236899	26.0631	9.87248	-13.221
 300	1	2	0.029337	26.1812	9.65949	-10.3854
 301	1	4	0.180684	26.2963	9.43031	-8.85727
 302	1	2	-0.223565	24.8883	9.67311	-12.4781
 303	1	2	-0.141841	24.9464	9.56986	-11.0716
 304	1	1	0.17153	23.9429	9.55009	-12.9977
 305	1	1	0.139148	24.0283	9.37699	-10.5231
 306	1	2	-0.185386	24.5758	11.7079	-15.0838
 307	1	1	0.155741	24.3943	11.8904	-14.0297
 308	1	4	-0.198622	27.3084	10.4313	-8.22533
 309	1	4	-0.188008	26.8907	8.00931	-8.65384
 310	1	5	0.060726	28.3426	10.2232	-8.52298
 311	1	5	0.058265	27.2745	10.3749	-7.12952
 312	1	5	0.044015	27.0813	11.465	-8.5141
 313	1	5	0.049647	26.2219	7.24116	-9.06224
 314	1	5	0.045128	27.0641	7.79572	-7.59131
 315	1	5	0.061555	27.8557	7.90647	-9.16605
 316	1	1	0.151962	24.7987	7.62179	-7.23824
 317	1	2	-0.211106	24.3703	8.6178	-7.28842
 318	1	2	-0.169243	23.2629	8.90018	-6.46241
 319	1	1	0.166678	22.8711	8.14118	-5.79139
 320	1	2	0.259195	22.7102	10.1891	-6.4403
 321	1	2	-0.207473	23.2442	11.1809	-7.27155
 322	1	1	0.171716	22.8297	12.1834	-7.22791
 323	1	2	-0.169975	24.3453	10.9003	-8.101
 324	1	1	0.141932	24.7674	11.6993	-8.70523
 325	1	2	0.050656	24.9539	9.62526	-8.0994
 326	1	6	0.518059	23.7567	12.9803	-18.6399
 327	1	6	0.507614	25.2107	11.3054	-19.269
 328	1	7	-0.122906	24.395	12.3424	-19.6951
 329	1	8	-0.496938	22.9748	13.9129	-18.6952
 330	1	8	-0.484992	25.9165	10.5817	-19.9492
 331	1	2	-0.048962	18.4774	9.98879	-4.02908
 332	1	6	0.0776	17.4899	10.2767	-2.95632
 333	1	8	-0.391129	17.6839	10.9687	-1.97043
 334	1	2	0.038503	17.8825	9.16178	-4.96211
 335	1	6	0.061082	16.4905	8.88304	-4.52164
 336	1	7	0.459351	16.3347	9.58116	-3.32011
 337	1	8	-0.403808	15.6788	8.18737	-5.11085
 338	1	2	-0.02278	19.7945	10.4366	-4.18635
 339	1	2	-0.06542	18.5706	8.7352	-6.10645
 340	1	2	0.157218	20.5084	10.0301	-5.33241
 341	1	1	0.144625	20.2474	11.0983	-3.45387
 342	1	2	-0.259423	19.8992	9.1828	-6.29021
 343	1	3	-0.32062	21.7693	10.5534	-5.50626
 344	1	1	0.165981	18.077	8.09404	-6.83408
 345	1	1	0.168674	20.443	8.89196	-7.18408
 346	1	1	0.207625	15.0601	11.6766	-2.1405
 347	1	2	-0.428502	14.5791	10.7159	-1.97036
 348	1	2	-0.035773	13.4169	10.6612	-1.17445
 349	1	1	0.142536	13.0124	11.5813	-0.757133
 350	1	2	0.020215	12.7887	9.42824	-0.904181
 351	1	2	-0.058677	13.3533	8.25818	-1.4511
 352	1	1	0.147375	12.9	7.28837	-1.25965
 353	1	2	-0.40884	14.5055	8.3184	-2.25169
 354	1	1	0.20403	14.903	7.39852	-2.67451
 355	1	2	0.301824	15.1425	9.54498	-2.52464
 356	1	2	-0.079086	9.67388	8.56802	0.87006
 357	1	2	-0.121043	8.53587	7.82542	1.20663
 358	1	1	0.148865	8.18764	7.01825	0.568655
 359	1	2	0.229196	7.86066	8.13978	2.39963
 360	1	3	-0.312503	6.73355	7.40366	2.68851
 361	1	1	0.177824	9.8284	10.7732	3.46562
 362	1	2	-0.142744	9.46229	9.95215	2.8504
 363	1	2	-0.093344	10.1428	9.58217	1.67904
 364	1	1	0.162888	8.00248	7.47079	5.12383
 365	1	1	0.147794	7.06867	6.58495	7.20777
 366	1	2	-0.172056	7.04404	6.96519	5.09667
 367	1	2	-0.198933	6.50655	6.44089	6.29075
 368	1	2	0.236899	6.32991	6.8565	3.88989
 369	1	2	0.029337	5.25335	5.77792	6.30739
 370	1	4	0.180684	4.55385	5.35673	7.63525
 371	1	2	-0.223565	5.1359	6.12662	3.8783
 372	1	2	-0.141841	4.61216	5.57933	5.06226
 373	1	1	0.17153	4.60411	6.00489	2.9392
 374	1	1	0.139148	3.67522	5.03474	5.00235
 375	1	2	-0.185386	8.29537	9.22955	3.19489
 376	1	1	0.155741	7.72628	9.51394	4.07485
 377	1	4	-0.198622	3.02137	5.60967	7.49429
 378	1	4	-0.188008	5.02746	6.25907	8.81057
 379	1	5	0.060726	2.50658	5.5895	8.46175
 380	1	5	0.058265	2.5461	4.84467	6.86776
 381	1	5	0.044015	2.82471	6.59246	7.04648
 382	1	5	0.049647	6.06492	6.03842	9.08946
 383	1	5	0.045128	4.41897	6.10441	9.71016
 384	1	5	0.061555	4.95505	7.32145	8.54421
 385	1	1	0.151962	3.39875	3.95839	9.70552
 386	1	2	-0.211106	4.09291	3.34103	9.1437
 387	1	2	-0.169243	4.27062	2.0057	9.54364
 388	1	1	0.166678	3.70619	1.61587	10.3852
 389	1	2	0.259195	5.1639	1.17285	8.852
 390	1	2	-0.207473	5.87157	1.69181	7.75649
 391	1	1	0.171716	6.55914	1.04364	7.22138
 392	1	2	-0.169975	5.69332	3.03276	7.35244
 393	1	1	0.141932	6.26039	3.40369	6.50256
 394	1	2	0.050656	4.79011	3.87924	8.03632
 395	1	6	0.518059	11.4055	10.0987	1.07504
 396	1	6	0.507614	10.5912	8.43137	-0.288137
 397	1	7	-0.122906	11.621	9.34448	-0.0779607
 398	1	8	-0.496938	12.1171	10.9651	1.55292
 399	1	8	-0.484992	10.4489	7.64797	-1.21101
 400	1	2	-0.048962	3.91247	-2.10852	11.9745
 401	1	6	0.0776	2.97203	-3.13961	12.4944
 402	1	8	-0.391129	2.19874	-3.80325	11.8234
 403	1	2	0.038503	4.6071	-1.57933	13.0462
 404	1	6	0.061082	4.14377	-2.24629	14.2882
 405	1	7	0.459351	3.16599	-3.15949	13.8804
 406	1	8	-0.403808	4.5631	-2.02309	15.413
 407	1	2	-0.02278	4.1406	-1.6592	10.6643
 408	1	2	-0.06542	5.57051	-0.57716	12.8774
 409	1	2	0.157218	5.09425	-0.636399	10.4712
 410	1	1	0.144625	3.59045	-2.07636	9.82611
 411	1	2	-0.259423	5.80896	-0.104615	11.5692
 412	1	3	-0.32062	5.3312	-0.150499	9.20521
 413	1	1	0.165981	6.11	-0.182851	13.7362
 414	1	1	0.168674	6.55064	0.671242	11.3986
 415	1	1	0.207625	2.54273	-5.78658	13.5361
 416	1	2	-0.428502	2.23637	-5.38477	14.4996
 417	1	2	-0.035773	1.64198	-6.24462	15.4454
 418	1	1	0.142536	1.50478	-7.29838	15.2132
 419	1	2	0.020215	1.26035	-5.75283	16.7058
 420	1	2	-0.058677	1.43849	-4.39093	16.9941
 421	1	1	0.147375	1.1541	-4.00433	17.9702
 422	1	2	-0.40884	2.02616	-3.53622	16.046
 423	1	1	0.20403	2.1914	-2.49453	16.3108
 424	1	2	0.301824	2.46401	-4.02016	14.7927
 425	1	2	-0.079086	-0.589193	-7.65638	19.2451
 426	1	2	-0.121043	-1.66896	-8.13218	20.0049
 427	1	1	0.148865	-2.69308	-7.9549	19.6895
 428	1	2	0.229196	-1.39511	-8.83532	21.1967
 429	1	3	-0.312503	-2.46851	-9.32985	21.9066
 430	1	1	0.177824	2.0568	-8.74191	21.1078
 431	1	2	-0.142744	1.02062	-8.5818	20.8129
 432	1	2	-0.093344	0.716996	-7.88335	19.6361
 433	1	1	0.162888	-1.23221	-10.9955	23.5952
 434	1	1	0.147794	-1.64187	-11.149	26.0129
 435	1	2	-0.172056	-1.9243	-10.3037	24.0642
 436	1	2	-0.198933	-2.17846	-10.3944	25.447
 437	1	2	0.236899	-2.60264	-9.36055	23.2765
 438	1	2	0.029337	-3.14753	-9.56684	26.0673
 439	1	4	0.180684	-3.56365	-9.72303	27.5554
 440	1	2	-0.223565	-3.56305	-8.53549	23.876
 441	1	2	-0.141841	-3.83389	-8.63791	25.2531
 442	1	1	0.17153	-4.12613	-7.84344	23.2572
 443	1	1	0.139148	-4.60669	-8.00856	25.688
 444	1	2	-0.185386	-0.0538058	-9.05519	21.5977
 445	1	1	0.155741	0.16176	-9.59879	22.5093
 446	1	4	-0.198622	-2.67886	-10.7448	28.3215
 447	1	4	-0.188008	-5.00897	-10.2981	27.5418
 448	1	5	0.060726	-2.99541	-10.8319	29.3686
 449	1	5	0.058265	-1.62702	-10.432	28.3206
 450	1	5	0.044015	-2.74727	-11.7473	27.8798
 451	1	5	0.049647	-5.0742	-11.1622	26.8677
 452	1	5	0.045128	-5.73148	-9.54913	27.1941
 453	1	5	0.061555	-5.32981	-10.6416	28.5319
 454	1	1	0.151962	-2.08527	-7.39318	27.0215
 455	1	2	-0.211106	-2.68156	-7.31103	27.9265
 456	1	2	-0.169243	-2.60817	-6.12043	28.6789
 457	1	1	0.166678	-1.9779	-5.30044	28.3479
 458	1	2	0.259195	-3.33461	-5.9802	29.8703
 459	1	2	-0.207473	-4.1306	-7.05191	30.3109
 460	1	1	0.171716	-4.67253	-6.97785	31.2483
 461	1	2	-0.169975	-4.21268	-8.23589	29.5558
 462	1	1	0.141932	-4.8203	-9.04866	29.9405
 463	1	2	0.050656	-3.5023	-8.38615	28.3414
 464	1	6	0.518059	1.61529	-7.23183	18.6442
 465	1	6	0.507614	-0.562577	-6.84142	17.9963
 466	1	7	-0.122906	0.779277	-6.61997	17.7224
 467	1	8	-0.496938	2.83244	-7.19823	18.6845
 468	1	8	-0.484992	-1.52711	-6.40154	17.3964
 469	1	2	-0.048962	-6.4393	-3.97031	32.1216
 470	1	6	0.0776	-7.91162	-4.00953	32.0085
 471	1	8	-0.391129	-8.5359	-4.15628	30.9707
 472	1	2	0.038503	-6.1018	-3.92086	33.4622
 473	1	6	0.061082	-7.35857	-3.94023	34.2643
 474	1	7	0.459351	-8.37717	-4.08421	33.3203
 475	1	8	-0.403808	-7.43419	-4.06982	35.4755
 476	1	2	-0.02278	-5.48816	-4.21491	31.126
 477	1	2	-0.06542	-4.77013	-4.06563	33.8775
 478	1	2	0.157218	-4.15217	-4.40912	31.525
 479	1	1	0.144625	-5.78894	-4.34243	30.0902
 480	1	2	-0.259423	-3.78943	-4.30607	32.887
 481	1	3	-0.32062	-3.21585	-4.81372	30.6023
 482	1	1	0.165981	-4.52094	-4.06339	34.9367
 483	1	1	0.168674	-2.7546	-4.47524	33.1728
 484	1	1	0.207625	-9.00538	-6.48109	32.471
 485	1	2	-0.428502	-9.77989	-6.03696	33.0911
 486	1	2	-0.035773	-10.9319	-6.7756	33.356
 487	1	1	0.142536	-11.0191	-7.77968	32.9469
 488	1	2	0.020215	-11.9691	-6.22973	34.1288
 489	1	2	-0.058677	-11.8203	-4.93176	34.6598
 490	1	1	0.147375	-12.6095	-4.50718	35.2775
 491	1	2	-0.40884	-10.6429	-4.19084	34.4019
 492	1	1	0.20403	-10.5261	-3.19782	34.8288
 493	1	2	0.301824	-9.61082	-4.73979	33.6078
 494	1	2	-0.079086	-14.362	-8.93019	34.0291
 495	1	2	-0.121043	-14.7883	-10.1426	33.4759
 496	1	1	0.148865	-14.7352	-10.311	32.4037
 497	1	2	0.229196	-15.1524	-11.1845	34.3451
 498	1	3	-0.312503	-15.2899	-12.4319	33.7825
 499	1	1	0.177824	-14.523	-9.62876	37.362
 500	1	2	-0.142744	-14.6518	-9.76077	36.2885
 501	1	2	-0.093344	-14.2634	-8.74787	35.3954
 502	1	1	0.162888	-15.4273	-14.5633	32.3735
 503	1	1	0.147794	-17.2335	-16.2496	32.3681
 504	1	2	-0.172056	-16.2561	-14.4675	33.0688
 505	1	2	-0.198933	-17.285	-15.4258	33.0752
 506	1	2	0.236899	-16.3021	-13.3529	33.9176
 507	1	2	0.029337	-18.3842	-15.2908	33.9499
 508	1	4	0.180684	-19.6034	-16.2376	33.8677
 509	1	2	-0.223565	-17.3807	-13.2081	34.8036
 510	1	2	-0.141841	-18.4048	-14.1743	34.8217
 511	1	1	0.17153	-17.4513	-12.3403	35.4501
 512	1	1	0.139148	-19.2451	-14.02	35.4913
 513	1	2	-0.185386	-15.0986	-10.9905	35.7467
 514	1	1	0.155741	-15.314	-11.8239	36.4081
 515	1	4	-0.198622	-20.7533	-15.4275	33.2064
 516	1	4	-0.188008	-20.1055	-16.6203	35.2914
 517	1	5	0.060726	-21.0482	-14.5727	33.827
 518	1	5	0.058265	-21.643	-16.052	33.0548
 519	1	5	0.044015	-20.441	-15.0194	32.2366
 520	1	5	0.049647	-19.2901	-16.9983	35.9195
 521	1	5	0.045128	-20.8788	-17.3974	35.2313
 522	1	5	0.061555	-20.5501	-15.768	35.8172
 523	1	1	0.151962	-18.2647	-18.5268	34.7203
 524	1	2	-0.211106	-18.6609	-18.6351	33.7154
 525	1	2	-0.169243	-18.5552	-19.8896	33.0865
 526	1	1	0.166678	-18.1023	-20.731	33.6024
 527	1	2	0.259195	-19.0783	-20.0777	31.8026
 528	1	2	-0.207473	-19.6536	-18.9995	31.1212
 529	1	1	0.171716	-20.0433	-19.1515	30.1188
 530	1	2	-0.169975	-19.7688	-17.7473	31.752
 531	1	1	0.141932	-20.2491	-16.9468	31.1993
 532	1	2	0.050656	-19.3192	-17.5523	33.0831
 533	1	6	0.518059	-13.4833	-7.49426	35.6326
 534	1	6	0.507614	-13.6894	-7.79831	33.353
 535	1	7	-0.122906	-13.1055	-7.05236	34.3697
 536	1	8	-0.496938	-13.0533	-7.10975	36.7069
 537	1	8	-0.484992	-13.488	-7.71578	32.1534
 538	1	2	-0.048962	-22.4281	-22.722	31.9954
 539	1	6	0.0776	-23.755	-22.6331	32.6531
 540	1	8	-0.391129	-24.1499	-21.6707	33.2908
 541	1	2	0.038503	-22.2931	-23.9821	31.4524
 542	1	6	0.061082	-23.5448	-24.7363	31.6956
 543	1	7	0.459351	-24.3598	-23.8834	32.4595
 544	1	8	-0.403808	-23.7543	-25.8731	31.3018
 545	1	2	-0.02278	-21.3884	-21.7861	31.9439
 546	1	2	-0.06542	-21.0979	-24.4009	30.8564
 547	1	2	0.157218	-20.1742	-22.1753	31.3284
 548	1	1	0.144625	-21.5243	-20.8033	32.3845
 549	1	2	-0.259423	-20.0316	-23.4777	30.8012
 550	1	3	-0.32062	-19.089	-21.3298	31.2446
 551	1	1	0.165981	-21.0005	-25.4141	30.4713
 552	1	1	0.168674	-19.0827	-23.7672	30.3578
 553	1	1	0.207625	-26.4902	-22.3302	33.2909
 554	1	2	-0.428502	-26.5826	-23.386	33.5295
 555	1	2	-0.035773	-27.6624	-23.792	34.3447
 556	1	1	0.142536	-28.3583	-23.0562	34.7418
 557	1	2	0.020215	-27.7903	-25.1409	34.7096
 558	1	2	-0.058677	-26.8465	-26.0671	34.2323
 559	1	1	0.147375	-26.9022	-27.1135	34.5233
 560	1	2	-0.40884	-25.7532	-25.6509	33.4741
 561	1	1	0.20403	-25.0139	-26.4024	33.2155
 562	1	2	0.301824	-25.5775	-24.2989	33.1134
 563	1	2	-0.079086	-27.9394	-27.1028	37.2563
 564	1	2	-0.121043	-26.8454	-27.7486	37.8488
 565	1	1	0.148865	-26.1584	-27.1826	38.4642
 566	1	2	0.229196	-26.5838	-29.0853	37.491
 567	1	3	-0.312503	-25.4499	-29.7411	37.9135
 568	1	1	0.177824	-29.1902	-29.6041	35.305
 569	1	2	-0.142744	-28.5863	-29.1209	36.0722
 570	1	2	-0.093344	-28.7707	-27.7624	36.3673
 571	1	1	0.162888	-23.8087	-31.4517	36.851
 572	1	1	0.147794	-21.3631	-31.2555	36.7551
 573	1	2	-0.172056	-23.3384	-30.5048	37.0981
 574	1	2	-0.198933	-21.9347	-30.384	37.0538
 575	1	2	0.236899	-24.1375	-29.4557	37.5733
 576	1	2	0.029337	-21.2856	-29.2157	37.5251
 577	1	4	0.180684	-19.7889	-29.2433	37.9753
 578	1	2	-0.223565	-23.5179	-28.2308	37.8743
 579	1	2	-0.141841	-22.1146	-28.1076	37.8275
 580	1	1	0.17153	-24.096	-27.3965	38.2453
 581	1	1	0.139148	-21.682	-27.1657	38.1461
 582	1	2	-0.185386	-27.4824	-29.7801	36.6525
 583	1	1	0.155741	-27.2657	-30.81	36.3855
 584	1	4	-0.198622	-19.4017	-30.6862	38.4434
 585	1	4	-0.188008	-19.6375	-28.4403	39.3082
 586	1	5	0.060726	-20.077	-31.0366	39.235
 587	1	5	0.058265	-18.3802	-30.7068	38.8448
 588	1	5	0.044015	-19.437	-31.4331	37.6451
 589	1	5	0.049647	-18.6161	-28.5195	39.7026
 590	1	5	0.045128	-20.3191	-28.829	40.0766
 591	1	5	0.061555	-19.8559	-27.3741	39.2008
 592	1	1	0.151962	-18.4625	-26.7414	37.7078
 593	1	2	-0.211106	-18.0935	-27.4996	37.0266
 594	1	2	-0.169243	-16.8873	-27.23	36.3425
 595	1	1	0.166678	-16.3674	-26.294	36.5139
 596	1	2	0.259195	-16.3051	-28.2151	35.53
 597	1	2	-0.207473	-17.0011	-29.4113	35.3145
 598	1	1	0.171716	-16.5525	-30.1708	34.6811
 599	1	2	-0.169975	-18.2159	-29.6711	35.9761
 600	1	1	0.141932	-18.6874	-30.6355	35.8184
 601	1	2	0.050656	-18.7402	-28.7606	36.9234
 602	1	6	0.518059	-29.4026	-26.7385	35.4895
 603	1	6	0.507614	-28.0486	-25.6465	36.9953
 604	1	7	-0.122906	-28.6512	-25.5973	35.7456
 605	1	8	-0.496938	-29.9826	-26.9971	34.45
 606	1	8	-0.484992	-27.2944	-24.8132	37.4675
 607	1	2	-0.048962	-12.9213	-25.1052	34.8224
 608	1	6	0.0776	-12.1949	-23.9528	35.428
 609	1	8	-0.391129	-12.2546	-23.5981	36.5935
 610	1	2	0.038503	-12.6068	-25.1421	33.4748
 611	1	6	0.061082	-11.6558	-24.0414	33.1719
 612	1	7	0.459351	-11.4733	-23.3719	34.3803
 613	1	8	-0.403808	-11.1643	-23.7903	32.0834
 614	1	2	-0.02278	-13.7667	-26.0676	35.4051
 615	1	2	-0.06542	-13.1371	-26.1185	32.6248
 616	1	2	0.157218	-14.3249	-27.0559	34.5596
 617	1	1	0.144625	-13.9461	-26.0723	36.4757
 618	1	2	-0.259423	-14.0017	-27.0807	33.1861
 619	1	3	-0.32062	-15.015	-28.142	35.0469
 620	1	1	0.165981	-12.8643	-26.1397	31.5718
 621	1	1	0.168674	-14.3967	-27.8813	32.567
 622	1	1	0.207625	-12.3593	-20.9402	35.1121
 623	1	2	-0.428502	-11.2993	-20.9612	34.8733
 624	1	2	-0.035773	-10.5578	-19.7669	34.9227
 625	1	1	0.142536	-11.0497	-18.8349	35.1935
 626	1	2	0.020215	-9.18605	-19.7644	34.613
 627	1	2	-0.058677	-8.56074	-20.975	34.2643
 628	1	1	0.147375	-7.49887	-20.9844	34.0271
 629	1	2	-0.40884	-9.31068	-22.1674	34.1988
 630	1	1	0.20403	-8.82233	-23.0879	33.8888
 631	1	2	0.301824	-10.6912	-22.1782	34.5004
 632	1	2	-0.079086	-7.13217	-16.8095	35.3645
 633	1	2	-0.121043	-6.29665	-15.9539	36.1007
 634	1	1	0.148865	-5.72534	-16.3219	36.9481
 635	1	2	0.229196	-6.26103	-14.5898	35.7477
 636	1	3	-0.312503	-5.50481	-13.7289	36.5169
 637	1	1	0.177824	-8.46412	-14.6417	33.0864
 638	1	2	-0.142744	-7.85022	-14.9963	33.9134
 639	1	2	-0.093344	-7.90128	-16.3378	34.3164
 640	1	1	0.162888	-3.75781	-11.8199	36.1432
 641	1	1	0.147794	-4.23796	-9.41253	36.0384
 642	1	2	-0.172056	-4.75816	-11.4587	36.3617
 643	1	2	-0.198933	-5.04666	-10.0829	36.3078
 644	1	2	0.236899	-5.77307	-12.3837	36.6271
 645	1	2	0.029337	-6.36205	-9.60064	36.5257
 646	1	4	0.180684	-6.76565	-8.13613	36.2041
 647	1	2	-0.223565	-7.06233	-11.9226	36.933