pySIMM System Object

1037 atoms
1141 bonds
1920 angles
2966 dihedrals
360 impropers

9 atom types
11 bond types
18 angle types
9 dihedral types
4 improper types

-151.033517 151.033517 xlo xhi
-151.033517 151.033517 ylo yhi
-151.033517 151.033517 zlo zhi

Masses

   1	1.008	# ha
   2	12.01	# ca
   3	16.0	# os
   4	12.01	# c3
   5	1.008	# hc
   6	12.01	# c
   7	14.01	# n
   8	16.0	# o
   9	1.008	# hn

Pair Coeffs

   1	0.015	2.59964245953351	# ha
   2	0.086	3.3996695084235347	# ca
   3	0.17	3.0000123434657784	# os
   4	0.1094	3.3996695084235347	# c3
   5	0.0157	2.649532787749369	# hc
   6	0.086	3.3996695084235347	# c
   7	0.17	3.249998523775958	# n
   8	0.21	2.959921901149463	# o
   9	0.0157	1.069078461768407	# hn

Bond Coeffs

   1	461.1	1.3984	# ca,ca
   2	427.6	1.3789	# c,n
   3	345.9	1.4906	# c,ca
   4	300.9	1.5375	# c3,c3
   5	345.8	1.086	# ca,ha
   6	384.2	1.4121	# ca,n
   7	321.0	1.5156	# c3,ca
   8	330.6	1.0969	# c3,hc
   9	637.7	1.2183	# c,o
  10	376.6	1.3696	# ca,os
  11	403.2	1.0129	# hn,n

Angle Coeffs

   1	46.34	109.8	# c3,c3,hc
   2	74.22	123.05	# n,c,o
   3	48.33	117.55	# c,n,hn
   4	63.56	112.24	# ca,c3,ca
   5	63.48	119.89	# ca,os,ca
   6	62.86	111.51	# c3,c3,c3
   7	66.62	120.02	# ca,ca,ca
   8	64.28	120.33	# c,ca,ca
   9	63.15	112.07	# c3,c3,ca
  10	39.4	107.58	# hc,c3,hc
  11	48.18	119.88	# ca,ca,ha
  12	63.53	120.77	# c3,ca,ca
  13	63.74	127.08	# c,n,c
  14	67.68	115.25	# ca,c,n
  15	63.82	123.71	# c,n,ca
  16	68.72	122.6	# ca,c,o
  17	67.87	120.19	# ca,ca,n
  18	69.58	119.2	# ca,ca,os

Dihedral Coeffs

   1	1	3.625	2	180	# X,ca,ca,X
   2	1	1.0	2	180	# X,c,ca,X
   3	1	0.0	2	0	# X,c3,ca,X
   4	1	0.15555555555555556	3	0	# X,c3,c3,X
   5	1	0.9	2	180	# X,ca,os,X
   6	1	2.5	2	180	# X,c,n,X
   7	1	0.45	2	180	# X,ca,n,X
   8	1	0.16	3	0	# hc,c3,c3,c3
   9	2	2.5	2	180	2.0	1	0	# hn,n,c,o

Improper Coeffs

   1	1.1	-1	2	# n,X,X,hn
   2	1.1	-1	2	# ca,ca,ca,c3
   3	10.5	-1	2	# c,X,X,o
   4	1.1	-1	2	# ca,X,X,ha

Atoms

   1	1	1	0.207625	-106.288	5.84661	-8.65269
   2	1	2	-0.428502	-105.893	4.98934	-8.11768
   3	1	2	-0.035773	-105.477	5.11952	-6.78056
   4	1	1	0.142536	-105.546	6.08136	-6.27776
   5	1	2	0.020215	-104.97	4.00434	-6.09054
   6	1	2	-0.058677	-104.875	2.76345	-6.74549
   7	1	1	0.147375	-104.485	1.89901	-6.21372
   8	1	2	-0.40884	-105.283	2.64224	-8.08567
   9	1	1	0.20403	-105.207	1.68721	-8.59534
  10	1	2	0.301824	-105.794	3.75291	-8.77243
  11	1	2	-0.079086	-103.312	4.64726	-2.88624
  12	1	2	-0.121043	-102.346	5.10424	-1.98053
  13	1	1	0.148865	-101.516	5.72399	-2.30791
  14	1	2	0.229196	-102.47	4.71449	-0.63427
  15	1	3	-0.312503	-101.522	5.12909	0.266386
  16	1	1	0.177824	-105.353	2.8297	-0.835712
  17	1	2	-0.142744	-104.517	3.45827	-1.13932
  18	1	2	-0.093344	-104.36	3.84106	-2.47895
  19	1	1	0.162888	-101.046	2.51187	-0.184155
  20	1	1	0.147794	-99.6398	1.06283	1.2149
  21	1	2	-0.172056	-100.582	2.9225	0.707694
  22	1	2	-0.198933	-99.7744	2.09788	1.51271
  23	1	2	0.236899	-100.77	4.27598	1.04082
  24	1	2	0.029337	-99.1373	2.6123	2.66643
  25	1	4	0.180684	-98.2063	1.75749	3.55578
  26	1	2	-0.223565	-100.133	4.79951	2.17129
  27	1	2	-0.141841	-99.3239	3.97847	2.97521
  28	1	1	0.17153	-100.264	5.8498	2.4133
  29	1	1	0.139148	-98.8302	4.41363	3.84059
  30	1	2	-0.185386	-103.554	3.90991	-0.211924
  31	1	1	0.155741	-103.638	3.63655	0.836265
  32	1	4	-0.198622	-96.7458	2.07896	3.13734
  33	1	4	-0.188008	-98.395	0.228215	3.34492
  34	1	5	0.060726	-96.0246	1.49547	3.72405
  35	1	5	0.058265	-96.5184	3.14468	3.26568
  36	1	5	0.044015	-96.5836	1.83788	2.07873
  37	1	5	0.049647	-99.4443	-0.07004	3.45924
  38	1	5	0.045128	-97.8063	-0.336664	4.07942
  39	1	5	0.061555	-98.0602	-0.0870809	2.3487
  40	1	1	0.151962	-100.553	1.38146	4.9158
  41	1	2	-0.211106	-99.785	1.79863	5.56265
  42	1	2	-0.169243	-100.095	2.06593	6.90858
  43	1	1	0.166678	-101.084	1.84795	7.30021
  44	1	2	0.259195	-99.135	2.62802	7.75879
  45	1	2	-0.207473	-97.8526	2.90932	7.25871
  46	1	1	0.171716	-97.0974	3.33591	7.91046
  47	1	2	-0.169975	-97.5351	2.62791	5.91709
  48	1	1	0.141932	-96.5314	2.85549	5.57242
  49	1	2	0.050656	-98.4981	2.06659	5.04459
  50	1	6	0.518059	-105.171	3.4986	-3.67895
  51	1	6	0.507614	-103.43	4.85384	-4.35412
  52	1	7	-0.122906	-104.545	4.12787	-4.74393
  53	1	8	-0.496938	-106.151	2.77528	-3.70814
  54	1	8	-0.484992	-102.679	5.50707	-5.05723
  55	1	2	-0.048962	-97.3477	4.87708	11.2856
  56	1	6	0.0776	-96.1582	5.01446	12.1624
  57	1	8	-0.391129	-95.3811	4.1216	12.4592
  58	1	2	0.038503	-97.9453	6.11893	11.1647
  59	1	6	0.061082	-97.1634	7.09985	11.9602
  60	1	7	0.459351	-96.1099	6.36659	12.5099
  61	1	8	-0.403808	-97.3965	8.29399	12.0603
  62	1	2	-0.02278	-97.8426	3.75491	10.6086
  63	1	2	-0.06542	-99.077	6.31314	10.3632
  64	1	2	0.157218	-98.9683	3.9336	9.77982
  65	1	1	0.144625	-97.3608	2.78603	10.7011
  66	1	2	-0.259423	-99.5863	5.19818	9.66313
  67	1	3	-0.32062	-99.4738	2.8751	9.06918
  68	1	1	0.165981	-99.5309	7.29864	10.2804
  69	1	1	0.168674	-100.458	5.30714	9.02382
  70	1	1	0.207625	-95.0547	5.42554	14.8203
  71	1	2	-0.428502	-94.5842	6.33773	14.4604
  72	1	2	-0.035773	-93.4909	6.86946	15.1676
  73	1	1	0.142536	-93.1407	6.36988	16.0687
  74	1	2	0.020215	-92.8339	8.02447	14.7028
  75	1	2	-0.058677	-93.3058	8.652	13.5353
  76	1	1	0.147375	-92.811	9.54567	13.1597
  77	1	2	-0.40884	-94.3981	8.11701	12.8313
  78	1	1	0.20403	-94.7378	8.61321	11.9249
  79	1	2	0.301824	-95.0475	6.9454	13.2741
  80	1	2	-0.079086	-90.2084	9.16642	17.0168
  81	1	2	-0.121043	-89.556	9.44318	18.2255
  82	1	1	0.148865	-90.0549	9.30005	19.1796
  83	1	2	0.229196	-88.2257	9.89968	18.1635
  84	1	3	-0.312503	-87.5392	10.1285	19.3262
  85	1	1	0.177824	-87.7621	9.89874	14.7471
  86	1	2	-0.142744	-88.2482	9.78432	15.715
  87	1	2	-0.093344	-89.5701	9.32387	15.8009
  88	1	1	0.162888	-87.7274	9.83882	21.9178
  89	1	1	0.147794	-86.8065	7.97363	23.2516
  90	1	2	-0.172056	-87.1713	9.04468	21.4287
  91	1	2	-0.198933	-86.6429	7.97767	22.1788
  92	1	2	0.236899	-86.9995	9.08737	20.0394
  93	1	2	0.029337	-85.9247	6.93611	21.5445
  94	1	4	0.180684	-85.3371	5.7278	22.3075
  95	1	2	-0.223565	-86.2891	8.06243	19.3963
  96	1	2	-0.141841	-85.76	6.99724	20.1432
  97	1	1	0.17153	-86.1468	8.09088	18.3209
  98	1	1	0.139148	-85.2237	6.20611	19.6254
  99	1	2	-0.185386	-87.5784	10.0807	16.921
 100	1	1	0.155741	-86.5511	10.4333	16.9041
 101	1	4	-0.198622	-85.6204	5.7622	23.834
 102	1	4	-0.188008	-83.7904	5.77221	22.1515
 103	1	5	0.060726	-85.1681	6.6452	24.3034
 104	1	5	0.058265	-85.2008	4.87428	24.3243
 105	1	5	0.044015	-86.6969	5.77311	24.0448
 106	1	5	0.049647	-83.3951	6.73437	22.5015
 107	1	5	0.045128	-83.4831	5.6518	21.1054
 108	1	5	0.061555	-83.3056	4.98331	22.7406
 109	1	1	0.151962	-87.9992	5.17253	22.0128
 110	1	2	-0.211106	-87.3823	4.34489	21.6702
 111	1	2	-0.169243	-88.0056	3.1944	21.1549
 112	1	1	0.166678	-89.0886	3.13192	21.1019
 113	1	2	0.259195	-87.237	2.11996	20.6903
 114	1	2	-0.207473	-85.8336	2.20105	20.7516
 115	1	1	0.171716	-85.2187	1.3829	20.3932
 116	1	2	-0.169975	-85.2092	3.34533	21.2778
 117	1	1	0.141932	-84.1248	3.36442	21.3144
 118	1	2	0.050656	-85.9746	4.44055	21.7395
 119	1	6	0.518059	-90.5156	8.91197	14.7299
 120	1	6	0.507614	-91.5821	8.65925	16.7581
 121	1	7	-0.122906	-91.6844	8.52843	15.3783
 122	1	8	-0.496938	-90.2772	8.89511	13.5345
 123	1	8	-0.484992	-92.4199	8.39414	17.6028
 124	1	2	-0.048962	-85.8576	-1.93551	19.4442
 125	1	6	0.0776	-84.996	-3.05699	19.8894
 126	1	8	-0.391129	-84.7064	-3.30355	21.0491
 127	1	2	0.038503	-85.9056	-1.94331	18.0634
 128	1	6	0.061082	-85.0994	-3.08749	17.5697
 129	1	7	0.459351	-84.5917	-3.70924	18.7174
 130	1	8	-0.403808	-84.9613	-3.40079	16.3979
 131	1	2	-0.02278	-86.5409	-0.973244	20.1974
 132	1	2	-0.06542	-86.6266	-0.978844	17.3483
 133	1	2	0.157218	-87.2573	0.0174438	19.4964
 134	1	1	0.144625	-86.5007	-0.97638	21.2828
 135	1	2	-0.259423	-87.3035	0.0156866	18.0858
 136	1	3	-0.32062	-87.8918	1.02164	20.1794
 137	1	1	0.165981	-86.6486	-0.999824	16.2606
 138	1	1	0.168674	-87.8629	0.792464	17.5717
 139	1	1	0.207625	-82.7343	-4.42806	16.8534
 140	1	2	-0.428502	-82.8588	-5.15043	17.6567
 141	1	2	-0.035773	-82.1152	-6.34405	17.609
 142	1	1	0.142536	-81.4412	-6.51416	16.7721
 143	1	2	0.020215	-82.2471	-7.31522	18.6209
 144	1	2	-0.058677	-83.1339	-7.0537	19.6829
 145	1	1	0.147375	-83.2527	-7.7746	20.4887
 146	1	2	-0.40884	-83.8974	-5.87478	19.7093
 147	1	1	0.20403	-84.5913	-5.72685	20.5331
 148	1	2	0.301824	-83.7811	-4.89748	18.6971
 149	1	2	-0.079086	-79.8629	-10.1122	18.2271
 150	1	2	-0.121043	-78.6801	-10.7961	17.9086
 151	1	1	0.148865	-77.8283	-10.2773	17.4782
 152	1	2	0.229196	-78.624	-12.177	18.1802
 153	1	3	-0.312503	-77.4739	-12.8716	17.8985
 154	1	1	0.177824	-81.7879	-12.6426	19.4739
 155	1	2	-0.142744	-80.9211	-12.1439	19.0423
 156	1	2	-0.093344	-80.9506	-10.7694	18.768
 157	1	1	0.162888	-76.2535	-15.1479	17.4676
 158	1	1	0.147794	-75.0029	-16.4824	19.1551
 159	1	2	-0.172056	-76.1738	-14.7957	18.4918
 160	1	2	-0.198933	-75.4664	-15.5441	19.451
 161	1	2	0.236899	-76.7922	-13.591	18.8512
 162	1	2	0.029337	-75.3503	-15.0926	20.785
 163	1	4	0.180684	-74.589	-15.9594	21.8162
 164	1	2	-0.223565	-76.6882	-13.1282	20.1721
 165	1	2	-0.141841	-75.9777	-13.872	21.1306
 166	1	1	0.17153	-77.1538	-12.1885	20.4535
 167	1	1	0.139148	-75.9286	-13.4821	22.1419
 168	1	2	-0.185386	-79.7346	-12.8465	18.7444
 169	1	1	0.155741	-79.6699	-13.9125	18.9434
 170	1	4	-0.198622	-75.5058	-17.1657	22.1568
 171	1	4	-0.188008	-74.3146	-15.2128	23.1506
 172	1	5	0.060726	-76.4965	-16.818	22.477
 173	1	5	0.058265	-75.0925	-17.77	22.9742
 174	1	5	0.044015	-75.6495	-17.815	21.284
 175	1	5	0.049647	-75.2455	-14.9748	23.6807
 176	1	5	0.045128	-73.7661	-14.278	22.9776
 177	1	5	0.061555	-73.7063	-15.8324	23.8219
 178	1	1	0.151962	-72.7156	-14.3751	20.5916
 179	1	2	-0.211106	-72.3706	-15.4032	20.6752
 180	1	2	-0.169243	-71.0815	-15.7334	20.2166
 181	1	1	0.166678	-70.4397	-14.9735	19.7808
 182	1	2	0.259195	-70.6031	-17.0445	20.337
 183	1	2	-0.207473	-71.4332	-18.0362	20.8799
 184	1	1	0.171716	-71.0663	-19.0557	20.9527
 185	1	2	-0.169975	-72.7219	-17.7081	21.3417
 186	1	1	0.141932	-73.3248	-18.4974	21.7786
 187	1	2	0.050656	-73.2108	-16.3822	21.2521
 188	1	6	0.518059	-82.0344	-9.77396	18.9759
 189	1	6	0.507614	-80.2132	-8.67163	18.0965
 190	1	7	-0.122906	-81.5191	-8.54666	18.5651
 191	1	8	-0.496938	-83.1423	-10.0205	19.4206
 192	1	8	-0.484992	-79.4714	-7.79502	17.6878
 193	1	2	-0.048962	-66.1065	-18.809	20.8447
 194	1	6	0.0776	-64.7361	-19.2478	20.4691
 195	1	8	-0.391129	-64.2598	-19.2525	19.3464
 196	1	2	0.038503	-66.2379	-18.9273	22.2164
 197	1	6	0.061082	-64.9638	-19.4534	22.7714
 198	1	7	0.459351	-64.1226	-19.5998	21.6704
 199	1	8	-0.403808	-64.7165	-19.6603	23.9482
 200	1	2	-0.02278	-67.1416	-18.2934	20.0523
 201	1	2	-0.06542	-67.406	-18.5281	22.8761
 202	1	2	0.157218	-68.3339	-17.8896	20.6891
 203	1	1	0.144625	-67.0207	-18.1873	18.9783
 204	1	2	-0.259423	-68.4584	-17.998	22.0981
 205	1	3	-0.32062	-69.3302	-17.3409	19.9079
 206	1	1	0.165981	-67.4782	-18.6066	23.959
 207	1	1	0.168674	-69.3592	-17.653	22.5967
 208	1	1	0.207625	-62.0456	-17.9501	22.0609
 209	1	2	-0.428502	-61.7607	-18.9958	21.9822
 210	1	2	-0.035773	-60.4054	-19.3515	22.1
 211	1	1	0.142536	-59.6615	-18.575	22.2662
 212	1	2	0.020215	-60.007	-20.6996	22.0142
 213	1	2	-0.058677	-60.9921	-21.6848	21.8016
 214	1	1	0.147375	-60.7034	-22.7314	21.7273
 215	1	2	-0.40884	-62.3499	-21.3263	21.6854
 216	1	1	0.20403	-63.0954	-22.1004	21.5244
 217	1	2	0.301824	-62.7507	-19.9771	21.7756
 218	1	2	-0.079086	-56.4464	-21.1259	22.8776
 219	1	2	-0.121043	-55.2304	-20.9378	23.5516
 220	1	1	0.148865	-55.1637	-20.2749	24.4095
 221	1	2	0.229196	-54.0947	-21.629	23.0861
 222	1	3	-0.312503	-52.9075	-21.4628	23.7668
 223	1	1	0.177824	-55.5349	-23.3609	20.4663
 224	1	2	-0.142744	-55.4368	-22.6881	21.3172
 225	1	2	-0.093344	-56.5473	-21.9729	21.7911
 226	1	1	0.162888	-52.1895	-20.4448	21.3915
 227	1	1	0.147794	-49.9155	-20.4914	20.4423
 228	1	2	-0.172056	-51.3827	-20.9069	21.9525
 229	1	2	-0.198933	-50.0784	-20.9347	21.4196
 230	1	2	0.236899	-51.648	-21.4748	23.2082
 231	1	2	0.029337	-49.0029	-21.5268	22.1283
 232	1	4	0.180684	-47.5862	-21.6583	21.4861
 233	1	2	-0.223565	-50.5892	-22.014	23.9481
 234	1	2	-0.141841	-49.2843	-22.0366	23.4205
 235	1	1	0.17153	-50.7903	-22.4261	24.9327
 236	1	1	0.139148	-48.5006	-22.4762	24.029
 237	1	2	-0.185386	-54.2019	-22.5106	21.9821
 238	1	1	0.155741	-53.3282	-23.065	21.6515
 239	1	4	-0.198622	-47.7303	-21.9596	19.9667
 240	1	4	-0.188008	-46.8471	-22.892	22.089
 241	1	5	0.060726	-48.4307	-22.7871	19.7942
 242	1	5	0.058265	-46.7683	-22.2379	19.5187
 243	1	5	0.044015	-48.089	-21.0829	19.4143
 244	1	5	0.049647	-47.5089	-23.7676	22.1213
 245	1	5	0.045128	-46.4927	-22.6866	23.1066
 246	1	5	0.061555	-45.9726	-23.1831	21.4958
 247	1	1	0.151962	-44.8805	-21.3514	20.9573
 248	1	2	-0.211106	-45.336	-20.4224	21.2849
 249	1	2	-0.169243	-44.5383	-19.2613	21.3036
 250	1	1	0.166678	-43.4974	-19.3109	20.9991
 251	1	2	0.259195	-45.0965	-18.0248	21.661
 252	1	2	-0.207473	-46.4527	-17.9696	22.0172
 253	1	1	0.171716	-46.8891	-17.0093	22.2751
 254	1	2	-0.169975	-47.2499	-19.1338	22.0131
 255	1	1	0.141932	-48.2996	-19.0437	22.2773
 256	1	2	0.050656	-46.7093	-20.3842	21.6321
 257	1	6	0.518059	-57.9591	-21.9395	21.3114
 258	1	6	0.507614	-57.7865	-20.5285	23.1238
 259	1	7	-0.122906	-58.6287	-21.0529	22.1487
 260	1	8	-0.496938	-58.4092	-22.5631	20.3659
 261	1	8	-0.484992	-58.0602	-19.725	23.9984
 262	1	2	-0.048962	-40.8766	-15.7214	21.3501
 263	1	6	0.0776	-39.8004	-14.9337	20.6812
 264	1	8	-0.391129	-39.9172	-14.3168	19.635
 265	1	2	0.038503	-40.351	-16.2692	22.5044
 266	1	6	0.061082	-38.9291	-15.8544	22.6232
 267	1	7	0.459351	-38.6723	-15.0518	21.5051
 268	1	8	-0.403808	-38.1715	-16.1781	23.5243
 269	1	2	-0.02278	-42.2236	-15.9186	20.9996
 270	1	2	-0.06542	-41.1306	-17.0488	23.3691
 271	1	2	0.157218	-43.0302	-16.7073	21.8519
 272	1	1	0.144625	-42.6384	-15.4642	20.1048
 273	1	2	-0.259423	-42.4848	-17.2649	23.0316
 274	1	3	-0.32062	-44.3733	-16.8513	21.5725
 275	1	1	0.165981	-40.6981	-17.4528	24.2822
 276	1	1	0.168674	-43.1229	-17.8376	23.6987
 277	1	1	0.207625	-37.0069	-13.9137	23.3168
 278	1	2	-0.428502	-36.6215	-13.8916	22.3
 279	1	2	-0.035773	-35.3345	-13.3649	22.0789
 280	1	1	0.142536	-34.7642	-12.9985	22.9294
 281	1	2	0.020215	-34.772	-13.3381	20.7868
 282	1	2	-0.058677	-35.5532	-13.8351	19.7214
 283	1	1	0.147375	-35.1556	-13.8279	18.7086
 284	1	2	-0.40884	-36.8363	-14.3771	19.9507
 285	1	1	0.20403	-37.3991	-14.771	19.1072
 286	1	2	0.301824	-37.3936	-14.4337	21.2482
 287	1	2	-0.079086	-31.3912	-11.8004	20.8617
 288	1	2	-0.121043	-30.3122	-11.0174	21.3138
 289	1	1	0.148865	-30.4516	-10.2737	22.0932
 290	1	2	0.229196	-29.035	-11.2414	20.7524
 291	1	3	-0.312503	-27.9466	-10.5423	21.24
 292	1	1	0.177824	-29.8302	-13.8215	18.5999
 293	1	2	-0.142744	-29.9555	-13.0283	19.3355
 294	1	2	-0.093344	-31.2139	-12.781	19.9063
 295	1	1	0.162888	-25.7473	-9.50022	22.1908
 296	1	1	0.147794	-24.2296	-7.91034	21.0277
 297	1	2	-0.172056	-25.9198	-9.25336	21.1472
 298	1	2	-0.198933	-25.0537	-8.35965	20.4784
 299	1	2	0.236899	-27.0525	-9.78217	20.5051
 300	1	2	0.029337	-25.29	-7.97913	19.1374
 301	1	4	0.180684	-24.5125	-6.7837	18.5034
 302	1	2	-0.223565	-27.2852	-9.43782	19.1653
 303	1	2	-0.141841	-26.4156	-8.55755	18.4933
 304	1	1	0.17153	-28.1703	-9.80505	18.6559
 305	1	1	0.139148	-26.6815	-8.28524	17.4785
 306	1	2	-0.185386	-28.8617	-12.2468	19.7722
 307	1	1	0.155741	-27.868	-12.4364	19.3767
 308	1	4	-0.198622	-25.1	-5.52199	19.1988
 309	1	4	-0.188008	-24.7975	-6.65363	16.98
 310	1	5	0.060726	-26.1959	-5.57259	19.2373
 311	1	5	0.058265	-24.8458	-4.59458	18.6738
 312	1	5	0.044015	-24.7358	-5.4408	20.2312
 313	1	5	0.049647	-24.5491	-7.58655	16.4576
 314	1	5	0.045128	-24.1978	-5.85451	16.5272
 315	1	5	0.061555	-25.8475	-6.40673	16.7812
 316	1	1	0.151962	-22.7523	-4.67318	18.2034
 317	1	2	-0.211106	-22.2328	-5.6001	18.4205
 318	1	2	-0.169243	-20.8271	-5.57008	18.4323
 319	1	1	0.166678	-20.3048	-4.63442	18.2589
 320	1	2	0.259195	-20.0939	-6.74164	18.6619
 321	1	2	-0.207473	-20.794	-7.94083	18.8918
 322	1	1	0.171716	-20.229	-8.85083	19.0704
 323	1	2	-0.169975	-22.21	-7.97432	18.8689
 324	1	1	0.141932	-22.7204	-8.92373	19.0109
 325	1	2	0.050656	-22.9604	-6.79655	18.6437
 326	1	6	0.518059	-32.5172	-13.4801	19.7111
 327	1	6	0.507614	-32.8215	-11.8359	21.2897
 328	1	7	-0.122906	-33.4238	-12.8778	20.5819
 329	1	8	-0.496938	-32.7047	-14.4267	18.9662
 330	1	8	-0.484992	-33.33	-11.0999	22.1176
 331	1	2	-0.048962	-16.3088	-4.07645	17.7066
 332	1	6	0.0776	-15.3259	-3.00245	18.0419
 333	1	8	-0.391129	-15.0157	-2.68955	19.1795
 334	1	2	0.038503	-16.3748	-4.17301	16.3333
 335	1	6	0.061082	-15.4727	-3.15194	15.7387
 336	1	7	0.459351	-14.8506	-2.49053	16.8164
 337	1	8	-0.403808	-15.3753	-2.95092	14.5388
 338	1	2	-0.02278	-17.0802	-4.9171	18.5337
 339	1	2	-0.06542	-17.1861	-5.12676	15.7022
 340	1	2	0.157218	-17.9336	-5.86647	17.9215
 341	1	1	0.144625	-17.0258	-4.83588	19.615
 342	1	2	-0.259423	-17.9697	-5.97811	16.5129
 343	1	3	-0.32062	-18.7094	-6.71633	18.6902
 344	1	1	0.165981	-17.1991	-5.20314	14.6167
 345	1	1	0.168674	-18.6006	-6.73486	16.0543
 346	1	1	0.207625	-13.2682	-1.96256	14.6262
 347	1	2	-0.428502	-13.0871	-1.30831	15.4719
 348	1	2	-0.035773	-12.0771	-0.340809	15.3179
 349	1	1	0.142536	-11.5474	-0.285119	14.3695
 350	1	2	0.020215	-11.7152	0.517034	16.3725
 351	1	2	-0.058677	-12.4474	0.407535	17.5717
 352	1	1	0.147375	-12.2006	1.05471	18.4114
 353	1	2	-0.40884	-13.4858	-0.546548	17.7091
 354	1	1	0.20403	-14.0109	-0.584952	18.6589
 355	1	2	0.301824	-13.8288	-1.45457	16.6706
 356	1	2	-0.079086	-9.18807	3.26414	16.2562
 357	1	2	-0.121043	-8.57902	4.52901	16.4178
 358	1	1	0.148865	-9.09454	5.33113	16.9381
 359	1	2	0.229196	-7.28151	4.73605	15.883
 360	1	3	-0.312503	-6.65714	5.9698	16.0323
 361	1	1	0.177824	-6.74885	1.59036	14.5556
 362	1	2	-0.142744	-7.24616	2.41295	15.0675
 363	1	2	-0.093344	-8.53245	2.24422	15.5961
 364	1	1	0.162888	-4.25022	6.54035	16.9992
 365	1	1	0.147794	-2.18667	6.8924	15.6463
 366	1	2	-0.172056	-4.31387	6.59994	15.9166
 367	1	2	-0.198933	-3.14762	6.81172	15.1436
 368	1	2	0.236899	-5.55333	6.36924	15.2955
 369	1	2	0.029337	-3.19559	6.80421	13.7291
 370	1	4	0.180684	-1.88669	6.61152	12.8981
 371	1	2	-0.223565	-5.63566	6.46968	13.9008
 372	1	2	-0.141841	-4.47742	6.68668	13.1296
 373	1	1	0.17153	-6.59366	6.31167	13.4139
 374	1	1	0.139148	-4.59459	6.67606	12.0515
 375	1	2	-0.185386	-6.62314	3.66871	15.2211
 376	1	1	0.155741	-5.62116	3.80904	14.827
 377	1	4	-0.198622	-2.15717	6.64443	11.3671
 378	1	4	-0.188008	-1.42209	5.16665	13.2423
 379	1	5	0.060726	-1.22754	6.52026	10.7977
 380	1	5	0.058265	-2.59731	7.60484	11.069
 381	1	5	0.044015	-2.82916	5.8356	11.054
 382	1	5	0.049647	-0.988127	5.123	14.2494
 383	1	5	0.045128	-0.680909	4.78208	12.5328
 384	1	5	0.061555	-2.27104	4.47097	13.2161
 385	1	1	0.151962	-1.97528	9.28104	13.8019
 386	1	2	-0.211106	-0.967555	8.96317	13.5455
 387	1	2	-0.169243	0.0842571	9.91147	13.5644
 388	1	1	0.166678	-0.113913	10.9421	13.8433
 389	1	2	0.259195	1.39141	9.55606	13.1838
 390	1	2	-0.207473	1.63905	8.23445	12.7889
 391	1	1	0.171716	2.63199	7.95189	12.452
 392	1	2	-0.169975	0.593919	7.29212	12.7647
 393	1	1	0.141932	0.824693	6.30095	12.39
 394	1	2	0.050656	-0.732989	7.63056	13.1374
 395	1	6	0.518059	-9.41747	1.0491	15.5748
 396	1	6	0.507614	-10.5287	2.73241	16.6765
 397	1	7	-0.122906	-10.5949	1.41162	16.2241
 398	1	8	-0.496938	-9.13604	-0.0220492	15.0652
 399	1	8	-0.484992	-11.3855	3.35221	17.2818
 400	1	2	-0.048962	6.05491	10.7173	12.7724
 401	1	6	0.0776	7.28506	11.1621	12.0512
 402	1	8	-0.391129	7.32078	11.8048	11.015
 403	1	2	0.038503	6.45294	9.97628	13.8705
 404	1	6	0.061082	7.93834	9.91603	13.8962
 405	1	7	0.459351	8.35743	10.6342	12.7772
 406	1	8	-0.403808	8.62111	9.30417	14.7018
 407	1	2	-0.02278	4.6915	10.9114	12.4804
 408	1	2	-0.06542	5.52137	9.3904	14.7363
 409	1	2	0.157218	3.72925	10.3198	13.3345
 410	1	1	0.144625	4.38635	11.494	11.616
 411	1	2	-0.259423	4.14841	9.5706	14.4587
 412	1	3	-0.32062	2.37982	10.5239	13.1055
 413	1	1	0.165981	5.86024	8.81461	15.5949
 414	1	1	0.168674	3.40336	9.14045	15.122
 415	1	1	0.207625	9.94608	12.8422	12.5032
 416	1	2	-0.428502	10.4391	11.9065	12.2523
 417	1	2	-0.035773	11.777	11.928	11.8008
 418	1	1	0.142536	12.3028	12.8768	11.7109
 419	1	2	0.020215	12.4268	10.7331	11.4314
 420	1	2	-0.058677	11.7306	9.51793	11.5597
 421	1	1	0.147375	12.2136	8.58575	11.2738
 422	1	2	-0.40884	10.4029	9.49878	12.0208
 423	1	1	0.20403	9.88591	8.54662	12.1065
 424	1	2	0.301824	9.72691	10.69	12.3558
 425	1	2	-0.079086	15.9443	11.1989	10.3981
 426	1	2	-0.121043	17.2529	11.7079	10.3676
 427	1	1	0.148865	17.6302	12.3388	11.1676
 428	1	2	0.229196	18.0373	11.4428	9.22442
 429	1	3	-0.312503	19.259	12.0494	9.06638
 430	1	1	0.177824	15.8121	9.5303	7.41816
 431	1	2	-0.142744	16.2277	10.1213	8.23308
 432	1	2	-0.093344	15.4522	10.4306	9.35929
 433	1	1	0.162888	21.313	12.8433	7.63298
 434	1	1	0.147794	21.5654	15.0458	6.52473
 435	1	2	-0.172056	20.5236	13.5848	7.71477
 436	1	2	-0.198933	20.6559	14.838	7.08261
 437	1	2	0.236899	19.3725	13.2802	8.45663
 438	1	2	0.029337	19.6355	15.8136	7.18535
 439	1	4	0.180684	19.7866	17.2214	6.5657
 440	1	2	-0.223565	18.3588	14.2454	8.57203
 441	1	2	-0.141841	18.4937	15.4967	7.95283
 442	1	1	0.17153	17.4684	14.0416	9.15511
 443	1	1	0.139148	17.7022	16.2253	8.09308
 444	1	2	-0.185386	17.5346	10.6465	8.17291
 445	1	1	0.155741	18.1543	10.4701	7.29823
 446	1	4	-0.198622	20.2367	18.1831	7.69961
 447	1	4	-0.188008	18.4194	17.7712	6.05451
 448	1	5	0.060726	19.4653	18.2668	8.47556
 449	1	5	0.058265	20.4304	19.191	7.31009
 450	1	5	0.044015	21.1441	17.8182	8.19639
 451	1	5	0.049647	17.7578	18.065	6.87828
 452	1	5	0.045128	17.8815	17.025	5.45696
 453	1	5	0.061555	18.5678	18.6632	5.43227
 454	1	1	0.151962	22.5055	17.9883	6.48159
 455	1	2	-0.211106	22.1225	17.661	5.5209
 456	1	2	-0.169243	22.9952	17.692	4.41927
 457	1	1	0.166678	24.0206	18.0273	4.54291
 458	1	2	0.259195	22.5426	17.3074	3.14932
 459	1	2	-0.207473	21.2438	16.8072	3.00238
 460	1	1	0.171716	20.9126	16.4711	2.02417
 461	1	2	-0.169975	20.3759	16.753	4.10712
 462	1	1	0.141932	19.3751	16.3573	3.96123
 463	1	2	0.050656	20.7851	17.2171	5.37925
 464	1	6	0.518059	14.0302	10.1147	9.65131
 465	1	6	0.507614	14.8387	11.4057	11.3795
 466	1	7	-0.122906	13.7336	10.7432	10.8549
 467	1	8	-0.496938	13.2815	9.47237	8.93582
 468	1	8	-0.484992	14.8931	12.0829	12.3911
 469	1	2	-0.048962	25.8581	19.228	0.162576
 470	1	6	0.0776	26.7822	19.2881	-0.990999
 471	1	8	-0.391129	27.0828	18.3441	-1.70398
 472	1	2	0.038503	25.7725	20.4877	0.721822
 473	1	6	0.061082	26.6368	21.4116	-0.0602772
 474	1	7	0.459351	27.1626	20.6304	-1.09313
 475	1	8	-0.403808	26.7572	22.6117	0.127233
 476	1	2	-0.02278	25.0716	18.1637	0.614793
 477	1	2	-0.06542	24.8913	20.7542	1.77645
 478	1	2	0.157218	24.175	18.401	1.67259
 479	1	1	0.144625	25.1199	17.1914	0.133397
 480	1	2	-0.259423	24.0795	19.6965	2.2453
 481	1	3	-0.32062	23.3615	17.3534	2.0482
 482	1	1	0.165981	24.8129	21.7602	2.18369
 483	1	1	0.168674	23.3533	19.9	3.02586
 484	1	1	0.207625	29.0919	22.5756	-1.11594
 485	1	2	-0.428502	28.8546	22.171	-2.09731
 486	1	2	-0.035773	29.5306	22.6714	-3.23018
 487	1	1	0.142536	30.2926	23.4386	-3.10658
 488	1	2	0.020215	29.2442	22.1644	-4.51379
 489	1	2	-0.058677	28.2689	21.1571	-4.63497
 490	1	1	0.147375	28.0409	20.7182	-5.60334
 491	1	2	-0.40884	27.5854	20.6803	-3.51176
 492	1	1	0.20403	26.8369	19.9043	-3.65344
 493	1	2	0.301824	27.8755	21.1588	-2.21897
 494	1	2	-0.079086	30.5681	22.5342	-7.8864
 495	1	2	-0.121043	30.5828	22.2329	-9.25274
 496	1	1	0.148865	29.661	22.0666	-9.80275
 497	1	2	0.229196	31.8317	22.0827	-9.87536
 498	1	3	-0.312503	31.8691	21.7224	-11.1967
 499	1	1	0.177824	33.9031	22.6009	-7.16484
 500	1	2	-0.142744	32.9923	22.5347	-7.75871
 501	1	2	-0.093344	31.7327	22.6469	-7.15219
 502	1	1	0.162888	31.3224	24.2257	-11.7671
 503	1	1	0.147794	32.6898	25.6996	-13.2046
 504	1	2	-0.172056	32.1985	23.831	-12.2732
 505	1	2	-0.198933	32.9846	24.6617	-13.0854
 506	1	2	0.236899	32.5604	22.4923	-12.086
 507	1	2	0.029337	34.1507	24.1689	-13.7135
 508	1	4	0.180684	35.0537	25.1356	-14.5145
 509	1	2	-0.223565	33.6656	21.9606	-12.7573
 510	1	2	-0.141841	34.4492	22.7897	-13.5784
 511	1	1	0.17153	33.9263	20.9159	-12.6127
 512	1	1	0.139148	35.3057	22.3493	-14.0811
 513	1	2	-0.185386	33.0302	22.2608	-9.14347
 514	1	1	0.155741	33.9858	22.1315	-9.64373
 515	1	4	-0.198622	35.3168	26.4295	-13.6921
 516	1	4	-0.188008	34.2856	25.5536	-15.7973
 517	1	5	0.060726	34.4158	27.0456	-13.5921
 518	1	5	0.058265	36.0819	27.0482	-14.1776
 519	1	5	0.044015	35.6674	26.1942	-12.6794
 520	1	5	0.049647	34.0512	24.6792	-16.4177
 521	1	5	0.045128	34.8696	26.2639	-16.3963
 522	1	5	0.061555	33.3343	26.0402	-15.5491
 523	1	1	0.151962	36.2936	24.5326	-17.0006
 524	1	2	-0.211106	36.8912	24.2582	-16.1376
 525	1	2	-0.169243	38.1281	23.6281	-16.3645
 526	1	1	0.166678	38.4643	23.4191	-17.3755
 527	1	2	0.259195	38.9189	23.2217	-15.2837
 528	1	2	-0.207473	38.4928	23.4725	-13.9727
 529	1	1	0.171716	39.1038	23.1448	-13.1374
 530	1	2	-0.169975	37.2668	24.1176	-13.7443
 531	1	1	0.141932	36.9402	24.2779	-12.7198
 532	1	2	0.050656	36.4328	24.5013	-14.8202
 533	1	6	0.518059	31.3603	22.704	-5.71082
 534	1	6	0.507614	29.4224	22.5761	-6.9513
 535	1	7	-0.122906	29.9757	22.5619	-5.67463
 536	1	8	-0.496938	32.1416	22.6985	-4.77534
 537	1	8	-0.484992	28.2485	22.5073	-7.2736
 538	1	2	-0.048962	40.5423	19.4452	-13.5305
 539	1	6	0.0776	41.0807	18.7562	-12.3322
 540	1	8	-0.391129	41.8018	19.2556	-11.4841
 541	1	2	0.038503	39.7521	18.551	-14.2298
 542	1	6	0.061082	39.7551	17.2542	-13.5099
 543	1	7	0.459351	40.5761	17.455	-12.398
 544	1	8	-0.403808	39.1603	16.2444	-13.8517
 545	1	2	-0.02278	40.7105	20.7667	-13.9599
 546	1	2	-0.06542	39.0882	18.9189	-15.4057
 547	1	2	0.157218	40.0303	21.1646	-15.1268
 548	1	1	0.144625	41.3117	21.4701	-13.3918
 549	1	2	-0.259423	39.2302	20.2501	-15.8487
 550	1	3	-0.32062	40.048	22.4797	-15.5056
 551	1	1	0.165981	38.4693	18.1996	-15.9381
 552	1	1	0.168674	38.706	20.585	-16.7393
 553	1	1	0.207625	43.0201	16.9004	-11.4012
 554	1	2	-0.428502	42.2381	16.2359	-11.041
 555	1	2	-0.035773	42.5809	15.1885	-10.1707
 556	1	1	0.142536	43.6173	15.0441	-9.87381
 557	1	2	0.020215	41.5917	14.311	-9.70153
 558	1	2	-0.058677	40.2547	14.4975	-10.0897
 559	1	1	0.147375	39.4869	13.8125	-9.73602
 560	1	2	-0.40884	39.9154	15.5489	-10.9603
 561	1	1	0.20403	38.8824	15.6604	-11.2823
 562	1	2	0.301824	40.9035	16.4263	-11.4593
 563	1	2	-0.079086	42.6885	11.1532	-8.21861
 564	1	2	-0.121043	43.1084	9.81915	-8.15273
 565	1	1	0.148865	43.3117	9.24721	-9.05114
 566	1	2	0.229196	43.1779	9.21641	-6.88568
 567	1	3	-0.312503	43.3955	7.86558	-6.79945
 568	1	1	0.177824	42.2016	11.8759	-4.91489
 569	1	2	-0.142744	42.465	11.3013	-5.80156
 570	1	2	-0.093344	42.3663	11.8703	-7.07918
 571	1	1	0.162888	40.8163	8.16222	-7.42492
 572	1	1	0.147794	38.9772	6.81569	-6.54084
 573	1	2	-0.172056	41.039	7.31457	-6.78206
 574	1	2	-0.198933	39.9896	6.52742	-6.28225
 575	1	2	0.236899	42.3677	7.03522	-6.4242
 576	1	2	0.029337	40.2412	5.42792	-5.42817
 577	1	4	0.180684	39.0657	4.65355	-4.77849
 578	1	2	-0.223565	42.6426	5.9329	-5.60919
 579	1	2	-0.141841	41.592	5.14081	-5.1109
 580	1	1	0.17153	43.6716	5.7248	-5.33196
 581	1	1	0.139148	41.8489	4.32672	-4.44402
 582	1	2	-0.185386	42.8713	9.95229	-5.71722
 583	1	1	0.155741	42.9154	9.45554	-4.75256
 584	1	4	-0.198622	39.4676	3.19429	-4.39278
 585	1	4	-0.188008	37.9063	4.42986	-5.8015
 586	1	5	0.060726	39.8018	2.63737	-5.2784
 587	1	5	0.058265	38.6115	2.65521	-3.96694
 588	1	5	0.044015	40.276	3.13796	-3.65935
 589	1	5	0.049647	37.4755	5.35238	-6.19848
 590	1	5	0.045128	37.0826	3.86915	-5.34148
 591	1	5	0.061555	38.2607	3.85195	-6.66522
 592	1	1	0.151962	37.3198	6.83551	-4.67505
 593	1	2	-0.211106	37.7232	6.58152	-3.70153
 594	1	2	-0.169243	37.378	7.40459	-2.61348
 595	1	1	0.166678	36.7119	8.24319	-2.78137
 596	1	2	0.259195	37.9182	7.16995	-1.33561
 597	1	2	-0.207473	38.787	6.08547	-1.16423
 598	1	1	0.171716	39.2093	5.90142	-0.181143
 599	1	2	-0.169975	39.1264	5.25509	-2.25104
 600	1	1	0.141932	39.8279	4.45014	-2.06805
 601	1	2	0.050656	38.6026	5.48356	-3.54741
 602	1	6	0.518059	41.8913	13.2164	-7.50253
 603	1	6	0.507614	42.4338	12.0164	-9.39959
 604	1	7	-0.122906	41.9574	13.2128	-8.88696
 605	1	8	-0.496938	41.5034	14.1148	-6.77605
 606	1	8	-0.484992	42.6085	11.7197	-10.5694
 607	1	2	-0.048962	34.1208	8.7157	0.302749
 608	1	6	0.0776	32.7889	8.10498	0.496501
 609	1	8	-0.391129	32.5685	7.08227	1.12581
 610	1	2	0.038503	33.9725	9.85213	-0.471772
 611	1	6	0.061082	32.5437	9.96578	-0.868452
 612	1	7	0.459351	31.9462	8.80051	-0.37372
 613	1	8	-0.403808	32.116	10.7311	-1.7178
 614	1	2	-0.02278	35.3679	8.10334	0.467516
 615	1	2	-0.06542	35.0804	10.5117	-1.02132
 616	1	2	0.157218	36.4807	8.70179	-0.150293
 617	1	1	0.144625	35.448	7.1243	0.930563
 618	1	2	-0.259423	36.3535	9.93196	-0.833232
 619	1	3	-0.32062	37.6466	7.98506	-0.251168
 620	1	1	0.165981	34.9399	11.3744	-1.66988
 621	1	1	0.168674	37.2259	10.3646	-1.3157
 622	1	1	0.207625	32.0049	6.23735	-1.13313
 623	1	2	-0.428502	31.1384	6.78324	-1.49663
 624	1	2	-0.035773	30.3148	6.14501	-2.42692
 625	1	1	0.142536	30.5735	5.1391	-2.74929
 626	1	2	0.020215	29.2316	6.8247	-3.00563
 627	1	2	-0.058677	28.9519	8.13969	-2.57972
 628	1	1	0.147375	28.139	8.69566	-3.04282
 629	1	2	-0.40884	29.7828	8.77832	-1.63395
 630	1	1	0.20403	29.6064	9.82473	-1.39436
 631	1	2	0.301824	30.9128	8.11943	-1.09967
 632	1	2	-0.079086	28.0991	5.83035	-6.3334
 633	1	2	-0.121043	28.0205	5.90542	-7.73056
 634	1	1	0.148865	28.1013	6.86088	-8.24148
 635	1	2	0.229196	27.8902	4.69871	-8.44975
 636	1	3	-0.312503	27.8883	4.70193	-9.8217
 637	1	1	0.177824	27.9157	2.4581	-5.83145
 638	1	2	-0.142744	27.9106	3.40711	-6.36561
 639	1	2	-0.093344	28.0462	4.61843	-5.67247
 640	1	1	0.162888	30.503	4.29991	-9.79341
 641	1	1	0.147794	32.1868	5.67156	-10.9747
 642	1	2	-0.172056	30.1843	5.1326	-10.4132
 643	1	2	-0.198933	31.1349	5.9183	-11.0915
 644	1	2	0.236899	28.817	5.42592	-10.5237
 645	1	2	0.029337	30.7278	7.01331	-11.891
 646	1	4	0.180684	31.7424	7.93555	-12.6039