pySIMM System Object

1313 atoms
1445 bonds
2432 angles
3758 dihedrals
456 impropers

9 atom types
11 bond types
18 angle types
9 dihedral types
4 improper types

-164.230882 164.230882 xlo xhi
-164.230882 164.230882 ylo yhi
-164.230882 164.230882 zlo zhi

Masses

   1	1.008	# ha
   2	12.01	# ca
   3	16.0	# os
   4	12.01	# c3
   5	1.008	# hc
   6	12.01	# c
   7	14.01	# n
   8	16.0	# o
   9	1.008	# hn

Pair Coeffs

   1	0.015	2.59964245953351	# ha
   2	0.086	3.3996695084235347	# ca
   3	0.17	3.0000123434657784	# os
   4	0.1094	3.3996695084235347	# c3
   5	0.0157	2.649532787749369	# hc
   6	0.086	3.3996695084235347	# c
   7	0.17	3.249998523775958	# n
   8	0.21	2.959921901149463	# o
   9	0.0157	1.069078461768407	# hn

Bond Coeffs

   1	461.1	1.3984	# ca,ca
   2	427.6	1.3789	# c,n
   3	345.9	1.4906	# c,ca
   4	300.9	1.5375	# c3,c3
   5	345.8	1.086	# ca,ha
   6	384.2	1.4121	# ca,n
   7	321.0	1.5156	# c3,ca
   8	330.6	1.0969	# c3,hc
   9	637.7	1.2183	# c,o
  10	376.6	1.3696	# ca,os
  11	403.2	1.0129	# hn,n

Angle Coeffs

   1	46.34	109.8	# c3,c3,hc
   2	74.22	123.05	# n,c,o
   3	48.33	117.55	# c,n,hn
   4	63.56	112.24	# ca,c3,ca
   5	63.48	119.89	# ca,os,ca
   6	62.86	111.51	# c3,c3,c3
   7	66.62	120.02	# ca,ca,ca
   8	64.28	120.33	# c,ca,ca
   9	63.15	112.07	# c3,c3,ca
  10	39.4	107.58	# hc,c3,hc
  11	48.18	119.88	# ca,ca,ha
  12	63.53	120.77	# c3,ca,ca
  13	63.74	127.08	# c,n,c
  14	67.68	115.25	# ca,c,n
  15	63.82	123.71	# c,n,ca
  16	68.72	122.6	# ca,c,o
  17	67.87	120.19	# ca,ca,n
  18	69.58	119.2	# ca,ca,os

Dihedral Coeffs

   1	1	3.625	2	180	# X,ca,ca,X
   2	1	1.0	2	180	# X,c,ca,X
   3	1	0.0	2	0	# X,c3,ca,X
   4	1	0.15555555555555556	3	0	# X,c3,c3,X
   5	1	0.9	2	180	# X,ca,os,X
   6	1	2.5	2	180	# X,c,n,X
   7	1	0.45	2	180	# X,ca,n,X
   8	1	0.16	3	0	# hc,c3,c3,c3
   9	2	2.5	2	180	2.0	1	0	# hn,n,c,o

Improper Coeffs

   1	1.1	-1	2	# n,X,X,hn
   2	1.1	-1	2	# ca,ca,ca,c3
   3	10.5	-1	2	# c,X,X,o
   4	1.1	-1	2	# ca,X,X,ha

Atoms

   1	1	1	0.207625	64.9431	-54.633	-72.6866
   2	1	2	-0.428502	65.7442	-55.3424	-72.8675
   3	1	2	-0.035773	65.4937	-56.5216	-73.5919
   4	1	1	0.142536	64.4932	-56.7264	-73.9668
   5	1	2	0.020215	66.5323	-57.4434	-73.8233
   6	1	2	-0.058677	67.8195	-57.1749	-73.3213
   7	1	1	0.147375	68.6278	-57.8824	-73.4947
   8	1	2	-0.40884	68.0609	-55.9977	-72.5909
   9	1	1	0.20403	69.0519	-55.7929	-72.199
  10	1	2	0.301824	67.0258	-55.0798	-72.3637
  11	1	2	-0.079086	65.4062	-60.6857	-75.1111
  12	1	2	-0.121043	64.6811	-61.8799	-75.1763
  13	1	1	0.148865	63.8752	-62.0595	-74.4711
  14	1	2	0.229196	65.0422	-62.8255	-76.1637
  15	1	3	-0.312503	64.3889	-64.0337	-76.2775
  16	1	1	0.177824	67.6424	-61.1109	-77.6533
  17	1	2	-0.142744	66.8196	-61.3334	-76.9755
  18	1	2	-0.093344	66.4482	-60.4204	-75.9782
  19	1	1	0.162888	64.5037	-65.0857	-73.8636
  20	1	1	0.147794	62.5851	-65.3757	-72.3317
  21	1	2	-0.172056	63.4987	-64.8494	-74.2009
  22	1	2	-0.198933	62.4018	-65.0005	-73.3336
  23	1	2	0.236899	63.3086	-64.3424	-75.4937
  24	1	2	0.029337	61.0993	-64.6375	-73.7508
  25	1	4	0.180684	59.8732	-64.7002	-72.8135
  26	1	2	-0.223565	62.0215	-64.0228	-75.9386
  27	1	2	-0.141841	60.9237	-64.1807	-75.0768
  28	1	1	0.17153	61.8857	-63.6192	-76.9374
  29	1	1	0.139148	59.9326	-63.9064	-75.4306
  30	1	2	-0.185386	66.0997	-62.546	-77.058
  31	1	1	0.155741	66.3597	-63.2831	-77.8123
  32	1	4	-0.198622	60.2547	-64.8482	-71.315
  33	1	4	-0.188008	59.0594	-65.9635	-73.2026
  34	1	5	0.060726	59.3595	-64.7894	-70.6824
  35	1	5	0.058265	60.9366	-64.0495	-70.9967
  36	1	5	0.044015	60.7358	-65.8132	-71.1124
  37	1	5	0.049647	58.677	-65.8901	-74.2284
  38	1	5	0.045128	58.21	-66.1197	-72.5255
  39	1	5	0.061555	59.6909	-66.8598	-73.1491
  40	1	1	0.151962	57.1071	-64.2771	-73.2824
  41	1	2	-0.211106	57.6773	-63.3582	-73.1899
  42	1	2	-0.169243	56.9923	-62.1355	-73.3064
  43	1	1	0.166678	55.9215	-62.1253	-73.4871
  44	1	2	0.259195	57.6826	-60.9196	-73.1822
  45	1	2	-0.207473	59.0631	-60.9267	-72.9521
  46	1	1	0.171716	59.5923	-59.9832	-72.8522
  47	1	2	-0.169975	59.7497	-62.1485	-72.8313
  48	1	1	0.141932	60.8213	-62.1348	-72.6447
  49	1	2	0.050656	59.0711	-63.3839	-72.9501
  50	1	6	0.518059	67.0237	-59.0974	-75.6099
  51	1	6	0.507614	65.2753	-59.5434	-74.1724
  52	1	7	-0.122906	66.2772	-58.6514	-74.5261
  53	1	8	-0.496938	67.9795	-58.5542	-76.1363
  54	1	8	-0.484992	64.4617	-59.4425	-73.2702
  55	1	2	-0.048962	54.6206	-59.7764	-70.4542
  56	1	6	0.0776	54.2582	-60.1953	-69.0813
  57	1	8	-0.391129	55.0034	-60.7464	-68.2873
  58	1	2	0.038503	53.5174	-59.1876	-71.0424
  59	1	6	0.061082	52.3969	-59.2119	-70.0653
  60	1	7	0.459351	52.9144	-59.8434	-68.9304
  61	1	8	-0.403808	51.262	-58.8091	-70.2643
  62	1	2	-0.02278	55.8206	-59.9515	-71.149
  63	1	2	-0.06542	53.5565	-58.7224	-72.3636
  64	1	2	0.157218	55.8764	-59.512	-72.4881
  65	1	1	0.144625	56.6697	-60.4343	-70.6737
  66	1	2	-0.259423	54.7591	-58.889	-73.0865
  67	1	3	-0.32062	57.0063	-59.7249	-73.2395
  68	1	1	0.165981	52.6764	-58.2675	-72.8135
  69	1	1	0.168674	54.8265	-58.5592	-74.1196
  70	1	1	0.207625	52.9588	-62.15	-67.5347
  71	1	2	-0.428502	52.2751	-61.4071	-67.1306
  72	1	2	-0.035773	51.5518	-61.7131	-65.9672
  73	1	1	0.142536	51.6822	-62.6849	-65.4951
  74	1	2	0.020215	50.6728	-60.7703	-65.4057
  75	1	2	-0.058677	50.5253	-59.518	-66.0303
  76	1	1	0.147375	49.8516	-58.7763	-65.6056
  77	1	2	-0.40884	51.2549	-59.2142	-67.1951
  78	1	1	0.20403	51.1235	-58.2422	-67.6655
  79	1	2	0.301824	52.1483	-60.1503	-67.7599
  80	1	2	-0.079086	48.843	-62.2365	-62.5769
  81	1	2	-0.121043	48.1867	-63.2078	-61.8098
  82	1	1	0.148865	47.914	-64.1688	-62.2367
  83	1	2	0.229196	47.9127	-62.9147	-60.4611
  84	1	3	-0.312503	47.316	-63.894	-59.7023
  85	1	1	0.177824	49.3018	-59.7582	-60.2758
  86	1	2	-0.142744	48.9709	-60.7082	-60.693
  87	1	2	-0.093344	49.219	-61.0214	-62.0371
  88	1	1	0.162888	45.5502	-61.8984	-59.3612
  89	1	1	0.147794	44.0694	-61.6258	-57.4087
  90	1	2	-0.172056	45.6043	-62.6102	-58.5429
  91	1	2	-0.198933	44.7596	-62.4631	-57.4266
  92	1	2	0.236899	46.5012	-63.6891	-58.6144
  93	1	2	0.029337	44.7886	-63.4005	-56.3669
  94	1	4	0.180684	43.837	-63.3053	-55.1519
  95	1	2	-0.223565	46.5241	-64.6354	-57.5843
  96	1	2	-0.141841	45.6746	-64.4966	-56.474
  97	1	1	0.17153	47.197	-65.4845	-57.6586
  98	1	1	0.139148	45.7015	-65.2573	-55.6978
  99	1	2	-0.185386	48.3162	-61.6769	-59.9015
 100	1	1	0.155741	48.1424	-61.4793	-58.8478
 101	1	4	-0.198622	42.5916	-64.1711	-55.4813
 102	1	4	-0.188008	43.323	-61.8599	-54.8987
 103	1	5	0.060726	42.098	-63.8087	-56.3923
 104	1	5	0.058265	41.8546	-64.138	-54.6687
 105	1	5	0.044015	42.8704	-65.2178	-55.6578
 106	1	5	0.049647	42.6448	-61.5238	-55.6929
 107	1	5	0.045128	44.1508	-61.1431	-54.8351
 108	1	5	0.061555	42.7652	-61.8107	-53.9544
 109	1	1	0.151962	43.2984	-65.4651	-53.3795
 110	1	2	-0.211106	44.1752	-64.8863	-53.1068
 111	1	2	-0.169243	44.9143	-65.2916	-51.9795
 112	1	1	0.166678	44.6116	-66.1636	-51.4069
 113	1	2	0.259195	46.0631	-64.5847	-51.5983
 114	1	2	-0.207473	46.478	-63.4761	-52.3443
 115	1	1	0.171716	47.3768	-62.9429	-52.0492
 116	1	2	-0.169975	45.7422	-63.0701	-53.4715
 117	1	1	0.141932	46.0895	-62.2175	-54.0498
 118	1	2	0.050656	44.5804	-63.7667	-53.8743
 119	1	6	0.518059	49.9376	-60.2533	-63.0906
 120	1	6	0.507614	49.314	-62.2847	-63.9853
 121	1	7	-0.122906	49.9709	-61.0806	-64.2065
 122	1	8	-0.496938	50.427	-59.1444	-62.9628
 123	1	8	-0.484992	49.1904	-63.2247	-64.7514
 124	1	2	-0.048962	44.9581	-64.1075	-47.4571
 125	1	6	0.0776	43.8592	-63.3987	-46.7528
 126	1	8	-0.391129	42.9902	-62.7161	-47.2694
 127	1	2	0.038503	45.7169	-64.7781	-46.5137
 128	1	6	0.061082	45.1404	-64.5175	-45.1696
 129	1	7	0.459351	44.0423	-63.6938	-45.4031
 130	1	8	-0.403808	45.5529	-64.9485	-44.1052
 131	1	2	-0.02278	45.2735	-64.1519	-48.8216
 132	1	2	-0.06542	46.8304	-65.5429	-46.8789
 133	1	2	0.157218	46.3967	-64.9162	-49.2138
 134	1	1	0.144625	44.6743	-63.6017	-49.5409
 135	1	2	-0.259423	47.1646	-65.6038	-48.2485
 136	1	3	-0.32062	46.8107	-64.9926	-50.5233
 137	1	1	0.165981	47.4147	-66.0628	-46.1223
 138	1	1	0.168674	48.0279	-66.1789	-48.5723
 139	1	1	0.207625	44.5222	-61.6713	-43.6825
 140	1	2	-0.428502	43.5583	-62.1522	-43.539
 141	1	2	-0.035773	42.7024	-61.6964	-42.5193
 142	1	1	0.142536	43.0117	-60.8638	-41.8907
 143	1	2	0.020215	41.4515	-62.3092	-42.3093
 144	1	2	-0.058677	41.0714	-63.3819	-43.1388
 145	1	1	0.147375	40.1103	-63.8703	-42.9908
 146	1	2	-0.40884	41.9265	-63.8331	-44.159
 147	1	1	0.20403	41.6149	-64.6626	-44.7879
 148	1	2	0.301824	43.1794	-63.2253	-44.371
 149	1	2	-0.079086	39.3145	-60.4974	-39.9163
 150	1	2	-0.121043	38.6774	-59.4214	-39.2822
 151	1	1	0.148865	38.9	-58.4026	-39.584
 152	1	2	0.229196	37.7417	-59.7122	-38.2629
 153	1	3	-0.312503	37.055	-58.7246	-37.5929
 154	1	1	0.177824	37.9422	-63.1583	-38.2764
 155	1	2	-0.142744	38.1382	-62.1212	-38.545
 156	1	2	-0.093344	39.0545	-61.8057	-39.5573
 157	1	1	0.162888	38.3965	-57.4044	-35.7747
 158	1	1	0.147794	39.0396	-55.0154	-35.8903
 159	1	2	-0.172056	38.0988	-56.8006	-36.6267
 160	1	2	-0.198933	38.4534	-55.4421	-36.6983
 161	1	2	0.236899	37.3705	-57.3923	-37.6645
 162	1	2	0.029337	38.0809	-54.649	-37.8087
 163	1	4	0.180684	38.5387	-53.1736	-37.8981
 164	1	2	-0.223565	36.9827	-56.6245	-38.7706
 165	1	2	-0.141841	37.3467	-55.2678	-38.8499
 166	1	1	0.17153	36.4151	-57.0893	-39.5714
 167	1	1	0.139148	37.0597	-54.71	-39.7372
 168	1	2	-0.185386	37.479	-61.0524	-37.9014
 169	1	1	0.155741	36.757	-61.2537	-37.1151
 170	1	4	-0.198622	40.0715	-53.1783	-38.1536
 171	1	4	-0.188008	38.318	-52.4366	-36.5451
 172	1	5	0.060726	40.6104	-53.6567	-37.3261
 173	1	5	0.058265	40.4619	-52.1575	-38.2543
 174	1	5	0.044015	40.3191	-53.7404	-39.0632
 175	1	5	0.049647	39.003	-52.7906	-35.7656
 176	1	5	0.045128	37.2967	-52.5768	-36.1712
 177	1	5	0.061555	38.4907	-51.3587	-36.6609
 178	1	1	0.151962	39.4122	-52.1726	-40.4074
 179	1	2	-0.211106	38.3656	-51.9732	-40.2014
 180	1	2	-0.169243	37.6222	-51.2879	-41.1788
 181	1	1	0.166678	38.0916	-50.9724	-42.106
 182	1	2	0.259195	36.2669	-51.0066	-40.9739
 183	1	2	-0.207473	35.6429	-51.4347	-39.7919
 184	1	1	0.171716	34.5829	-51.2524	-39.6431
 185	1	2	-0.169975	36.3836	-52.1256	-38.8148
 186	1	1	0.141932	35.8746	-52.4679	-37.9177
 187	1	2	0.050656	37.7603	-52.3986	-38.9941
 188	1	6	0.518059	39.8734	-62.6934	-40.4256
 189	1	6	0.507614	40.3022	-60.511	-41.0284
 190	1	7	-0.122906	40.5773	-61.8509	-41.279
 191	1	8	-0.496938	39.8871	-63.9116	-40.3905
 192	1	8	-0.484992	40.7472	-59.5316	-41.6016
 193	1	2	-0.048962	33.5199	-47.5657	-40.7727
 194	1	6	0.0776	33.3429	-46.3278	-39.9695
 195	1	8	-0.391129	34.1715	-45.8333	-39.2226
 196	1	2	0.038503	32.3578	-47.7863	-41.49
 197	1	6	0.061082	31.3929	-46.7047	-41.1754
 198	1	7	0.459351	32.0548	-45.875	-40.2682
 199	1	8	-0.403808	30.2624	-46.5999	-41.6244
 200	1	2	-0.02278	34.6241	-48.4218	-40.8872
 201	1	2	-0.06542	32.2259	-48.8724	-42.3626
 202	1	2	0.157218	34.5122	-49.5232	-41.7635
 203	1	1	0.144625	35.5402	-48.2284	-40.3368
 204	1	2	-0.259423	33.3272	-49.7431	-42.4977
 205	1	3	-0.32062	35.5699	-50.3717	-41.973
 206	1	1	0.165981	31.3052	-49.0202	-42.9233
 207	1	1	0.168674	33.2743	-50.5882	-43.1783
 208	1	1	0.207625	30.6557	-43.9702	-41.577
 209	1	2	-0.428502	30.748	-43.7893	-40.5084
 210	1	2	-0.035773	30.1157	-42.6659	-39.949
 211	1	1	0.142536	29.5563	-41.9865	-40.5894
 212	1	2	0.020215	30.1839	-42.4286	-38.5648
 213	1	2	-0.058677	30.9133	-43.3165	-37.7532
 214	1	1	0.147375	30.9745	-43.1444	-36.6804
 215	1	2	-0.40884	31.547	-44.4381	-38.3177
 216	1	1	0.20403	32.1018	-45.1148	-37.6719
 217	1	2	0.301824	31.463	-44.7008	-39.7018
 218	1	2	-0.079086	28.1289	-40.0482	-36.661
 219	1	2	-0.121043	27.2361	-39.5696	-35.6912
 220	1	1	0.148865	26.7902	-40.2364	-34.9587
 221	1	2	0.229196	26.9514	-38.1912	-35.6834
 222	1	3	-0.312503	26.1136	-37.6854	-34.7211
 223	1	1	0.177824	28.8852	-37.1831	-38.3592
 224	1	2	-0.142744	28.4241	-37.8323	-37.6162
 225	1	2	-0.093344	28.7013	-39.206	-37.5966
 226	1	1	0.162888	24.9571	-35.322	-34.7733
 227	1	1	0.147794	25.7399	-33.3033	-33.5421
 228	1	2	-0.172056	25.8155	-35.383	-34.1109
 229	1	2	-0.198933	26.2665	-34.2466	-33.4154
 230	1	2	0.236899	26.4953	-36.5998	-33.9774
 231	1	2	0.029337	27.3977	-34.3127	-32.5704
 232	1	4	0.180684	27.8875	-33.0254	-31.8691
 233	1	2	-0.223565	27.6058	-36.6905	-33.1284
 234	1	2	-0.141841	28.0542	-35.5581	-32.4273
 235	1	1	0.17153	28.1251	-37.6389	-33.0279
 236	1	1	0.139148	28.9255	-35.6648	-31.7894
 237	1	2	-0.185386	27.54	-37.3287	-36.6391
 238	1	1	0.155741	27.3067	-36.2681	-36.6182
 239	1	4	-0.198622	28.4743	-32.1008	-32.9715
 240	1	4	-0.188008	29.0286	-33.2797	-30.8466
 241	1	5	0.060726	29.2338	-32.6352	-33.5569
 242	1	5	0.058265	28.9579	-31.2148	-32.5417
 243	1	5	0.044015	27.696	-31.7644	-33.6679
 244	1	5	0.049647	29.9296	-33.67	-31.3365
 245	1	5	0.045128	28.7182	-33.9928	-30.0723
 246	1	5	0.061555	29.3082	-32.3466	-30.3408
 247	1	1	0.151962	27.0431	-30.3235	-31.7373
 248	1	2	-0.211106	26.45	-30.9932	-31.1228
 249	1	2	-0.169243	25.4176	-30.4427	-30.3403
 250	1	1	0.166678	25.2233	-29.3743	-30.3559
 251	1	2	0.259195	24.6462	-31.2631	-29.5073
 252	1	2	-0.207473	24.8803	-32.646	-29.4861
 253	1	1	0.171716	24.2709	-33.283	-28.8519
 254	1	2	-0.169975	25.9145	-33.1976	-30.262
 255	1	1	0.141932	26.0985	-34.2683	-30.212
 256	1	2	0.050656	26.7194	-32.3821	-31.0887
 257	1	6	0.518059	29.5865	-40.021	-38.4719
 258	1	6	0.507614	28.6421	-41.4224	-36.9032
 259	1	7	-0.122906	29.4985	-41.321	-37.9922
 260	1	8	-0.496938	30.2388	-39.612	-39.4166
 261	1	8	-0.484992	28.3671	-42.4176	-36.2555
 262	1	2	-0.048962	22.2239	-30.8284	-25.3506
 263	1	6	0.0776	21.0974	-30.5439	-24.4257
 264	1	8	-0.391129	20.0248	-30.0569	-24.7444
 265	1	2	0.038503	23.2766	-31.3294	-24.6094
 266	1	6	0.061082	22.8629	-31.4025	-23.1855
 267	1	7	0.459351	21.5596	-30.8958	-23.1521
 268	1	8	-0.403808	23.5543	-31.8053	-22.2632
 269	1	2	-0.02278	22.3346	-30.6161	-26.7316
 270	1	2	-0.06542	24.5096	-31.629	-25.1993
 271	1	2	0.157218	23.5601	-30.9261	-27.3557
 272	1	1	0.144625	21.5045	-30.2109	-27.3026
 273	1	2	-0.259423	24.6477	-31.4132	-26.5868
 274	1	3	-0.32062	23.6813	-30.6958	-28.7094
 275	1	1	0.165981	25.3349	-31.9954	-24.5922
 276	1	1	0.168674	25.6059	-31.6099	-27.0593
 277	1	1	0.207625	18.8921	-31.2569	-22.7556
 278	1	2	-0.428502	19.4211	-30.8838	-21.8815
 279	1	2	-0.035773	18.6852	-30.5695	-20.7232
 280	1	1	0.142536	17.6061	-30.7101	-20.7195
 281	1	2	0.020215	19.329	-30.0431	-19.5871
 282	1	2	-0.058677	20.7249	-29.8711	-19.6227
 283	1	1	0.147375	21.2459	-29.468	-18.7565
 284	1	2	-0.40884	21.4534	-30.175	-20.7853
 285	1	1	0.20403	22.5274	-30.0034	-20.7888
 286	1	2	0.301824	20.8165	-30.6721	-21.9433
 287	1	2	-0.079086	17.7684	-28.3541	-16.7116
 288	1	2	-0.121043	17.5162	-27.3505	-15.7668
 289	1	1	0.148865	18.1213	-26.4489	-15.7341
 290	1	2	0.229196	16.4546	-27.5379	-14.8621
 291	1	3	-0.312503	16.2303	-26.5479	-13.9314
 292	1	1	0.177824	15.3599	-30.6381	-15.926
 293	1	2	-0.142744	15.9492	-29.7238	-15.8728
 294	1	2	-0.093344	17.0076	-29.5051	-16.7672
 295	1	1	0.162888	13.7302	-26.1095	-14.7124
 296	1	1	0.147794	11.7527	-25.9965	-13.2162
 297	1	2	-0.172056	13.8514	-26.2332	-13.6401
 298	1	2	-0.198933	12.7363	-26.1597	-12.7825
 299	1	2	0.236899	15.1299	-26.4727	-13.1152
 300	1	2	0.029337	12.8859	-26.3065	-11.3832
 301	1	4	0.180684	11.6583	-26.3118	-10.441
 302	1	2	-0.223565	15.2963	-26.6203	-11.7345
 303	1	2	-0.141841	14.1853	-26.5477	-10.8771
 304	1	1	0.17153	16.2899	-26.805	-11.3367
 305	1	1	0.139148	14.3469	-26.7001	-9.815
 306	1	2	-0.185386	15.6796	-28.7248	-14.9102
 307	1	1	0.155741	14.8722	-28.8752	-14.1995
 308	1	4	-0.198622	11.9929	-25.6934	-9.05246
 309	1	4	-0.188008	11.2955	-27.8007	-10.1916
 310	1	5	0.060726	12.6619	-26.3325	-8.46427
 311	1	5	0.058265	11.0781	-25.5594	-8.46063
 312	1	5	0.044015	12.4708	-24.7113	-9.15613
 313	1	5	0.049647	11.0316	-28.3035	-11.1308
 314	1	5	0.045128	10.4545	-27.8974	-9.49296
 315	1	5	0.061555	12.1454	-28.344	-9.75956
 316	1	1	0.151962	11.5933	-23.6354	-11.0632
 317	1	2	-0.211106	10.6283	-24.1052	-11.2381
 318	1	2	-0.169243	9.54344	-23.3095	-11.655
 319	1	1	0.166678	9.66374	-22.2395	-11.7964
 320	1	2	0.259195	8.28374	-23.8893	-11.8577
 321	1	2	-0.207473	8.11859	-25.2682	-11.6845
 322	1	1	0.171716	7.14109	-25.7102	-11.8524
 323	1	2	-0.169975	9.20125	-26.0653	-11.2709
 324	1	1	0.141932	9.02249	-27.1259	-11.1281
 325	1	2	0.050656	10.4724	-25.4935	-11.0166
 326	1	6	0.518059	17.5244	-30.3435	-17.8865
 327	1	6	0.507614	18.7911	-28.4214	-17.7864
 328	1	7	-0.122906	18.5791	-29.6281	-18.4448
 329	1	8	-0.496938	17.0772	-31.4207	-18.2401
 330	1	8	-0.484992	19.6219	-27.5641	-18.0328
 331	1	2	-0.048962	4.10086	-21.8149	-10.7201
 332	1	6	0.0776	2.6832	-21.3915	-10.863
 333	1	8	-0.391129	2.0365	-21.4163	-11.8974
 334	1	2	0.038503	4.46462	-21.6678	-9.39591
 335	1	6	0.061082	3.30562	-21.1314	-8.64125
 336	1	7	0.459351	2.27688	-21.001	-9.5813
 337	1	8	-0.403808	3.30068	-20.8603	-7.4506
 338	1	2	-0.02278	5.00469	-22.2971	-11.6775
 339	1	2	-0.06542	5.74551	-22.0047	-8.94466
 340	1	2	0.157218	6.30357	-22.6453	-11.2511
 341	1	1	0.144625	4.71113	-22.4036	-12.7175
 342	1	2	-0.259423	6.66929	-22.501	-9.88878
 343	1	3	-0.32062	7.20269	-23.1094	-12.1867
 344	1	1	0.165981	6.00809	-21.8819	-7.89582
 345	1	1	0.168674	7.67069	-22.7637	-9.56049
 346	1	1	0.207625	0.882483	-21.5245	-7.31983
 347	1	2	-0.428502	0.345681	-20.9032	-8.03253
 348	1	2	-0.035773	-0.937369	-20.4456	-7.69331
 349	1	1	0.142536	-1.37161	-20.7159	-6.73297
 350	1	2	0.020215	-1.66137	-19.637	-8.58372
 351	1	2	-0.058677	-1.08638	-19.2854	-9.81612
 352	1	1	0.147375	-1.64526	-18.6695	-10.5179
 353	1	2	-0.40884	0.211439	-19.7256	-10.1406
 354	1	1	0.20403	0.638033	-19.4393	-11.0991
 355	1	2	0.301824	0.952994	-20.5444	-9.2567
 356	1	2	-0.079086	-4.68327	-18.3541	-6.97278
 357	1	2	-0.121043	-5.47349	-17.7938	-5.96403
 358	1	1	0.148865	-5.0082	-17.277	-5.12944
 359	1	2	0.229196	-6.87337	-17.953	-6.05249
 360	1	3	-0.312503	-7.69858	-17.474	-5.06196
 361	1	1	0.177824	-7.05307	-19.7599	-8.9875
 362	1	2	-0.142744	-6.62855	-19.1999	-8.15544
 363	1	2	-0.093344	-5.23977	-19.04	-8.03572
 364	1	1	0.162888	-7.15153	-15.1968	-3.86797
 365	1	1	0.147794	-6.16104	-14.9559	-1.60353
 366	1	2	-0.172056	-6.95767	-16.0756	-3.26011
 367	1	2	-0.198933	-6.38942	-15.9493	-1.98062
 368	1	2	0.236899	-7.24931	-17.3447	-3.77278
 369	1	2	0.029337	-6.10448	-17.0889	-1.19336
 370	1	4	0.180684	-5.491	-16.8984	0.210771
 371	1	2	-0.223565	-6.98926	-18.4863	-3.00296
 372	1	2	-0.141841	-6.42903	-18.3615	-1.71903
 373	1	1	0.17153	-7.21429	-19.467	-3.41119
 374	1	1	0.139148	-6.24559	-19.266	-1.14814
 375	1	2	-0.185386	-7.4448	-18.6408	-7.14654
 376	1	1	0.155741	-8.52383	-18.7586	-7.19027
 377	1	4	-0.198622	-5.00178	-18.2261	0.860504
 378	1	4	-0.188008	-6.61811	-16.3689	1.14101
 379	1	5	0.060726	-4.48055	-18.0215	1.80475
 380	1	5	0.058265	-4.30863	-18.7722	0.210137
 381	1	5	0.044015	-5.84026	-18.8964	1.08858
 382	1	5	0.049647	-7.07789	-15.4561	0.742511
 383	1	5	0.045128	-6.23532	-16.1536	2.14705
 384	1	5	0.061555	-7.42074	-17.1108	1.23983
 385	1	1	0.151962	-2.99735	-17.3613	-0.90035
 386	1	2	-0.211106	-3.08024	-16.3565	-0.496343
 387	1	2	-0.169243	-1.96875	-15.497	-0.59093
 388	1	1	0.166678	-1.04416	-15.8416	-1.04485
 389	1	2	0.259195	-2.0441	-14.1815	-0.115807
 390	1	2	-0.207473	-3.2536	-13.7296	0.445484
 391	1	1	0.171716	-3.35635	-12.7086	0.794306
 392	1	2	-0.169975	-4.3534	-14.5944	0.566736
 393	1	1	0.141932	-5.25901	-14.2008	1.0159
 394	1	2	0.050656	-4.28588	-15.9295	0.107502
 395	1	6	0.518059	-4.12425	-19.5713	-8.86908
 396	1	6	0.507614	-3.20568	-18.428	-7.08884
 397	1	7	-0.122906	-2.95817	-19.1896	-8.22017
 398	1	8	-0.496938	-4.23143	-20.2649	-9.86472
 399	1	8	-0.484992	-2.39733	-17.9884	-6.2898
 400	1	2	-0.048962	-1.32343	-10.2374	1.61837
 401	1	6	0.0776	-1.68498	-9.53769	2.87613
 402	1	8	-0.391129	-1.75111	-10.048	3.9823
 403	1	2	0.038503	-1.42747	-9.33859	0.572345
 404	1	6	0.061082	-1.85239	-8.02606	1.12001
 405	1	7	0.459351	-2.01906	-8.23733	2.49132
 406	1	8	-0.403808	-2.08989	-7.02255	0.466909
 407	1	2	-0.02278	-1.0706	-11.5957	1.39372
 408	1	2	-0.06542	-1.26546	-9.73869	-0.760162
 409	1	2	0.157218	-0.963881	-12.0288	0.05576
 410	1	1	0.144625	-1.05586	-12.3055	2.2159
 411	1	2	-0.259423	-1.03554	-11.1081	-1.01146
 412	1	3	-0.32062	-0.933446	-13.3694	-0.232737
 413	1	1	0.165981	-1.37821	-9.01987	-1.56928
 414	1	1	0.168674	-0.965392	-11.473	-2.03291
 415	1	1	0.207625	-4.18831	-6.70632	2.02544
 416	1	2	-0.428502	-3.74853	-6.55215	3.00823
 417	1	2	-0.035773	-4.3337	-5.61537	3.87663
 418	1	1	0.142536	-5.21571	-5.06454	3.55619
 419	1	2	0.020215	-3.78214	-5.381	5.14914
 420	1	2	-0.058677	-2.63746	-6.10303	5.53731
 421	1	1	0.147375	-2.20495	-5.94443	6.52331
 422	1	2	-0.40884	-2.05034	-7.03568	4.66157
 423	1	1	0.20403	-1.17732	-7.59543	4.98983
 424	1	2	0.301824	-2.59278	-7.27192	3.3802
 425	1	2	-0.079086	-5.29371	-2.48196	6.84221
 426	1	2	-0.121043	-5.78478	-1.1816	7.02679
 427	1	1	0.148865	-5.81842	-0.470654	6.20606
 428	1	2	0.229196	-6.21818	-0.819417	8.31623
 429	1	3	-0.312503	-6.65747	0.459773	8.54118
 430	1	1	0.177824	-5.58031	-3.76365	9.99502
 431	1	2	-0.142744	-5.65262	-3.04446	9.18035
 432	1	2	-0.093344	-5.22571	-3.38341	7.88801
 433	1	1	0.162888	-7.40811	2.79301	9.37082
 434	1	1	0.147794	-9.72792	3.56981	9.69553
 435	1	2	-0.172056	-8.23571	2.10783	9.21337
 436	1	2	-0.198933	-9.5599	2.5375	9.4062
 437	1	2	0.236899	-7.96668	0.803159	8.7853
 438	1	2	0.029337	-10.6501	1.66184	9.19623
 439	1	4	0.180684	-12.1022	2.18868	9.32688
 440	1	2	-0.223565	-9.03486	-0.0817015	8.56348
 441	1	2	-0.141841	-10.3604	0.34158	8.7736
 442	1	1	0.17153	-8.84439	-1.08914	8.20742
 443	1	1	0.139148	-11.1571	-0.365708	8.56974
 444	1	2	-0.185386	-6.15428	-1.74109	9.38544
 445	1	1	0.155741	-6.47756	-1.42956	10.3746
 446	1	4	-0.198622	-12.2465	3.01786	10.6397
 447	1	4	-0.188008	-13.1502	1.04688	9.46381
 448	1	5	0.060726	-11.6365	3.92779	10.6343
 449	1	5	0.058265	-11.939	2.42179	11.5085
 450	1	5	0.044015	-13.2871	3.32684	10.8036
 451	1	5	0.049647	-12.9163	0.398323	10.318
 452	1	5	0.045128	-13.2081	0.422552	8.56509
 453	1	5	0.061555	-14.1544	1.46045	9.62392
 454	1	1	0.151962	-12.9267	4.88965	9.01544
 455	1	2	-0.211106	-12.8117	4.35852	8.07641
 456	1	2	-0.169243	-13.0541	5.06242	6.88263
 457	1	1	0.166678	-13.3449	6.10626	6.93014
 458	1	2	0.259195	-12.9243	4.4225	5.63699
 459	1	2	-0.207473	-12.5613	3.07144	5.59619
 460	1	1	0.171716	-12.4647	2.57745	4.63408
 461	1	2	-0.169975	-12.3058	2.36991	6.78796
 462	1	1	0.141932	-12.0055	1.32761	6.7267
 463	1	2	0.050656	-12.4222	2.99899	8.04897
 464	1	6	0.518059	-4.62856	-4.64496	7.37047
 465	1	6	0.507614	-4.74863	-3.14285	5.62667
 466	1	7	-0.122906	-4.37067	-4.42046	6.02321
 467	1	8	-0.496938	-4.41066	-5.65287	8.0197
 468	1	8	-0.484992	-4.66389	-2.64592	4.51711
 469	1	2	-0.048962	-13.717	8.70279	4.4922
 470	1	6	0.0776	-14.5939	9.86774	4.76576
 471	1	8	-0.391129	-15.7739	9.80589	5.0695
 472	1	2	0.038503	-12.4453	9.16966	4.21838
 473	1	6	0.061082	-12.4591	10.6526	4.29786
 474	1	7	0.459351	-13.7713	10.9943	4.64405
 475	1	8	-0.403808	-11.4978	11.3829	4.11453
 476	1	2	-0.02278	-14.0026	7.33227	4.53797
 477	1	2	-0.06542	-11.3804	8.29448	3.96912
 478	1	2	0.157218	-12.9387	6.43466	4.31982
 479	1	1	0.144625	-15.0001	6.97374	4.77508
 480	1	2	-0.259423	-11.6405	6.9084	4.0292
 481	1	3	-0.32062	-13.1436	5.08538	4.45033
 482	1	1	0.165981	-10.3851	8.68234	3.76222
 483	1	1	0.168674	-10.8374	6.19401	3.86879
 484	1	1	0.207625	-12.3951	12.9896	5.87249
 485	1	2	-0.428502	-13.3925	13.2785	5.5505
 486	1	2	-0.035773	-13.8308	14.5943	5.79266
 487	1	1	0.142536	-13.177	15.3036	6.29441
 488	1	2	0.020215	-15.1141	14.9949	5.38821
 489	1	2	-0.058677	-15.9457	14.0756	4.72831
 490	1	1	0.147375	-16.943	14.3773	4.41517
 491	1	2	-0.40884	-15.4972	12.7682	4.47271
 492	1	1	0.20403	-16.1657	12.073	3.97006
 493	1	2	0.301824	-14.2151	12.3401	4.88376
 494	1	2	-0.079086	-16.2131	18.4812	5.21765
 495	1	2	-0.121043	-16.5162	19.7061	4.60463
 496	1	1	0.148865	-16.0395	19.9978	3.67314
 497	1	2	0.229196	-17.5305	20.4997	5.17475
 498	1	3	-0.312503	-17.9992	21.5815	4.47199
 499	1	1	0.177824	-18.4467	18.4594	7.80075
 500	1	2	-0.142744	-17.891	18.8343	6.94204
 501	1	2	-0.093344	-16.8905	18.052	6.34539
 502	1	1	0.162888	-18.94	23.5	3.04293
 503	1	1	0.147794	-18.5432	25.9164	3.33852
 504	1	2	-0.172056	-18.3135	23.849	3.8586
 505	1	2	-0.198933	-18.0739	25.2232	4.02962
 506	1	2	0.236899	-17.743	22.909	4.72431
 507	1	2	0.029337	-17.2322	25.6948	5.06319
 508	1	4	0.180684	-16.9391	27.218	5.20323
 509	1	2	-0.223565	-16.9395	23.3537	5.78604
 510	1	2	-0.141841	-16.6893	24.7315	5.95274
 511	1	1	0.17153	-16.5004	22.6366	6.47279
 512	1	1	0.139148	-16.062	25.0361	6.78401
 513	1	2	-0.185386	-18.2089	20.0715	6.3383
 514	1	1	0.155741	-19.0278	20.6711	6.72541
 515	1	4	-0.198622	-16.7402	27.8271	3.78206
 516	1	4	-0.188008	-15.6049	27.4664	5.96092
 517	1	5	0.060726	-16.0865	27.1885	3.1735
 518	1	5	0.058265	-16.2734	28.8185	3.81938
 519	1	5	0.044015	-17.6949	27.9416	3.25461
 520	1	5	0.049647	-15.6878	27.1892	7.01884
 521	1	5	0.045128	-15.324	28.5269	5.93489
 522	1	5	0.061555	-14.7833	26.893	5.51215
 523	1	1	0.151962	-17.463	29.9531	5.3355
 524	1	2	-0.211106	-18.1586	29.3739	5.93528
 525	1	2	-0.169243	-19.1158	30.0632	6.70886
 526	1	1	0.166678	-19.1466	31.1487	6.69975
 527	1	2	0.259195	-19.9975	29.3504	7.53757
 528	1	2	-0.207473	-19.9166	27.9529	7.57948
 529	1	1	0.171716	-20.5824	27.4095	8.24283
 530	1	2	-0.169975	-18.9666	27.2627	6.80462
 531	1	1	0.141932	-18.9225	26.1806	6.88835
 532	1	2	0.050656	-18.0634	27.9604	5.97027
 533	1	6	0.518059	-16.4694	16.6507	6.6297
 534	1	6	0.507614	-15.333	17.3724	4.75718
 535	1	7	-0.122906	-15.5795	16.3157	5.6198
 536	1	8	-0.496938	-16.9149	15.9249	7.50036
 537	1	8	-0.484992	-14.6251	17.374	3.7658
 538	1	2	-0.048962	-22.4558	33.1706	9.20279
 539	1	6	0.0776	-22.7998	34.2236	10.1931
 540	1	8	-0.391129	-22.4515	34.2452	11.3622
 541	1	2	0.038503	-23.0213	33.5112	7.98876
 542	1	6	0.061082	-23.7628	34.7911	8.15857
 543	1	7	0.459351	-23.5671	35.1587	9.49309
 544	1	8	-0.403808	-24.3764	35.3871	7.28768
 545	1	2	-0.02278	-21.7038	31.9985	9.35758
 546	1	2	-0.06542	-22.8513	32.7054	6.85359
 547	1	2	0.157218	-21.5174	31.1704	8.2317
 548	1	1	0.144625	-21.286	31.7293	10.3231
 549	1	2	-0.259423	-22.0894	31.5208	6.9854
 550	1	3	-0.32062	-20.8636	29.9723	8.41032
 551	1	1	0.165981	-23.31	32.9878	5.90807
 552	1	1	0.168674	-21.9678	30.8581	6.13292
 553	1	1	0.207625	-26.047	36.2614	9.28508
 554	1	2	-0.428502	-25.3473	36.8603	9.86348
 555	1	2	-0.035773	-25.7641	38.1083	10.3717
 556	1	1	0.142536	-26.7802	38.4542	10.193
 557	1	2	0.020215	-24.8631	38.9253	11.0808
 558	1	2	-0.058677	-23.5549	38.4592	11.3018
 559	1	1	0.147375	-22.8462	39.0789	11.8476
 560	1	2	-0.40884	-23.1445	37.2129	10.7978
 561	1	1	0.20403	-22.1236	36.8827	10.9751
 562	1	2	0.301824	-24.0262	36.3961	10.058
 563	1	2	-0.079086	-26.3016	41.9975	12.5363
 564	1	2	-0.121043	-27.1716	42.8415	13.2445
 565	1	1	0.148865	-28.055	42.4481	13.7377
 566	1	2	0.229196	-26.8782	44.2201	13.2775
 567	1	3	-0.312503	-27.7515	45.0745	13.9036
 568	1	1	0.177824	-24.028	44.249	11.3357
 569	1	2	-0.142744	-24.8914	43.8711	11.8824
 570	1	2	-0.093344	-25.1907	42.5007	11.8848
 571	1	1	0.162888	-29.6266	46.2165	15.2542
 572	1	1	0.147794	-29.4569	47.2071	17.5001
 573	1	2	-0.172056	-28.6702	46.2267	15.7667
 574	1	2	-0.198933	-28.5618	46.7932	17.0493
 575	1	2	0.236899	-27.5576	45.6529	15.1397
 576	1	2	0.029337	-27.3246	46.804	17.737
 577	1	4	0.180684	-27.1652	47.3819	19.1688
 578	1	2	-0.223565	-26.3128	45.6869	15.7905
 579	1	2	-0.141841	-26.2013	46.2612	17.0726
 580	1	1	0.17153	-25.4315	45.27	15.3165
 581	1	1	0.139148	-25.2324	46.2706	17.564
 582	1	2	-0.185386	-25.7571	44.7345	12.5875
 583	1	1	0.155741	-25.5754	45.806	12.5891
 584	1	4	-0.198622	-26.7103	46.2395	20.1191
 585	1	4	-0.188008	-28.4984	47.9164	19.7606
 586	1	5	0.060726	-27.4264	45.4113	20.097
 587	1	5	0.058265	-26.654	46.5791	21.1605
 588	1	5	0.044015	-25.7285	45.8453	19.8339
 589	1	5	0.049647	-28.9104	48.7315	19.1528
 590	1	5	0.045128	-28.3416	48.3124	20.7722
 591	1	5	0.061555	-29.2503	47.1199	19.8287
 592	1	1	0.151962	-27.1857	49.5297	17.4846
 593	1	2	-0.211106	-26.3716	49.5989	18.2013
 594	1	2	-0.169243	-25.5173	50.713	18.1635
 595	1	1	0.166678	-25.6581	51.4906	17.419
 596	1	2	0.259195	-24.4477	50.8073	19.0645
 597	1	2	-0.207473	-24.2465	49.8053	20.0197
 598	1	1	0.171716	-23.4056	49.8793	20.702
 599	1	2	-0.169975	-25.1073	48.6947	20.0658
 600	1	1	0.141932	-24.915	47.9326	20.8129
 601	1	2	0.050656	-26.1767	48.5674	19.1459
 602	1	6	0.518059	-24.4889	41.3663	11.228
 603	1	6	0.507614	-26.3508	40.525	12.2955
 604	1	7	-0.122906	-25.2316	40.2301	11.5245
 605	1	8	-0.496938	-23.4723	41.4452	10.5603
 606	1	8	-0.484992	-27.2405	39.7663	12.6414
 607	1	2	-0.048962	-21.7478	51.0737	15.8144
 608	1	6	0.0776	-21.3617	50.1048	14.7682
 609	1	8	-0.391129	-21.8601	49.0024	14.6029
 610	1	2	0.038503	-20.9492	52.1947	15.7008
 611	1	6	0.061082	-19.996	51.9774	14.5819
 612	1	7	0.459351	-20.2638	50.6825	14.1269
 613	1	8	-0.403808	-19.0765	52.7193	14.2741
 614	1	2	-0.02278	-22.6298	50.9012	16.8815
 615	1	2	-0.06542	-21.011	53.2309	16.6412
 616	1	2	0.157218	-22.7188	51.9359	17.8407
 617	1	1	0.144625	-23.1846	49.9707	16.9747
 618	1	2	-0.259423	-21.9172	53.0922	17.7161
 619	1	3	-0.32062	-23.5346	51.8228	18.9432
 620	1	1	0.165981	-20.3484	54.0899	16.5582
 621	1	1	0.168674	-21.9802	53.8627	18.4795
 622	1	1	0.207625	-18.8596	51.4859	11.9185
 623	1	2	-0.428502	-18.6416	50.471	12.2436
 624	1	2	-0.035773	-17.5949	49.7579	11.6244
 625	1	1	0.142536	-17.0216	50.2146	10.8204
 626	1	2	0.020215	-17.2429	48.4826	12.0994
 627	1	2	-0.058677	-17.9813	47.9	13.1395
 628	1	1	0.147375	-17.709	46.9168	13.5178
 629	1	2	-0.40884	-19.0096	48.6148	13.7581
 630	1	1	0.20403	-19.5135	48.1624	14.6085
 631	1	2	0.301824	-19.3418	49.9211	13.3423
 632	1	2	-0.079086	-14.2658	46.4408	11.839
 633	1	2	-0.121043	-13.2846	45.5962	12.3594
 634	1	1	0.148865	-12.962	45.7101	13.3904
 635	1	2	0.229196	-12.8173	44.5411	11.549
 636	1	3	-0.312503	-11.9827	43.5825	12.0825
 637	1	1	0.177824	-14.7073	45.1335	8.72136
 638	1	2	-0.142744	-14.2833	45.2727	9.71482
 639	1	2	-0.093344	-14.7711	46.2789	10.5633
 640	1	1	0.162888	-10.0237	43.7762	13.8235