pySIMM System Object

830 atoms
913 bonds
1536 angles
2372 dihedrals
288 impropers

9 atom types
11 bond types
18 angle types
9 dihedral types
4 improper types

-139.367514 139.367514 xlo xhi
-139.367514 139.367514 ylo yhi
-139.367514 139.367514 zlo zhi

Masses

   1	1.008	# ha
   2	12.01	# ca
   3	16.0	# os
   4	12.01	# c3
   5	1.008	# hc
   6	12.01	# c
   7	14.01	# n
   8	16.0	# o
   9	1.008	# hn

Pair Coeffs

   1	0.015	2.59964245953351	# ha
   2	0.086	3.3996695084235347	# ca
   3	0.17	3.0000123434657784	# os
   4	0.1094	3.3996695084235347	# c3
   5	0.0157	2.649532787749369	# hc
   6	0.086	3.3996695084235347	# c
   7	0.17	3.249998523775958	# n
   8	0.21	2.959921901149463	# o
   9	0.0157	1.069078461768407	# hn

Bond Coeffs

   1	461.1	1.3984	# ca,ca
   2	427.6	1.3789	# c,n
   3	345.9	1.4906	# c,ca
   4	300.9	1.5375	# c3,c3
   5	345.8	1.086	# ca,ha
   6	384.2	1.4121	# ca,n
   7	321.0	1.5156	# c3,ca
   8	330.6	1.0969	# c3,hc
   9	637.7	1.2183	# c,o
  10	376.6	1.3696	# ca,os
  11	403.2	1.0129	# hn,n

Angle Coeffs

   1	46.34	109.8	# c3,c3,hc
   2	74.22	123.05	# n,c,o
   3	48.33	117.55	# c,n,hn
   4	63.56	112.24	# ca,c3,ca
   5	63.48	119.89	# ca,os,ca
   6	62.86	111.51	# c3,c3,c3
   7	66.62	120.02	# ca,ca,ca
   8	64.28	120.33	# c,ca,ca
   9	63.15	112.07	# c3,c3,ca
  10	39.4	107.58	# hc,c3,hc
  11	48.18	119.88	# ca,ca,ha
  12	63.53	120.77	# c3,ca,ca
  13	63.74	127.08	# c,n,c
  14	67.68	115.25	# ca,c,n
  15	63.82	123.71	# c,n,ca
  16	68.72	122.6	# ca,c,o
  17	67.87	120.19	# ca,ca,n
  18	69.58	119.2	# ca,ca,os

Dihedral Coeffs

   1	1	3.625	2	180	# X,ca,ca,X
   2	1	1.0	2	180	# X,c,ca,X
   3	1	0.0	2	0	# X,c3,ca,X
   4	1	0.15555555555555556	3	0	# X,c3,c3,X
   5	1	0.9	2	180	# X,ca,os,X
   6	1	2.5	2	180	# X,c,n,X
   7	1	0.45	2	180	# X,ca,n,X
   8	1	0.16	3	0	# hc,c3,c3,c3
   9	2	2.5	2	180	2.0	1	0	# hn,n,c,o

Improper Coeffs

   1	1.1	-1	2	# n,X,X,hn
   2	1.1	-1	2	# ca,ca,ca,c3
   3	10.5	-1	2	# c,X,X,o
   4	1.1	-1	2	# ca,X,X,ha

Atoms

   1	1	1	0.207625	113.415	33.7617	13.4881
   2	1	2	-0.428502	113.487	32.8454	14.0655
   3	1	2	-0.035773	113.672	31.6104	13.4162
   4	1	1	0.142536	113.735	31.5775	12.3304
   5	1	2	0.020215	113.74	30.4159	14.1627
   6	1	2	-0.058677	113.635	30.4807	15.5663
   7	1	1	0.147375	113.679	29.5681	16.1568
   8	1	2	-0.40884	113.447	31.7188	16.2085
   9	1	1	0.20403	113.351	31.7648	17.2885
  10	1	2	0.301824	113.368	32.9012	15.4605
  11	1	2	-0.079086	113.26	27.3595	12.1851
  12	1	2	-0.121043	112.672	26.4913	11.2576
  13	1	1	0.148865	111.898	26.8407	10.5817
  14	1	2	0.229196	113.123	25.16	11.2042
  15	1	3	-0.312503	112.623	24.3753	10.1893
  16	1	1	0.177824	115.562	25.3142	13.6516
  17	1	2	-0.142744	114.752	25.6237	12.9915
  18	1	2	-0.093344	114.267	26.9419	13.0327
  19	1	1	0.162888	112.187	22.7699	12.3661
  20	1	1	0.147794	111.205	20.5194	12.2662
  21	1	2	-0.172056	111.848	22.3785	11.4123
  22	1	2	-0.198933	111.272	21.0888	11.3446
  23	1	2	0.236899	112.014	23.1378	10.2418
  24	1	2	0.029337	110.844	20.5291	10.1095
  25	1	4	0.180684	110.435	19.0305	9.94419
  26	1	2	-0.223565	111.532	22.6261	9.03079
  27	1	2	-0.141841	110.947	21.3488	8.96356
  28	1	1	0.17153	111.644	23.2238	8.13111
  29	1	1	0.139148	110.618	20.9765	7.99758
  30	1	2	-0.185386	114.173	24.7313	12.055
  31	1	1	0.155741	114.556	23.719	11.9643
  32	1	4	-0.198622	110.702	18.2265	11.2482
  33	1	4	-0.188008	111.381	18.4274	8.86298
  34	1	5	0.060726	110.53	17.1531	11.1028
  35	1	5	0.058265	110.035	18.5552	12.0551
  36	1	5	0.044015	111.741	18.3428	11.5819
  37	1	5	0.049647	111.116	18.7787	7.85808
  38	1	5	0.045128	111.345	17.3321	8.84372
  39	1	5	0.061555	112.423	18.7139	9.05608
  40	1	1	0.151962	108.244	20.8177	9.82151
  41	1	2	-0.211106	107.974	19.8007	9.54865
  42	1	2	-0.169243	106.626	19.5112	9.2366
  43	1	1	0.166678	105.881	20.3008	9.2663
  44	1	2	0.259195	106.209	18.2056	8.91825
  45	1	2	-0.207473	107.174	17.184	8.90914
  46	1	1	0.171716	106.881	16.1602	8.70347
  47	1	2	-0.169975	108.523	17.4743	9.20105
  48	1	1	0.141932	109.235	16.6546	9.19772
  49	1	2	0.050656	108.954	18.783	9.5358
  50	1	6	0.518059	114.646	28.1026	13.8926
  51	1	6	0.507614	112.972	28.7887	12.4657
  52	1	7	-0.122906	113.815	29.151	13.5075
  53	1	8	-0.496938	115.478	28.0957	14.7832
  54	1	8	-0.484992	112.128	29.47	11.9099
  55	1	2	-0.048962	102.324	15.3016	8.61759
  56	1	6	0.0776	101.085	14.6653	9.15807
  57	1	8	-0.391129	100.414	15.0738	10.0908
  58	1	2	0.038503	102.786	14.5186	7.57632
  59	1	6	0.061082	101.867	13.359	7.40971
  60	1	7	0.459351	100.891	13.5087	8.39606
  61	1	8	-0.403808	101.993	12.4497	6.60574
  62	1	2	-0.02278	103.014	16.4607	9.01746
  63	1	2	-0.06542	103.952	14.8526	6.87271
  64	1	2	0.157218	104.208	16.8099	8.34191
  65	1	1	0.144625	102.639	17.0754	9.83002
  66	1	2	-0.259423	104.657	16.0177	7.25702
  67	1	3	-0.32062	104.856	17.9822	8.69942
  68	1	1	0.165981	104.291	14.2255	6.05003
  69	1	1	0.168674	105.544	16.3166	6.70489
  70	1	1	0.207625	100.892	11.6879	10.3778
  71	1	2	-0.428502	100.043	11.5924	9.70715
  72	1	2	-0.035773	99.1485	10.5162	9.87975
  73	1	1	0.142536	99.3237	9.79972	10.6795
  74	1	2	0.020215	98.0611	10.3289	9.00266
  75	1	2	-0.058677	97.8667	11.2767	7.97574
  76	1	1	0.147375	97.0311	11.1606	7.28784
  77	1	2	-0.40884	98.7697	12.3489	7.79909
  78	1	1	0.20403	98.622	13.0358	6.96989
  79	1	2	0.301824	99.8863	12.5131	8.64928
  80	1	2	-0.079086	96.5265	6.96329	9.26002
  81	1	2	-0.121043	96.4445	5.55854	9.30338
  82	1	1	0.148865	97.3427	4.9511	9.36944
  83	1	2	0.229196	95.1708	4.95312	9.21904
  84	1	3	-0.312503	95.0814	3.57617	9.13381
  85	1	1	0.177824	93.238	7.79772	8.90907
  86	1	2	-0.142744	94.1184	7.1701	9.0391
  87	1	2	-0.093344	95.3975	7.74617	9.11658
  88	1	1	0.162888	93.6948	1.62458	8.03266
  89	1	1	0.147794	92.1834	0.0383712	9.21244
  90	1	2	-0.172056	93.5062	1.7447	9.09536
  91	1	2	-0.198933	92.6463	0.847736	9.77121
  92	1	2	0.236899	94.1582	2.78177	9.78554
  93	1	2	0.029337	92.4234	0.967757	11.1623
  94	1	4	0.180684	91.5795	-0.0574612	11.977
  95	1	2	-0.223565	93.955	2.90762	11.1648
  96	1	2	-0.141841	93.1041	2.01211	11.8399
  97	1	1	0.17153	94.4955	3.66983	11.718
  98	1	1	0.139148	93.016	2.11425	12.9165
  99	1	2	-0.185386	94.0153	5.75997	9.09548
 100	1	1	0.155741	93.0437	5.28388	8.99904
 101	1	4	-0.198622	90.6875	0.69203	13.0076
 102	1	4	-0.188008	92.5922	-0.914064	12.7897
 103	1	5	0.060726	91.2727	1.18077	13.7944
 104	1	5	0.058265	90.0029	-0.00591793	13.5072
 105	1	5	0.044015	90.0778	1.45907	12.5133
 106	1	5	0.049647	93.2943	-0.282606	13.348
 107	1	5	0.045128	93.1854	-1.55441	12.1244
 108	1	5	0.061555	92.0854	-1.54828	13.5279
 109	1	1	0.151962	89.678	0.72922	10.1247
 110	1	2	-0.211106	89.6223	-0.339223	10.3195
 111	1	2	-0.169243	88.5404	-1.08013	9.79155
 112	1	1	0.166678	87.787	-0.590605	9.18211
 113	1	2	0.259195	88.3832	-2.44127	10.0995
 114	1	2	-0.207473	89.375	-3.07639	10.8616
 115	1	1	0.171716	89.2742	-4.13477	11.0842
 116	1	2	-0.169975	90.4553	-2.33959	11.3892
 117	1	1	0.141932	91.1544	-2.87052	12.0263
 118	1	2	0.050656	90.5861	-0.944047	11.16
 119	1	6	0.518059	95.8334	9.1734	9.01486
 120	1	6	0.507614	97.711	7.87128	9.27569
 121	1	7	-0.122906	97.2226	9.16679	9.11272
 122	1	8	-0.496938	95.103	10.132	8.83311
 123	1	8	-0.484992	98.8724	7.52212	9.39601
 124	1	2	-0.048962	84.2708	-5.02863	10.7622
 125	1	6	0.0776	83.0213	-5.80316	10.4667
 126	1	8	-0.391129	82.5921	-6.08754	9.36102
 127	1	2	0.038503	84.377	-4.91666	12.1359
 128	1	6	0.061082	83.2312	-5.6159	12.7682
 129	1	7	0.459351	82.4659	-6.11275	11.7149
 130	1	8	-0.403808	83.0203	-5.70879	13.9668
 131	1	2	-0.02278	85.2367	-4.44748	9.91423
 132	1	2	-0.06542	85.4224	-4.21088	12.7394
 133	1	2	0.157218	86.3153	-3.73193	10.4965
 134	1	1	0.144625	85.1508	-4.53573	8.8352
 135	1	2	-0.259423	86.3889	-3.60848	11.9073
 136	1	3	-0.32062	87.2576	-3.12846	9.67156
 137	1	1	0.165981	85.4679	-4.12401	13.823
 138	1	1	0.168674	87.187	-3.03564	12.3681
 139	1	1	0.207625	79.9139	-5.33791	11.1575
 140	1	2	-0.428502	79.9815	-6.28634	11.6844
 141	1	2	-0.035773	78.7959	-6.90416	12.1427
 142	1	1	0.142536	77.8692	-6.39243	11.9161
 143	1	2	0.020215	78.8116	-8.10158	12.9086
 144	1	2	-0.058677	80.092	-8.68674	13.0921
 145	1	1	0.147375	80.2228	-9.60917	13.6415
 146	1	2	-0.40884	81.2726	-8.0714	12.6304
 147	1	1	0.20403	82.2297	-8.52833	12.8688
 148	1	2	0.301824	81.2481	-6.83859	11.954
 149	1	2	-0.079086	75.4459	-8.86679	14.4142
 150	1	2	-0.121043	74.0955	-8.6964	14.7724
 151	1	1	0.148865	73.5112	-7.87531	14.3678
 152	1	2	0.229196	73.5114	-9.61806	15.6687
 153	1	3	-0.312503	72.1678	-9.49674	15.9658
 154	1	1	0.177824	76.2373	-11.6766	16.1696
 155	1	2	-0.142744	75.6339	-10.8514	15.7935
 156	1	2	-0.093344	76.1861	-9.91609	14.9019
 157	1	1	0.162888	72.8925	-8.43128	18.2931
 158	1	1	0.147794	71.7892	-8.8063	20.4615
 159	1	2	-0.172056	72.0416	-9.10298	18.3543
 160	1	2	-0.198933	71.3949	-9.31655	19.5888
 161	1	2	0.236899	71.5858	-9.74255	17.1924
 162	1	2	0.029337	70.2726	-10.1773	19.6915
 163	1	4	0.180684	69.6016	-10.5302	21.0501
 164	1	2	-0.223565	70.4561	-10.5703	17.2696
 165	1	2	-0.141841	69.8095	-10.7882	18.5036
 166	1	1	0.17153	70.0876	-11.0465	16.3659
 167	1	1	0.139148	68.9464	-11.4484	18.5387
 168	1	2	-0.185386	74.2819	-10.6912	16.177
 169	1	1	0.155741	73.8215	-11.4102	16.849
 170	1	4	-0.198622	70.3047	-9.85454	22.2586
 171	1	4	-0.188008	69.7644	-12.0655	21.2466
 172	1	5	0.060726	71.3607	-10.1458	22.3224
 173	1	5	0.058265	69.8244	-10.1447	23.2023
 174	1	5	0.044015	70.2456	-8.76075	22.1894
 175	1	5	0.049647	70.7939	-12.3765	21.0286
 176	1	5	0.045128	69.0961	-12.6268	20.5815
 177	1	5	0.061555	69.5498	-12.3729	22.2776
 178	1	1	0.151962	68.3851	-8.29611	19.9321
 179	1	2	-0.211106	67.6846	-8.89542	20.5089
 180	1	2	-0.169243	66.3602	-8.43767	20.67
 181	1	1	0.166678	66.0408	-7.50487	20.2147
 182	1	2	0.259195	65.4403	-9.17233	21.4327
 183	1	2	-0.207473	65.853	-10.3638	22.0455
 184	1	1	0.171716	65.1582	-10.9238	22.6628
 185	1	2	-0.169975	67.1757	-10.815	21.8961
 186	1	1	0.141932	67.4634	-11.7184	22.4228
 187	1	2	0.050656	68.1153	-10.0968	21.1166
 188	1	6	0.518059	77.559	-9.81363	14.3321
 189	1	6	0.507614	76.3337	-8.05256	13.5346
 190	1	7	-0.122906	77.6077	-8.6522	13.5382
 191	1	8	-0.496938	78.4301	-10.632	14.567
 192	1	8	-0.484992	75.9598	-7.03675	12.977
 193	1	2	-0.048962	61.3639	-10.8113	22.6949
 194	1	6	0.0776	60.5606	-11.4618	23.7609
 195	1	8	-0.391129	60.8535	-11.4484	24.9454
 196	1	2	0.038503	60.7808	-11.1011	21.4791
 197	1	6	0.061082	59.5589	-11.9074	21.7183
 198	1	7	0.459351	59.4739	-12.0756	23.1112
 199	1	8	-0.403808	58.7892	-12.2638	20.8404
 200	1	2	-0.02278	62.5011	-9.99471	22.7862
 201	1	2	-0.06542	61.3144	-10.6242	20.2755
 202	1	2	0.157218	63.0582	-9.50572	21.5852
 203	1	1	0.144625	62.9326	-9.74188	23.7502
 204	1	2	-0.259423	62.4729	-9.82146	20.3402
 205	1	3	-0.32062	64.1635	-8.69121	21.607
 206	1	1	0.165981	60.8353	-10.8625	19.3282
 207	1	1	0.168674	62.9117	-9.42258	19.4302
 208	1	1	0.207625	57.7548	-13.9732	22.0973
 209	1	2	-0.428502	57.5586	-13.6946	23.1281
 210	1	2	-0.035773	56.4492	-14.2843	23.7606
 211	1	1	0.142536	55.8182	-14.9813	23.2131
 212	1	2	0.020215	56.1509	-13.9781	25.0958
 213	1	2	-0.058677	56.9668	-13.0713	25.7862
 214	1	1	0.147375	56.7528	-12.8367	26.8268
 215	1	2	-0.40884	58.0477	-12.4513	25.1345
 216	1	1	0.20403	58.6292	-11.7324	25.7028
 217	1	2	0.301824	58.3789	-12.7439	23.7874
 218	1	2	-0.079086	53.7686	-15.8973	27.1161
 219	1	2	-0.121043	53.2963	-16.8249	28.0538
 220	1	1	0.148865	53.9832	-17.4198	28.6491
 221	1	2	0.229196	51.9043	-16.9711	28.1986
 222	1	3	-0.312503	51.4477	-17.8845	29.1201
 223	1	1	0.177824	50.845	-14.6318	25.8877
 224	1	2	-0.142744	51.5124	-15.2475	26.489
 225	1	2	-0.093344	52.9029	-15.1416	26.3468
 226	1	1	0.162888	50.217	-18.957	27.0008
 227	1	1	0.147794	47.9425	-19.9549	27.0221
 228	1	2	-0.172056	49.646	-18.9857	27.9244
 229	1	2	-0.198933	48.3577	-19.5508	27.9428
 230	1	2	0.236899	50.2004	-18.4583	29.1019
 231	1	2	0.029337	47.5999	-19.5909	29.1353
 232	1	4	0.180684	46.1858	-20.2173	29.1313
 233	1	2	-0.223565	49.4848	-18.5393	30.3004
 234	1	2	-0.141841	48.1969	-19.0998	30.3204
 235	1	1	0.17153	49.9355	-18.1601	31.2128
 236	1	1	0.139148	47.6776	-19.1483	31.2716
 237	1	2	-0.185386	51.0172	-16.1694	27.4361
 238	1	1	0.155741	49.9446	-16.2598	27.5803
 239	1	4	-0.198622	45.3399	-19.7809	30.36
 240	1	4	-0.188008	46.3793	-21.7549	29.2131
 241	1	5	0.060726	45.7356	-20.1902	31.2972
 242	1	5	0.058265	44.3053	-20.1354	30.2653
 243	1	5	0.044015	45.3057	-18.6867	30.4435
 244	1	5	0.049647	47.0618	-22.0139	30.0328
 245	1	5	0.045128	46.8105	-22.1468	28.2833
 246	1	5	0.061555	45.4345	-22.2772	29.4062
 247	1	1	0.151962	46.1783	-17.7635	27.8482
 248	1	2	-0.211106	45.4612	-18.4542	27.4112
 249	1	2	-0.169243	44.5899	-17.9855	26.4119
 250	1	1	0.166678	44.6363	-16.9524	26.0793
 251	1	2	0.259195	43.57	-18.817	25.9267
 252	1	2	-0.207473	43.4963	-20.1478	26.3489
 253	1	1	0.171716	42.7037	-20.7826	25.9645
 254	1	2	-0.169975	44.3911	-20.63	27.3191
 255	1	1	0.141932	44.2658	-21.6504	27.6647
 256	1	2	0.050656	45.3657	-19.7804	27.8943
 257	1	6	0.518059	53.7193	-14.2847	25.4434
 258	1	6	0.507614	55.1605	-15.5336	26.7407
 259	1	7	-0.122906	55.0411	-14.5804	25.7417
 260	1	8	-0.496938	53.2982	-13.5019	24.6102
 261	1	8	-0.484992	56.184	-15.985	27.2233
 262	1	2	-0.048962	39.358	-16.5454	25.4145
 263	1	6	0.0776	38.0485	-16.1639	24.8318
 264	1	8	-0.391129	37.5792	-16.6293	23.806
 265	1	2	0.038503	39.5113	-15.8663	26.6053
 266	1	6	0.061082	38.3385	-14.9858	26.8112
 267	1	7	0.459351	37.5143	-15.1972	25.6981
 268	1	8	-0.403808	38.2165	-14.1903	27.7293
 269	1	2	-0.02278	40.3676	-17.3753	24.9072
 270	1	2	-0.06542	40.6545	-16.0167	27.3925
 271	1	2	0.157218	41.5467	-17.527	25.6656
 272	1	1	0.144625	40.2513	-17.8735	23.9492
 273	1	2	-0.259423	41.6703	-16.8698	26.9192
 274	1	3	-0.32062	42.5611	-18.3088	25.1487
 275	1	1	0.165981	40.7514	-15.4755	28.3315
 276	1	1	0.168674	42.5562	-16.9933	27.5306
 277	1	1	0.207625	35.8012	-14.0537	27.5057
 278	1	2	-0.428502	35.537	-13.8784	26.466
 279	1	2	-0.035773	34.4411	-13.0402	26.1902
 280	1	1	0.142536	33.8891	-12.5818	27.0087
 281	1	2	0.020215	34.0765	-12.7675	24.8614
 282	1	2	-0.058677	34.8179	-13.3433	23.8183
 283	1	1	0.147375	34.546	-13.144	22.7837
 284	1	2	-0.40884	35.9316	-14.1485	24.0989
 285	1	1	0.20403	36.4987	-14.5428	23.2606
 286	1	2	0.301824	36.3228	-14.4337	25.4271
 287	1	2	-0.079086	31.2465	-10.8905	23.4862
 288	1	2	-0.121043	30.1678	-10.5879	22.6459
 289	1	1	0.148865	29.7343	-11.3494	22.0037
 290	1	2	0.229196	29.6717	-9.26819	22.6658
 291	1	3	-0.312503	28.6006	-8.89377	21.8943
 292	1	1	0.177824	31.7795	-7.88723	25.0228
 293	1	2	-0.142744	31.3229	-8.62644	24.3661
 294	1	2	-0.093344	31.8056	-9.94128	24.3219
 295	1	1	0.162888	30.2933	-9.60719	19.9243
 296	1	1	0.147794	29.6126	-10.3622	17.6748
 297	1	2	-0.172056	29.2388	-9.72626	19.6946
 298	1	2	-0.198933	28.8428	-10.1474	18.4097
 299	1	2	0.236899	28.2718	-9.41469	20.6663
 300	1	2	0.029337	27.4717	-10.246	18.074
 301	1	4	0.180684	26.9761	-10.5653	16.6441
 302	1	2	-0.223565	26.9156	-9.55551	20.3605
 303	1	2	-0.141841	26.5188	-9.98406	19.0847
 304	1	1	0.17153	26.1735	-9.30444	21.1122
 305	1	1	0.139148	25.4561	-10.0636	18.8685
 306	1	2	-0.185386	30.2386	-8.30074	23.5245
 307	1	1	0.155741	29.8306	-7.29393	23.5267
 308	1	4	-0.198622	26.5785	-12.0648	16.5983
 309	1	4	-0.188008	28.0658	-10.352	15.5573
 310	1	5	0.060726	27.4331	-12.6998	16.8645
 311	1	5	0.058265	26.2479	-12.3593	15.5938
 312	1	5	0.044015	25.7716	-12.2854	17.3085
 313	1	5	0.049647	28.5029	-9.34765	15.6195
 314	1	5	0.045128	27.6357	-10.465	14.5536
 315	1	5	0.061555	28.8775	-11.0842	15.6497
 316	1	1	0.151962	24.2994	-11.1151	15.8549
 317	1	2	-0.211106	24.5096	-10.0573	15.977
 318	1	2	-0.169243	23.4505	-9.1443	15.8183
 319	1	1	0.166678	22.4547	-9.50589	15.5809
 320	1	2	0.259195	23.6661	-7.76759	15.9993
 321	1	2	-0.207473	24.9455	-7.30605	16.3271
 322	1	1	0.171716	25.1038	-6.2426	16.4789
 323	1	2	-0.169975	26.0063	-8.21524	16.4795
 324	1	1	0.141932	26.9862	-7.83951	16.7648
 325	1	2	0.050656	25.8044	-9.6059	16.3254
 326	1	6	0.518059	32.9445	-10.5737	25.0398
 327	1	6	0.507614	32.0132	-12.1525	23.639
 328	1	7	-0.122906	33.016	-11.8733	24.5569
 329	1	8	-0.496938	33.6901	-10.0265	25.8333
 330	1	8	-0.484992	31.8374	-13.1803	23.0082
 331	1	2	-0.048962	19.2368	-7.01798	14.5582
 332	1	6	0.0776	17.7657	-6.92094	14.7399
 333	1	8	-0.391129	17.1828	-6.68954	15.7861
 334	1	2	0.038503	19.4933	-7.28493	13.2249
 335	1	6	0.061082	18.1986	-7.37886	12.5039
 336	1	7	0.459351	17.2244	-7.13758	13.4719
 337	1	8	-0.403808	18.0502	-7.59619	11.3123
 338	1	2	-0.02278	20.2743	-6.86343	15.487
 339	1	2	-0.06542	20.8005	-7.40069	12.737
 340	1	2	0.157218	21.5972	-6.99678	15.0212
 341	1	1	0.144625	20.0659	-6.65258	16.5319
 342	1	2	-0.259423	21.8609	-7.25314	13.6557
 343	1	3	-0.32062	22.6373	-6.86082	15.9054
 344	1	1	0.165981	20.98	-7.59033	11.6808
 345	1	1	0.168674	22.8898	-7.32676	13.3134
 346	1	1	0.207625	15.599	-5.04573	13.9278
 347	1	2	-0.428502	15.0985	-5.89131	13.462
 348	1	2	-0.035773	13.7281	-5.80196	13.1592
 349	1	1	0.142536	13.1819	-4.88975	13.3898
 350	1	2	0.020215	13.0592	-6.88574	12.562
 351	1	2	-0.058677	13.7759	-8.06383	12.2827
 352	1	1	0.147375	13.2688	-8.90757	11.8191
 353	1	2	-0.40884	15.1464	-8.15225	12.5927
 354	1	1	0.20403	15.6912	-9.06252	12.3537
 355	1	2	0.301824	15.8272	-7.06601	13.1827
 356	1	2	-0.079086	9.66121	-6.78404	11.1367
 357	1	2	-0.121043	8.6224	-6.86192	10.192
 358	1	1	0.148865	8.83238	-7.08411	9.14964
 359	1	2	0.229196	7.29712	-6.65381	10.6325
 360	1	3	-0.312503	6.264	-6.75265	9.71498
 361	1	1	0.177824	7.9234	-6.06572	13.9838
 362	1	2	-0.142744	8.10449	-6.2829	12.932
 363	1	2	-0.093344	9.40574	-6.50224	12.4656
 364	1	1	0.162888	4.66846	-8.66784	10.5824
 365	1	1	0.147794	2.49873	-8.2951	11.744
 366	1	2	-0.172056	4.22501	-7.6766	10.6047
 367	1	2	-0.198933	2.99405	-7.45872	11.2568
 368	1	2	0.236899	4.9476	-6.5946	10.0811
 369	1	2	0.029337	2.47556	-6.15209	11.4067
 370	1	4	0.180684	1.40546	-5.87933	12.4956
 371	1	2	-0.223565	4.39056	-5.31128	10.1138
 372	1	2	-0.141841	3.16374	-5.09123	10.7653
 373	1	1	0.17153	4.95819	-4.47523	9.71507
 374	1	1	0.139148	2.8178	-4.06625	10.847
 375	1	2	-0.185386	7.04852	-6.36142	12.0006
 376	1	1	0.155741	6.03433	-6.1972	12.3514
 377	1	4	-0.198622	0.93336	-4.39693	12.5234
 378	1	4	-0.188008	2.15053	-6.09787	13.8448
 379	1	5	0.060726	0.145159	-4.25998	13.2754
 380	1	5	0.058265	0.522201	-4.08634	11.555
 381	1	5	0.044015	1.75058	-3.71287	12.7849
 382	1	5	0.049647	2.45418	-7.14498	13.9711
 383	1	5	0.045128	1.52998	-5.81238	14.7034
 384	1	5	0.061555	3.06404	-5.49009	13.8847
 385	1	1	0.151962	0.236005	-7.67103	14.3537
 386	1	2	-0.211106	-0.366806	-7.50871	13.4665
 387	1	2	-0.169243	-1.68109	-8.00959	13.4765
 388	1	1	0.166678	-2.05534	-8.5412	14.3465
 389	1	2	0.259195	-2.55258	-7.76322	12.4089
 390	1	2	-0.207473	-2.06972	-7.06628	11.2858
 391	1	1	0.171716	-2.7345	-6.85515	10.4544
 392	1	2	-0.169975	-0.746684	-6.5703	11.2694
 393	1	1	0.141932	-0.4163	-5.97781	10.42
 394	1	2	0.050656	0.113143	-6.73564	12.3806
 395	1	6	0.518059	10.6987	-6.4983	13.2013
 396	1	6	0.507614	11.1331	-6.97517	10.989
 397	1	7	-0.122906	11.6717	-6.79131	12.2572
 398	1	8	-0.496938	10.8495	-6.2761	14.3899
 399	1	8	-0.484992	11.7265	-7.24733	9.96047
 400	1	2	-0.048962	-7.09736	-7.46323	10.9367
 401	1	6	0.0776	-8.44742	-6.82927	10.9245
 402	1	8	-0.391129	-8.92316	-6.12697	11.8007
 403	1	2	0.038503	-6.93626	-8.15326	9.74857
 404	1	6	0.061082	-8.17161	-7.99503	8.93713
 405	1	7	0.459351	-9.01372	-7.18575	9.69834
 406	1	8	-0.403808	-8.3641	-8.4479	7.82066
 407	1	2	-0.02278	-6.0768	-7.42822	11.9012
 408	1	2	-0.06542	-5.75265	-8.8428	9.45333
 409	1	2	0.157218	-4.86772	-8.1029	11.6176
 410	1	1	0.144625	-6.21326	-6.89693	12.8388
 411	1	2	-0.259423	-4.71264	-8.81572	10.4078
 412	1	3	-0.32062	-3.87366	-8.13734	12.5683
 413	1	1	0.165981	-5.65271	-9.38416	8.51497
 414	1	1	0.168674	-3.7902	-9.36002	10.2242
 415	1	1	0.207625	-9.52459	-4.74384	8.69607
 416	1	2	-0.428502	-10.386	-5.40605	8.68042
 417	1	2	-0.035773	-11.5886	-4.95835	8.09926
 418	1	1	0.142536	-11.6339	-3.95792	7.67447
 419	1	2	0.020215	-12.7185	-5.79892	8.03576
 420	1	2	-0.058677	-12.6204	-7.09009	8.59616
 421	1	1	0.147375	-13.4751	-7.76259	8.55558
 422	1	2	-0.40884	-11.4134	-7.53784	9.17381
 423	1	1	0.20403	-11.3527	-8.55164	9.56116
 424	1	2	0.301824	-10.2734	-6.70681	9.21313
 425	1	2	-0.079086	-15.6365	-4.05528	6.55348
 426	1	2	-0.121043	-16.5541	-3.02757	6.26951
 427	1	1	0.148865	-16.4852	-2.06747	6.7723
 428	1	2	0.229196	-17.5769	-3.27311	5.32643
 429	1	3	-0.312503	-18.5311	-2.29469	5.11723
 430	1	1	0.177824	-16.8036	-6.54766	4.53962
 431	1	2	-0.142744	-16.7396	-5.56528	5.00561
 432	1	2	-0.093344	-15.7331	-5.29087	5.94537
 433	1	1	0.162888	-17.6828	-0.111259	3.95226
 434	1	1	0.147794	-18.4794	0.83147	1.83389
 435	1	2	-0.172056	-18.4557	-0.628626	3.39162
 436	1	2	-0.198933	-18.9298	-0.0928758	2.17747
 437	1	2	0.236899	-18.9672	-1.83207	3.89177
 438	1	2	0.029337	-19.9278	-0.751293	1.41181
 439	1	4	0.180684	-20.2869	-0.288739	-0.040409
 440	1	2	-0.223565	-20.0119	-2.45984	3.19653
 441	1	2	-0.141841	-20.4779	-1.9329	1.9712
 442	1	1	0.17153	-20.4572	-3.35907	3.60969
 443	1	1	0.139148	-21.2601	-2.47248	1.44874
 444	1	2	-0.185386	-17.664	-4.53911	4.69798
 445	1	1	0.155741	-18.4641	-4.73344	3.99171
 446	1	4	-0.198622	-20.4229	-1.53483	-0.967149
 447	1	4	-0.188008	-19.0633	0.462753	-0.660309
 448	1	5	0.060726	-20.5619	-1.23002	-2.01284
 449	1	5	0.058265	-21.2793	-2.16586	-0.710052
 450	1	5	0.044015	-19.5216	-2.16033	-0.919564
 451	1	5	0.049647	-18.1475	-0.136743	-0.573335
 452	1	5	0.045128	-18.8734	1.42565	-0.172322
 453	1	5	0.061555	-19.2168	0.667524	-1.72802
 454	1	1	0.151962	-20.6746	2.37863	-0.930043
 455	1	2	-0.211106	-21.6006	1.85688	-0.717922
 456	1	2	-0.169243	-22.7913	2.49769	-1.10381
 457	1	1	0.166678	-22.7457	3.46265	-1.59978
 458	1	2	0.259195	-24.0402	1.88153	-0.960433
 459	1	2	-0.207473	-24.0794	0.601674	-0.371309
 460	1	1	0.171716	-25.0155	0.0634716	-0.302786
 461	1	2	-0.169975	-22.8799	-0.0403813	0.035525
 462	1	1	0.141932	-22.9409	-1.04664	0.438515
 463	1	2	0.050656	-21.6055	0.548457	-0.17403
 464	1	6	0.518059	-14.634	-6.15277	6.47207
 465	1	6	0.507614	-14.4643	-4.09054	7.47741
 466	1	7	-0.122906	-13.9133	-5.36616	7.36748
 467	1	8	-0.496938	-14.4246	-7.31105	6.15548
 468	1	8	-0.484992	-14.0669	-3.16095	8.15801
 469	1	2	-0.048962	-28.3831	4.0082	-2.11919
 470	1	6	0.0776	-29.2374	5.00959	-2.8231
 471	1	8	-0.391129	-28.8297	5.88205	-3.57256
 472	1	2	0.038503	-29.1983	3.20574	-1.35079
 473	1	6	0.061082	-30.6089	3.64859	-1.54587
 474	1	7	0.459351	-30.5584	4.72611	-2.4452
 475	1	8	-0.403808	-31.5878	3.11231	-1.05128
 476	1	2	-0.02278	-26.9996	3.77942	-2.18659
 477	1	2	-0.06542	-28.6695	2.15149	-0.587788
 478	1	2	0.157218	-26.4322	2.71965	-1.43929
 479	1	1	0.144625	-26.3743	4.39564	-2.82545
 480	1	2	-0.259423	-27.2716	1.915	-0.629195
 481	1	3	-0.32062	-25.0763	2.50783	-1.64238
 482	1	1	0.165981	-29.3344	1.52539	0.00395138
 483	1	1	0.168674	-26.8607	1.0966	-0.0533017
 484	1	1	0.207625	-30.9559	5.74598	-4.95786
 485	1	2	-0.428502	-31.8146	5.85723	-4.29973
 486	1	2	-0.035773	-33.0008	6.41859	-4.82474
 487	1	1	0.142536	-33.0396	6.71813	-5.87032
 488	1	2	0.020215	-34.1482	6.55781	-4.02002
 489	1	2	-0.058677	-34.0619	6.16939	-2.67072
 490	1	1	0.147375	-34.9336	6.27067	-2.02722
 491	1	2	-0.40884	-32.8766	5.60942	-2.15222
 492	1	1	0.20403	-32.8678	5.28548	-1.11441
 493	1	2	0.301824	-31.7308	5.40875	-2.95786
 494	1	2	-0.079086	-37.4082	6.99855	-5.70874
 495	1	2	-0.121043	-38.5026	6.71116	-6.54778
 496	1	1	0.148865	-38.4273	5.94856	-7.31695
 497	1	2	0.229196	-39.7016	7.43871	-6.37081
 498	1	3	-0.312503	-40.7561	7.23646	-7.24299
 499	1	1	0.177824	-38.7028	9.49742	-3.78128
 500	1	2	-0.142744	-38.6592	8.72497	-4.5479
 501	1	2	-0.093344	-37.4873	7.97404	-4.73335
 502	1	1	0.162888	-42.8406	8.35377	-5.9941
 503	1	1	0.147794	-44.993	7.25846	-5.50844
 504	1	2	-0.172056	-42.9911	7.31925	-6.28289
 505	1	2	-0.198933	-44.2254	6.68577	-6.01793
 506	1	2	0.236899	-41.9541	6.62461	-6.92519
 507	1	2	0.029337	-44.4606	5.33493	-6.38008
 508	1	4	0.180684	-45.7443	4.57748	-5.90602
 509	1	2	-0.223565	-42.1994	5.31892	-7.37066
 510	1	2	-0.141841	-43.4295	4.68258	-7.1025
 511	1	1	0.17153	-41.424	4.79721	-7.92291
 512	1	1	0.139148	-43.5551	3.66372	-7.45078
 513	1	2	-0.185386	-39.7677	8.45066	-5.38349
 514	1	1	0.155741	-40.6756	9.03494	-5.2794
 515	1	4	-0.198622	-46.0895	5.01037	-4.44639
 516	1	4	-0.188008	-45.4643	3.04908	-5.74346
 517	1	5	0.060726	-45.2367	4.83657	-3.77745
 518	1	5	0.058265	-46.9389	4.43458	-4.05532
 519	1	5	0.044015	-46.353	6.06932	-4.3638
 520	1	5	0.049647	-45.2205	2.54901	-6.68577
 521	1	5	0.045128	-46.3445	2.53277	-5.33838
 522	1	5	0.061555	-44.6285	2.87293	-5.05405
 523	1	1	0.151962	-48.1478	6.07531	-5.58239
 524	1	2	-0.211106	-48.1241	5.49084	-6.49534
 525	1	2	-0.169243	-49.2977	5.46111	-7.27906
 526	1	1	0.166678	-50.1701	6.02079	-6.96027
 527	1	2	0.259195	-49.3465	4.69564	-8.45552
 528	1	2	-0.207473	-48.1932	4.01348	-8.86362
 529	1	1	0.171716	-48.2263	3.43507	-9.78202
 530	1	2	-0.169975	-47.0205	4.0431	-8.08329
 531	1	1	0.141932	-46.1605	3.47523	-8.42378
 532	1	2	0.050656	-46.9686	4.7495	-6.85854
 533	1	6	0.518059	-36.1899	7.99654	-3.99185
 534	1	6	0.507614	-36.0503	6.3803	-5.62312
 535	1	7	-0.122906	-35.4011	7.00084	-4.55883
 536	1	8	-0.496938	-35.9245	8.70102	-3.03348
 537	1	8	-0.484992	-35.6331	5.47067	-6.3182
 538	1	2	-0.048962	-53.7746	5.91731	-8.33748
 539	1	6	0.0776	-54.6787	7.06434	-8.09127
 540	1	8	-0.391129	-54.3468	8.2348	-8.00622
 541	1	2	0.038503	-54.5367	4.76213	-8.36258
 542	1	6	0.061082	-55.9661	5.13155	-8.15065
 543	1	7	0.459351	-55.9572	6.5175	-8.00399
 544	1	8	-0.403808	-56.9245	4.37622	-8.1537
 545	1	2	-0.02278	-52.3966	5.90578	-8.59331
 546	1	2	-0.06542	-53.9502	3.51626	-8.61992
 547	1	2	0.157218	-51.7828	4.66309	-8.84985
 548	1	1	0.144625	-51.8326	6.83227	-8.63662
 549	1	2	-0.259423	-52.5576	3.47941	-8.86572
 550	1	3	-0.32062	-50.4678	4.59859	-9.25488
 551	1	1	0.165981	-54.5634	2.6177	-8.65898
 552	1	1	0.168674	-52.0763	2.53661	-9.1097
 553	1	1	0.207625	-56.805	7.63257	-5.70899
 554	1	2	-0.428502	-57.3967	7.91021	-6.57692
 555	1	2	-0.035773	-58.3738	8.91235	-6.44813
 556	1	1	0.142536	-58.5311	9.36856	-5.47346
 557	1	2	0.020215	-59.0728	9.38854	-7.57712
 558	1	2	-0.058677	-58.8441	8.75677	-8.81843
 559	1	1	0.147375	-59.3675	9.09137	-9.7109
 560	1	2	-0.40884	-57.8813	7.7375	-8.94036
 561	1	1	0.20403	-57.6854	7.30374	-9.91756
 562	1	2	0.301824	-57.1102	7.33829	-7.83109
 563	1	2	-0.079086	-61.4351	12.2083	-7.974
 564	1	2	-0.121043	-62.4395	13.0029	-8.54819
 565	1	1	0.148865	-63.0873	12.5942	-9.31697
 566	1	2	0.229196	-62.5557	14.3422	-8.11135
 567	1	3	-0.312503	-63.4782	15.2193	-8.63828
 568	1	1	0.177824	-60.0358	14.3885	-5.75152
 569	1	2	-0.142744	-60.7102	14.015	-6.52118
 570	1	2	-0.093344	-60.5895	12.7051	-7.0033
 571	1	1	0.162888	-66.0318	15.6076	-8.57525
 572	1	1	0.147794	-67.6171	15.2926	-10.4289
 573	1	2	-0.172056	-65.6758	15.2516	-9.53781
 574	1	2	-0.198933	-66.571	15.0622	-10.6021
 575	1	2	0.236899	-64.3144	14.9906	-9.70635
 576	1	2	0.029337	-66.132	14.6121	-11.8721
 577	1	4	0.180684	-67.1777	14.4335	-13.0119
 578	1	2	-0.223565	-63.8409	14.5996	-10.9709
 579	1	2	-0.141841	-64.74	14.4191	-12.0462
 580	1	1	0.17153	-62.7747	14.4557	-11.1189
 581	1	1	0.139148	-64.3431	14.1374	-13.0175
 582	1	2	-0.185386	-61.7117	14.8304	-7.08811
 583	1	1	0.155741	-61.8305	15.8562	-6.75036
 584	1	4	-0.198622	-67.6687	15.8595	-13.393
 585	1	4	-0.188008	-68.3982	13.6424	-12.4622
 586	1	5	0.060726	-67.9256	16.4481	-12.5038
 587	1	5	0.058265	-68.5725	15.8253	-14.0131
 588	1	5	0.044015	-66.8894	16.409	-13.9361
 589	1	5	0.049647	-68.0715	12.705	-11.9929
 590	1	5	0.045128	-69.0933	13.3843	-13.2711
 591	1	5	0.061555	-68.9696	14.2104	-11.7199
 592	1	1	0.151962	-65.7355	12.0666	-13.1049
 593	1	2	-0.211106	-66.0399	12.39	-14.0975
 594	1	2	-0.169243	-65.8016	11.5382	-15.1952
 595	1	1	0.166678	-65.2948	10.5892	-15.0486
 596	1	2	0.259195	-66.2653	11.8632	-16.479
 597	1	2	-0.207473	-66.9274	13.0866	-16.6675
 598	1	1	0.171716	-67.303	13.352	-17.6508
 599	1	2	-0.169975	-67.1428	13.953	-15.5738
 600	1	1	0.141932	-67.6995	14.8644	-15.7622
 601	1	2	0.050656	-66.7161	13.62	-14.26
 602	1	6	0.518059	-59.593	11.6532	-6.67536
 603	1	6	0.507614	-61.0171	10.8124	-8.27759
 604	1	7	-0.122906	-59.8972	10.5593	-7.48592
 605	1	8	-0.496938	-58.6592	11.792	-5.90394
 606	1	8	-0.484992	-61.5399	10.0859	-9.10504
 607	1	2	-0.048962	-68.0437	9.8152	-20.3877
 608	1	6	0.0776	-69.0094	8.86971	-21.0208
 609	1	8	-0.391129	-69.6567	8.01693	-20.4361
 610	1	2	0.038503	-67.5207	10.6216	-21.3799
 611	1	6	0.061082	-68.1211	10.2246	-22.6798
 612	1	7	0.459351	-69.0024	9.17557	-22.3883
 613	1	8	-0.403808	-67.8796	10.7465	-23.757
 614	1	2	-0.02278	-67.6174	9.93572	-19.0536
 615	1	2	-0.06542	-66.5578	11.6008	-21.0997
 616	1	2	0.157218	-66.6455	10.9148	-18.7432
 617	1	1	0.144625	-67.9961	9.26677	-18.287
 618	1	2	-0.259423	-66.1173	11.7388	-19.7636
 619	1	3	-0.32062	-66.0801	10.9325	-17.4846
 620	1	1	0.165981	-66.145	12.2066	-21.9042
 621	1	1	0.168674	-65.3321	12.4498	-19.5215
 622	1	1	0.207625	-68.3146	8.53568	-24.931
 623	1	2	-0.428502	-69.3495	8.30717	-24.6886
 624	1	2	-0.035773	-70.1967	7.86723	-25.7206
 625	1	1	0.142536	-69.79	7.77638	-26.725
 626	1	2	0.020215	-71.5638	7.62171	-25.4838
 627	1	2	-0.058677	-72.0406	7.76846	-24.1643
 628	1	1	0.147375	-73.091	7.58597	-23.9455
 629	1	2	-0.40884	-71.19	8.22801	-23.1353
 630	1	1	0.20403	-71.6039	8.38099	-22.1412
 631	1	2	0.301824	-69.8345	8.5447	-23.384
 632	1	2	-0.079086	-73.1301	7.05714	-28.7689
 633	1	2	-0.121043	-73.1669	6.80261	-30.1488
 634	1	1	0.148865	-72.394	6.20745	-30.6259
 635	1	2	0.229196	-74.2034	7.37589	-30.913
 636	1	3	-0.312503	-74.2193	7.11975	-32.268
 637	1	1	0.177824	-75.8776	9.04391	-28.3951
 638	1	2	-0.142744	-75.1418	8.41103	-28.8895
 639	1	2	-0.093344	-74.0847	7.84431	-28.1584
 640	1	1	0.162888	-73.3749	9.49344	-33.1106
 641	1	1	0.147794	-74.3598	10.8054	-34.9552
 642	1	2	-0.172056	-74.2595	9.12549	-33.622
 643	1	2	-0.198933	-74.825	9.86284	-34.6833
 644	1	2	0.236899	-74.8163	7.89743	-33.2337
 645	1	2	0.029337	-75.9622	9.383	-35.3808
 646	1	4	0.180684	-76.6513	10.1766	-36.5279
 647	1	2	-0.223565	-75.923	7.39654	-33.9292