pySIMM System Object

3314 atoms
3649 bonds
6144 angles
9500 dihedrals
1152 impropers

9 atom types
11 bond types
18 angle types
9 dihedral types
4 improper types

-226.150009 226.150009 xlo xhi
-226.150009 226.150009 ylo yhi
-226.150009 226.150009 zlo zhi

Masses

   1	1.008	# ha
   2	12.01	# ca
   3	16.0	# os
   4	12.01	# c3
   5	1.008	# hc
   6	12.01	# c
   7	14.01	# n
   8	16.0	# o
   9	1.008	# hn

Pair Coeffs

   1	0.015	2.59964245953351	# ha
   2	0.086	3.3996695084235347	# ca
   3	0.17	3.0000123434657784	# os
   4	0.1094	3.3996695084235347	# c3
   5	0.0157	2.649532787749369	# hc
   6	0.086	3.3996695084235347	# c
   7	0.17	3.249998523775958	# n
   8	0.21	2.959921901149463	# o
   9	0.0157	1.069078461768407	# hn

Bond Coeffs

   1	461.1	1.3984	# ca,ca
   2	427.6	1.3789	# c,n
   3	345.9	1.4906	# c,ca
   4	300.9	1.5375	# c3,c3
   5	345.8	1.086	# ca,ha
   6	384.2	1.4121	# ca,n
   7	321.0	1.5156	# c3,ca
   8	330.6	1.0969	# c3,hc
   9	637.7	1.2183	# c,o
  10	376.6	1.3696	# ca,os
  11	403.2	1.0129	# hn,n

Angle Coeffs

   1	46.34	109.8	# c3,c3,hc
   2	74.22	123.05	# n,c,o
   3	48.33	117.55	# c,n,hn
   4	63.56	112.24	# ca,c3,ca
   5	63.48	119.89	# ca,os,ca
   6	62.86	111.51	# c3,c3,c3
   7	66.62	120.02	# ca,ca,ca
   8	64.28	120.33	# c,ca,ca
   9	63.15	112.07	# c3,c3,ca
  10	39.4	107.58	# hc,c3,hc
  11	48.18	119.88	# ca,ca,ha
  12	63.53	120.77	# c3,ca,ca
  13	63.74	127.08	# c,n,c
  14	67.68	115.25	# ca,c,n
  15	63.82	123.71	# c,n,ca
  16	68.72	122.6	# ca,c,o
  17	67.87	120.19	# ca,ca,n
  18	69.58	119.2	# ca,ca,os

Dihedral Coeffs

   1	1	3.625	2	180	# X,ca,ca,X
   2	1	1.0	2	180	# X,c,ca,X
   3	1	0.0	2	0	# X,c3,ca,X
   4	1	0.15555555555555556	3	0	# X,c3,c3,X
   5	1	0.9	2	180	# X,ca,os,X
   6	1	2.5	2	180	# X,c,n,X
   7	1	0.45	2	180	# X,ca,n,X
   8	1	0.16	3	0	# hc,c3,c3,c3
   9	2	2.5	2	180	2.0	1	0	# hn,n,c,o

Improper Coeffs

   1	1.1	-1	2	# n,X,X,hn
   2	1.1	-1	2	# ca,ca,ca,c3
   3	10.5	-1	2	# c,X,X,o
   4	1.1	-1	2	# ca,X,X,ha

Atoms

   1	1	1	0.207625	-164.672	42.4472	24.518
   2	1	2	-0.428502	-164.66	41.4515	24.9497
   3	1	2	-0.035773	-163.454	40.7341	25.0472
   4	1	1	0.142536	-162.529	41.1799	24.6851
   5	1	2	0.020215	-163.441	39.4406	25.6052
   6	1	2	-0.058677	-164.649	38.8776	26.0608
   7	1	1	0.147375	-164.655	37.8808	26.4973
   8	1	2	-0.40884	-165.852	39.5984	25.9547
   9	1	1	0.20403	-166.784	39.1647	26.3043
  10	1	2	0.301824	-165.859	40.8848	25.4005
  11	1	2	-0.079086	-160.264	37.6371	25.1536
  12	1	2	-0.121043	-159.142	37.0947	24.5073
  13	1	1	0.148865	-158.941	37.307	23.4608
  14	1	2	0.229196	-158.292	36.2504	25.2494
  15	1	3	-0.312503	-157.196	35.7009	24.6217
  16	1	1	0.177824	-159.921	36.3434	28.2946
  17	1	2	-0.142744	-159.695	36.5431	27.2479
  18	1	2	-0.093344	-160.536	37.3603	26.4803
  19	1	1	0.162888	-158.497	33.4197	25.0497
  20	1	1	0.147794	-157.476	31.3072	25.821
  21	1	2	-0.172056	-157.423	33.3632	25.2027
  22	1	2	-0.198933	-156.833	32.1617	25.6335
  23	1	2	0.236899	-156.632	34.5011	24.9871
  24	1	2	0.029337	-155.436	32.0637	25.8382
  25	1	4	0.180684	-154.824	30.7449	26.375
  26	1	2	-0.223565	-155.246	34.4184	25.1602
  27	1	2	-0.141841	-154.651	33.2137	25.5801
  28	1	1	0.17153	-154.637	35.3002	24.9834
  29	1	1	0.139148	-153.574	33.1984	25.7139
  30	1	2	-0.185386	-158.559	35.9925	26.6173
  31	1	1	0.155741	-157.885	35.3628	27.1902
  32	1	4	-0.198622	-155.346	29.5393	25.5366
  33	1	4	-0.188008	-155.349	30.5152	27.8212
  34	1	5	0.060726	-154.819	28.6154	25.8097
  35	1	5	0.058265	-155.21	29.7139	24.4621
  36	1	5	0.044015	-156.414	29.3542	25.698
  37	1	5	0.049647	-155.189	31.3951	28.455
  38	1	5	0.045128	-154.851	29.6567	28.2892
  39	1	5	0.061555	-156.428	30.3171	27.8296
  40	1	1	0.151962	-153.084	31.9202	28.2172
  41	1	2	-0.211106	-152.554	31.4237	27.41
  42	1	2	-0.169243	-151.147	31.4635	27.4107
  43	1	1	0.166678	-150.614	31.9691	28.2108
  44	1	2	0.259195	-150.41	30.8463	26.3915
  45	1	2	-0.207473	-151.101	30.1933	25.3565
  46	1	1	0.171716	-150.559	29.6981	24.5602
  47	1	2	-0.169975	-152.508	30.1764	25.3389
  48	1	1	0.141932	-152.996	29.6832	24.5047
  49	1	2	0.050656	-153.268	30.7737	26.3748
  50	1	6	0.518059	-161.803	38.0475	26.8467
  51	1	6	0.507614	-161.346	38.5198	24.6377
  52	1	7	-0.122906	-162.226	38.7028	25.6974
  53	1	8	-0.496938	-162.359	37.9952	27.9302
  54	1	8	-0.484992	-161.431	38.9642	23.5063
  55	1	2	-0.048962	-146.258	28.6569	25.6854
  56	1	6	0.0776	-145.158	27.7655	26.1377
  57	1	8	-0.391129	-144.899	27.4791	27.2951
  58	1	2	0.038503	-146.208	28.7451	24.3067
  59	1	6	0.061082	-145.089	27.8958	23.8206
  60	1	7	0.459351	-144.506	27.3577	24.9712
  61	1	8	-0.403808	-144.762	27.7369	22.6553
  62	1	2	-0.02278	-147.213	29.3623	26.4298
  63	1	2	-0.06542	-147.089	29.5699	23.5942
  64	1	2	0.157218	-148.129	30.1775	25.7346
  65	1	1	0.144625	-147.238	29.2943	27.5133
  66	1	2	-0.259423	-148.047	30.3055	24.3275
  67	1	3	-0.32062	-149.033	30.916	26.4636
  68	1	1	0.165981	-147.011	29.6504	22.5117
  69	1	1	0.168674	-148.718	30.9865	23.811
  70	1	1	0.207625	-142.277	27.5866	26.4903
  71	1	2	-0.428502	-142.251	26.7463	25.8002
  72	1	2	-0.035773	-141.111	25.9188	25.7698
  73	1	1	0.142536	-140.271	26.1377	26.4261
  74	1	2	0.020215	-141.048	24.8171	24.8945
  75	1	2	-0.058677	-142.149	24.5624	24.0533
  76	1	1	0.147375	-142.123	23.7188	23.3665
  77	1	2	-0.40884	-143.284	25.3942	24.084
  78	1	1	0.20403	-144.112	25.1864	23.4105
  79	1	2	0.301824	-143.355	26.5015	24.9557
  80	1	2	-0.079086	-137.704	23.2612	24.6773
  81	1	2	-0.121043	-136.31	23.1552	24.5434
  82	1	1	0.148865	-135.684	24.0427	24.5305
  83	1	2	0.229196	-135.74	21.8725	24.3977
  84	1	3	-0.312503	-134.371	21.7986	24.2205
  85	1	1	0.177824	-138.634	19.9845	24.5019
  86	1	2	-0.142744	-137.978	20.854	24.5243
  87	1	2	-0.093344	-138.513	22.1419	24.6744
  88	1	1	0.162888	-134.385	19.7919	26.0
  89	1	1	0.147794	-132.983	17.7716	25.8942
  90	1	2	-0.172056	-133.675	19.6726	25.1867
  91	1	2	-0.198933	-132.859	18.5256	25.1236
  92	1	2	0.236899	-133.587	20.663	24.1954
  93	1	2	0.029337	-131.913	18.3555	24.0806
  94	1	4	0.180684	-131.063	17.0654	23.91
  95	1	2	-0.223565	-132.623	20.5321	23.1872
  96	1	2	-0.141841	-131.793	19.3957	23.132
  97	1	1	0.17153	-132.531	21.3158	22.4412
  98	1	1	0.139148	-131.063	19.3146	22.3309
  99	1	2	-0.185386	-136.579	20.7286	24.3731
 100	1	1	0.155741	-136.153	19.7433	24.2158
 101	1	4	-0.198622	-131.404	16.4684	22.5139
 102	1	4	-0.188008	-131.434	15.9672	24.9447
 103	1	5	0.060726	-132.492	16.4	22.3798
 104	1	5	0.058265	-131.001	15.4551	22.3948
 105	1	5	0.044015	-131.006	17.0871	21.7006
 106	1	5	0.049647	-132.492	15.6872	24.8703
 107	1	5	0.045128	-131.233	16.3008	25.9708
 108	1	5	0.061555	-130.838	15.0601	24.7792
 109	1	1	0.151962	-128.843	16.0441	22.482
 110	1	2	-0.211106	-128.561	16.7033	23.2966
 111	1	2	-0.169243	-127.188	16.8526	23.5825
 112	1	1	0.166678	-126.447	16.3152	22.9986
 113	1	2	0.259195	-126.773	17.6437	24.6647
 114	1	2	-0.207473	-127.739	18.293	25.4468
 115	1	1	0.171716	-127.415	18.8799	26.3013
 116	1	2	-0.169975	-129.11	18.1515	25.1589
 117	1	1	0.141932	-129.838	18.6354	25.8053
 118	1	2	0.050656	-129.549	17.3443	24.0864
 119	1	6	0.518059	-139.928	22.5932	24.7947
 120	1	6	0.507614	-138.582	24.4612	24.7935
 121	1	7	-0.122906	-139.888	23.9827	24.8443
 122	1	8	-0.496938	-140.909	21.8698	24.8133
 123	1	8	-0.484992	-138.21	25.6217	24.8098
 124	1	2	-0.048962	-121.974	17.36	23.9734
 125	1	6	0.0776	-120.576	16.9368	24.2563
 126	1	8	-0.391129	-120.205	16.275	25.2115
 127	1	2	0.038503	-121.978	18.0884	22.7982
 128	1	6	0.061082	-120.579	18.1789	22.2955
 129	1	7	0.459351	-119.806	17.4804	23.2262
 130	1	8	-0.403808	-120.206	18.7812	21.3015
 131	1	2	-0.02278	-123.141	17.1868	24.7308
 132	1	2	-0.06542	-123.157	18.6582	22.298
 133	1	2	0.157218	-124.34	17.7605	24.2562
 134	1	1	0.144625	-123.115	16.6565	25.6781
 135	1	2	-0.259423	-124.348	18.4875	23.0416
 136	1	3	-0.32062	-125.455	17.6992	25.064
 137	1	1	0.165981	-123.137	19.2443	21.3814
 138	1	1	0.168674	-125.266	18.9589	22.703
 139	1	1	0.207625	-118.029	19.5132	23.1304
 140	1	2	-0.428502	-117.564	18.5303	23.1421
 141	1	2	-0.035773	-116.159	18.4309	23.1308
 142	1	1	0.142536	-115.551	19.3332	23.1205
 143	1	2	0.020215	-115.534	17.1702	23.1285
 144	1	2	-0.058677	-116.336	16.0136	23.1385
 145	1	1	0.147375	-115.866	15.0326	23.1293
 146	1	2	-0.40884	-117.74	16.1168	23.1678
 147	1	1	0.20403	-118.34	15.2108	23.2025
 148	1	2	0.301824	-118.378	17.3759	23.1685
 149	1	2	-0.079086	-111.883	17.1576	23.6731
 150	1	2	-0.121043	-110.639	17.353	24.3015
 151	1	1	0.148865	-110.571	17.8698	25.2546
 152	1	2	0.229196	-109.481	16.8502	23.6686
 153	1	3	-0.312503	-108.252	17.028	24.2773
 154	1	1	0.177824	-110.943	15.4838	20.8511
 155	1	2	-0.142744	-110.847	15.9975	21.8065
 156	1	2	-0.093344	-111.98	16.4877	22.4677
 157	1	1	0.162888	-106.001	18.0001	23.3078
 158	1	1	0.147794	-104.068	16.6592	22.4943
 159	1	2	-0.172056	-106.005	16.9192	23.413
 160	1	2	-0.198933	-104.913	16.1533	22.9551
 161	1	2	0.236899	-107.134	16.289	23.9545
 162	1	2	0.029337	-104.928	14.741	23.0298
 163	1	4	0.180684	-103.81	13.9243	22.3218
 164	1	2	-0.223565	-107.137	14.8949	24.1015
 165	1	2	-0.141841	-106.048	14.1282	23.6446
 166	1	1	0.17153	-108.006	14.4083	24.5345
 167	1	1	0.139148	-106.117	13.0495	23.7389
 168	1	2	-0.185386	-109.59	16.1919	22.417
 169	1	1	0.155741	-108.699	15.8286	21.915
 170	1	4	-0.198622	-103.964	14.2248	20.8031
 171	1	4	-0.188008	-103.987	12.3914	22.4931
 172	1	5	0.060726	-105.014	14.1302	20.4962
 173	1	5	0.058265	-103.386	13.5303	20.1824
 174	1	5	0.044015	-103.639	15.2456	20.565
 175	1	5	0.049647	-104.94	12.0469	22.0709
 176	1	5	0.045128	-103.949	12.1061	23.5522
 177	1	5	0.061555	-103.186	11.8459	21.9777
 178	1	1	0.151962	-103.017	14.7551	24.8544
 179	1	2	-0.211106	-102.174	14.6592	24.1739
 180	1	2	-0.169243	-100.875	14.9302	24.6509
 181	1	1	0.166678	-100.726	15.2504	25.6776
 182	1	2	0.259195	-99.7575	14.7971	23.8135
 183	1	2	-0.207473	-99.9493	14.4031	22.4803
 184	1	1	0.171716	-99.0943	14.324	21.8158
 185	1	2	-0.169975	-101.247	14.1304	22.0013
 186	1	1	0.141932	-101.354	13.8082	20.9706
 187	1	2	0.050656	-102.386	14.2706	22.8329
 188	1	6	0.518059	-113.418	16.4131	22.0882
 189	1	6	0.507614	-113.264	17.5476	24.0871
 190	1	7	-0.122906	-114.113	17.0584	23.1004
 191	1	8	-0.496938	-113.874	15.8595	21.1033
 192	1	8	-0.484992	-113.57	18.1651	25.0919
 193	1	2	-0.048962	-94.8789	14.7589	24.1494
 194	1	6	0.0776	-93.5224	15.309	24.4101
 195	1	8	-0.391129	-93.2863	16.4377	24.8094
 196	1	2	0.038503	-94.7457	13.4462	23.7445
 197	1	6	0.061082	-93.295	13.1068	23.7201
 198	1	7	0.459351	-92.6265	14.2652	24.1413
 199	1	8	-0.403808	-92.8254	12.0271	23.397
 200	1	2	-0.02278	-96.1397	15.3519	24.3094
 201	1	2	-0.06542	-95.87	12.6495	23.4806
 202	1	2	0.157218	-97.2897	14.5766	24.0487
 203	1	1	0.144625	-96.2294	16.3775	24.6546
 204	1	2	-0.259423	-97.1528	13.2254	23.6441
 205	1	3	-0.32062	-98.5188	15.1513	24.3092
 206	1	1	0.165981	-95.7456	11.6086	23.1888
 207	1	1	0.168674	-98.0374	12.6141	23.4908
 208	1	1	0.207625	-90.91	12.3395	25.0234
 209	1	2	-0.428502	-90.4242	13.2833	24.7866
 210	1	2	-0.035773	-89.0287	13.3855	24.9577
 211	1	1	0.142536	-88.4767	12.5197	25.3171
 212	1	2	0.020215	-88.348	14.5876	24.6758
 213	1	2	-0.058677	-89.1099	15.6781	24.2086
 214	1	1	0.147375	-88.6252	16.6269	23.9886
 215	1	2	-0.40884	-90.5012	15.5638	24.018
 216	1	1	0.20403	-91.0484	16.4302	23.6537
 217	1	2	0.301824	-91.1954	14.3674	24.3081
 218	1	2	-0.079086	-84.7087	15.2999	24.5926
 219	1	2	-0.121043	-83.493	15.8717	24.1828
 220	1	1	0.148865	-83.4507	16.5306	23.3204
 221	1	2	0.229196	-82.3315	15.5981	24.9344
 222	1	3	-0.312503	-81.1639	16.2475	24.5851
 223	1	1	0.177824	-83.7278	13.5911	27.3762
 224	1	2	-0.142744	-83.6468	14.2108	26.484
 225	1	2	-0.093344	-84.7844	14.4948	25.7107
 226	1	1	0.162888	-80.4051	13.6365	24.7709
 227	1	1	0.147794	-78.176	12.7748	24.241
 228	1	2	-0.172056	-79.6314	14.3319	24.465
 229	1	2	-0.198933	-78.3459	13.8434	24.1598
 230	1	2	0.236899	-79.9161	15.702	24.3423
 231	1	2	0.029337	-77.3108	14.701	23.7098
 232	1	4	0.180684	-75.9399	14.1171	23.2672
 233	1	2	-0.223565	-78.9017	16.5625	23.8928
 234	1	2	-0.141841	-77.6204	16.0716	23.5662
 235	1	1	0.17153	-79.1276	17.6175	23.7695
 236	1	1	0.139148	-76.8761	16.7624	23.1789
 237	1	2	-0.185386	-82.4142	14.7827	26.0896
 238	1	1	0.155741	-81.5258	14.6212	26.6936
 239	1	4	-0.198622	-76.1729	13.4677	21.8752
 240	1	4	-0.188008	-75.4852	12.9861	24.2327
 241	1	5	0.060726	-77.0235	12.7749	21.9018
 242	1	5	0.058265	-75.3012	12.8889	21.5457
 243	1	5	0.044015	-76.3946	14.2319	21.1193
 244	1	5	0.049647	-76.1141	12.0919	24.1552
 245	1	5	0.045128	-75.5048	13.3279	25.2754
 246	1	5	0.061555	-74.4576	12.6736	24.0048
 247	1	1	0.151962	-75.1799	15.8697	25.2549
 248	1	2	-0.211106	-74.4997	15.9149	24.4073
 249	1	2	-0.169243	-73.3308	16.6979	24.5043
 250	1	1	0.166678	-73.1227	17.2564	25.4121
 251	1	2	0.259195	-72.3881	16.7235	23.4642
 252	1	2	-0.207473	-72.6503	15.9821	22.3002
 253	1	1	0.171716	-71.9249	15.9643	21.4938
 254	1	2	-0.169975	-73.8266	15.211	22.1948
 255	1	1	0.141932	-73.962	14.6256	21.2917
 256	1	2	0.050656	-74.7668	15.1421	23.2553
 257	1	6	0.518059	-86.2119	14.1003	25.8963
 258	1	6	0.507614	-86.0808	15.4349	24.0275
 259	1	7	-0.122906	-86.9259	14.7002	24.8589
 260	1	8	-0.496938	-86.6411	13.4071	26.8025
 261	1	8	-0.484992	-86.3732	16.0742	23.0318
 262	1	2	-0.048962	-67.7636	17.6572	22.4105
 263	1	6	0.0776	-66.2932	17.5705	22.6409
 264	1	8	-0.391129	-65.7447	17.1527	23.6469
 265	1	2	0.038503	-67.9707	18.2052	21.1577
 266	1	6	0.061082	-66.6451	18.4818	20.5367
 267	1	7	0.459351	-65.7022	18.0909	21.4875
 268	1	8	-0.403808	-66.45	18.9876	19.4435
 269	1	2	-0.02278	-68.8395	17.3458	23.2583
 270	1	2	-0.06542	-69.2626	18.4779	20.6856
 271	1	2	0.157218	-70.1528	17.6003	22.8028
 272	1	1	0.144625	-68.6643	16.9491	24.2539
 273	1	2	-0.259423	-70.359	18.1771	21.527
 274	1	3	-0.32062	-71.2059	17.4118	23.6768
 275	1	1	0.165981	-69.401	18.9431	19.7116
 276	1	1	0.168674	-71.3679	18.426	21.2098
 277	1	1	0.207625	-64.0268	16.5637	20.0031
 278	1	2	-0.428502	-63.5343	17.3923	20.5047
 279	1	2	-0.035773	-62.148	17.5806	20.3264
 280	1	1	0.142536	-61.5942	16.8896	19.6943
 281	1	2	0.020215	-61.4741	18.6494	20.9539
 282	1	2	-0.058677	-62.2264	19.5226	21.7668
 283	1	1	0.147375	-61.7363	20.3581	22.2628
 284	1	2	-0.40884	-63.6118	19.3308	21.9452
 285	1	1	0.20403	-64.1669	20.0212	22.5749
 286	1	2	0.301824	-64.2891	18.264	21.3179
 287	1	2	-0.079086	-57.7926	18.4427	20.5789
 288	1	2	-0.121043	-56.506	17.8796	20.5459
 289	1	1	0.148865	-56.3652	16.8084	20.6595
 290	1	2	0.229196	-55.3956	18.7382	20.3993
 291	1	3	-0.312503	-54.1353	18.182	20.4862
 292	1	1	0.177824	-57.0617	21.7597	20.2669
 293	1	2	-0.142744	-56.8964	20.6849	20.3256
 294	1	2	-0.093344	-57.9822	19.8059	20.4751
 295	1	1	0.162888	-53.7777	19.3116	18.0713
 296	1	1	0.147794	-51.6027	19.8575	17.0676
 297	1	2	-0.172056	-52.8719	19.1901	18.6582
 298	1	2	-0.198933	-51.6169	19.4961	18.0905
 299	1	2	0.236899	-52.9521	18.652	19.9522
 300	1	2	0.029337	-50.408	19.26	18.7967
 301	1	4	0.180684	-49.0125	19.3405	18.1099
 302	1	2	-0.223565	-51.7684	18.4379	20.6721
 303	1	2	-0.141841	-50.5138	18.7347	20.1041
 304	1	1	0.17153	-51.8291	17.9876	21.6583
 305	1	1	0.139148	-49.6121	18.4995	20.6645
 306	1	2	-0.185386	-55.5928	20.1361	20.2921
 307	1	1	0.155741	-54.7325	20.7951	20.2204
 308	1	4	-0.198622	-49.0569	20.116	16.7644
 309	1	4	-0.188008	-48.6463	17.8645	17.7827
 310	1	5	0.060726	-49.6786	19.6018	16.021
 311	1	5	0.058265	-48.0537	20.2077	16.3293
 312	1	5	0.044015	-49.4489	21.1307	16.909
 313	1	5	0.049647	-48.3852	17.3152	18.6966
 314	1	5	0.045128	-47.8042	17.7854	17.0857
 315	1	5	0.061555	-49.4949	17.3475	17.3165
 316	1	1	0.151962	-49.1939	21.1512	20.2684
 317	1	2	-0.211106	-48.1664	20.8962	20.0219
 318	1	2	-0.169243	-47.1191	21.4779	20.7704
 319	1	1	0.166678	-47.3425	22.1536	21.5907
 320	1	2	0.259195	-45.7753	21.1981	20.4723
 321	1	2	-0.207473	-45.4874	20.32	19.4162
 322	1	1	0.171716	-44.4564	20.0786	19.1774
 323	1	2	-0.169975	-46.5293	19.7414	18.6688
 324	1	1	0.141932	-46.2596	19.091	17.8435
 325	1	2	0.050656	-47.8911	19.9935	18.9688
 326	1	6	0.518059	-59.4455	20.0765	20.5976
 327	1	6	0.507614	-59.127	17.8047	20.7701
 328	1	7	-0.122906	-60.0613	18.8385	20.7748
 329	1	8	-0.496938	-59.9686	21.177	20.5668
 330	1	8	-0.484992	-59.3304	16.611	20.9085
 331	1	2	-0.048962	-41.114	21.9136	21.4829
 332	1	6	0.0776	-39.856	21.7514	22.2624
 333	1	8	-0.391129	-39.776	21.3834	23.423
 334	1	2	0.038503	-40.7817	22.3584	20.2171
 335	1	6	0.061082	-39.3047	22.4962	20.1336
 336	1	7	0.459351	-38.8252	22.1183	21.3906
 337	1	8	-0.403808	-38.6741	22.8563	19.1521
 338	1	2	-0.02278	-42.4508	21.6988	21.8543
 339	1	2	-0.06542	-41.7619	22.6229	19.2529
 340	1	2	0.157218	-43.4592	21.9382	20.8947
 341	1	1	0.144625	-42.7025	21.3585	22.8543
 342	1	2	-0.259423	-43.1135	22.4154	19.6068
 343	1	3	-0.32062	-44.7808	21.7575	21.2541
 344	1	1	0.165981	-41.477	22.9875	18.268
 345	1	1	0.168674	-43.8967	22.6355	18.8871
 346	1	1	0.207625	-37.4681	20.1999	22.752
 347	1	2	-0.428502	-36.8501	21.0405	22.445
 348	1	2	-0.035773	-35.4801	21.0395	22.7708
 349	1	1	0.142536	-35.0511	20.2001	23.3146
 350	1	2	0.020215	-34.6632	22.1236	22.4044
 351	1	2	-0.058677	-35.2304	23.204	21.7081
 352	1	1	0.147375	-34.608	24.0506	21.4246
 353	1	2	-0.40884	-36.5971	23.1974	21.3783
 354	1	1	0.20403	-37.0102	24.0376	20.8248
 355	1	2	0.301824	-37.4329	22.1178	21.74
 356	1	2	-0.079086	-31.0555	21.6255	22.9249
 357	1	2	-0.121043	-29.7783	21.0504	22.8359
 358	1	1	0.148865	-29.6112	20.1392	22.2684
 359	1	2	0.229196	-28.7169	21.6821	23.5148
 360	1	3	-0.312503	-27.4635	21.1201	23.438
 361	1	1	0.177824	-30.4252	24.3556	24.8771
 362	1	2	-0.142744	-30.2338	23.4416	24.3169
 363	1	2	-0.093344	-31.2707	22.7914	23.6363
 364	1	1	0.162888	-25.6577	23.045	23.5602
 365	1	1	0.147794	-23.9769	23.3333	25.358
 366	1	2	-0.172056	-25.6224	22.3457	24.3906
 367	1	2	-0.198933	-24.6807	22.5086	25.4228
 368	1	2	0.236899	-26.525	21.2747	24.4257
 369	1	2	0.029337	-24.6261	21.6053	26.5111
 370	1	4	0.180684	-23.5283	21.761	27.5969
 371	1	2	-0.223565	-26.4726	20.3558	25.479
 372	1	2	-0.141841	-25.5326	20.5165	26.5118
 373	1	1	0.17153	-27.1602	19.5154	25.4857
 374	1	1	0.139148	-25.5105	19.7691	27.2979
 375	1	2	-0.185386	-28.9471	22.8694	24.2542
 376	1	1	0.155741	-28.1289	23.354	24.777
 377	1	4	-0.198622	-23.8554	20.9474	28.8801
 378	1	4	-0.188008	-23.4621	23.2535	28.0384
 379	1	5	0.060726	-23.1376	21.1657	29.681
 380	1	5	0.058265	-23.7981	19.8679	28.6924
 381	1	5	0.044015	-24.8583	21.1852	29.2575
 382	1	5	0.049647	-23.0106	23.8869	27.2662
 383	1	5	0.045128	-22.8703	23.386	28.9523
 384	1	5	0.061555	-24.4689	23.6375	28.2494
 385	1	1	0.151962	-20.9699	22.2479	28.5848
 386	1	2	-0.211106	-20.9578	21.5953	27.7171
 387	1	2	-0.169243	-19.726	21.0605	27.2907
 388	1	1	0.166678	-18.8188	21.3049	27.8333
 389	1	2	0.259195	-19.6751	20.1856	26.1904
 390	1	2	-0.207473	-20.863	19.8447	25.5351
 391	1	1	0.171716	-20.8246	19.1485	24.7026
 392	1	2	-0.169975	-22.0939	20.3675	25.9653
 393	1	1	0.141932	-22.9915	20.0478	25.4437
 394	1	2	0.050656	-22.1654	21.2585	27.0624
 395	1	6	0.518059	-32.7099	23.1459	23.5222
 396	1	6	0.507614	-32.3605	21.19	22.3525
 397	1	7	-0.122906	-33.2849	22.1465	22.7513
 398	1	8	-0.496938	-33.2507	24.1266	24.0023
 399	1	8	-0.484992	-32.5622	20.1875	21.6898
 400	1	2	-0.048962	-15.0418	19.2275	26.8534
 401	1	6	0.0776	-13.9055	18.3731	27.2835
 402	1	8	-0.391129	-13.942	17.1626	27.4334
 403	1	2	0.038503	-14.6054	20.5377	26.7986
 404	1	6	0.061082	-13.175	20.5758	27.1978
 405	1	7	0.459351	-12.8297	19.2482	27.4668
 406	1	8	-0.403808	-12.4737	21.5737	27.2482
 407	1	2	-0.02278	-16.3567	18.8798	26.5183
 408	1	2	-0.06542	-15.4526	21.5766	26.392
 409	1	2	0.157218	-17.2347	19.9108	26.1285
 410	1	1	0.144625	-16.6892	17.8465	26.5536
 411	1	2	-0.259423	-16.7819	21.2485	26.0469
 412	1	3	-0.32062	-18.5155	19.5768	25.7618
 413	1	1	0.165981	-15.0813	22.5977	26.3345
 414	1	1	0.168674	-17.4598	22.0243	25.7015
 415	1	1	0.207625	-11.1874	20.4543	29.259
 416	1	2	-0.428502	-10.7631	19.5585	28.8112
 417	1	2	-0.035773	-9.46173	19.1602	29.1752
 418	1	1	0.142536	-8.89995	19.7384	29.9056
 419	1	2	0.020215	-8.87982	18.0243	28.5858
 420	1	2	-0.058677	-9.61678	17.2884	27.6427
 421	1	1	0.147375	-9.17479	16.4077	27.1815
 422	1	2	-0.40884	-10.9172	17.6861	27.2867
 423	1	1	0.20403	-11.4685	17.0957	26.5584
 424	1	2	0.301824	-11.5133	18.8311	27.8586
 425	1	2	-0.079086	-5.78309	16.6379	29.9999
 426	1	2	-0.121043	-4.93955	15.957	30.8935
 427	1	1	0.148865	-5.2666	15.7175	31.9014
 428	1	2	0.229196	-3.66098	15.5742	30.4377
 429	1	3	-0.312503	-2.81743	14.8822	31.2769
 430	1	1	0.177824	-3.83066	16.7515	27.1988
 431	1	2	-0.142744	-4.11931	16.5419	28.2278
 432	1	2	-0.093344	-5.38546	16.9118	28.7034
 433	1	1	0.162888	-0.810202	13.3213	31.9354
 434	1	1	0.147794	1.46701	14.0526	32.6066
 435	1	2	-0.172056	-0.56421	14.3789	31.9576
 436	1	2	-0.198933	0.726609	14.8024	32.3416
 437	1	2	0.236899	-1.55123	15.314	31.6067
 438	1	2	0.029337	1.04597	16.1788	32.398
 439	1	4	0.180684	2.42467	16.712	32.8633
 440	1	2	-0.223565	-1.24214	16.6809	31.6438
 441	1	2	-0.141841	0.0385424	17.1036	32.0335
 442	1	1	0.17153	-1.99893	17.4176	31.3929
 443	1	1	0.139148	0.236716	18.1705	32.0645
 444	1	2	-0.185386	-3.25366	15.8684	29.1158
 445	1	1	0.155741	-2.27155	15.5493	28.7789
 446	1	4	-0.198622	2.19359	17.6774	34.0642
 447	1	4	-0.188008	3.02956	17.58	31.7215
 448	1	5	0.060726	1.68798	18.6015	33.7602
 449	1	5	0.058265	3.14689	17.9636	34.5266
 450	1	5	0.044015	1.56832	17.2125	34.8366
 451	1	5	0.049647	2.3993	18.4455	31.4854
 452	1	5	0.045128	3.13684	16.9975	30.798
 453	1	5	0.061555	4.01404	17.9737	32.0055
 454	1	1	0.151962	2.3301	15.1409	35.1425
 455	1	2	-0.211106	3.2434	14.9756	34.5775
 456	1	2	-0.169243	4.26072	14.192	35.1542
 457	1	1	0.166678	4.13233	13.774	36.148
 458	1	2	0.259195	5.47982	13.9989	34.4916
 459	1	2	-0.207473	5.65015	14.5371	33.207
 460	1	1	0.171716	6.59262	14.3981	32.6864
 461	1	2	-0.169975	4.63513	15.331	32.6314
 462	1	1	0.141932	4.83322	15.774	31.6608
 463	1	2	0.050656	3.43217	15.6156	33.3305
 464	1	6	0.518059	-6.52749	17.5509	27.9939
 465	1	6	0.507614	-7.18696	17.115	30.1595
 466	1	7	-0.122906	-7.56014	17.6121	28.9181
 467	1	8	-0.496938	-6.55681	17.8736	26.8193
 468	1	8	-0.484992	-7.86839	17.0372	31.1663
 469	1	2	-0.048962	9.89292	12.2785	34.2985
 470	1	6	0.0776	11.3695	12.4853	34.2429
 471	1	8	-0.391129	11.9495	13.5287	34.496
 472	1	2	0.038503	9.63103	10.9692	33.9439
 473	1	6	0.061082	10.9145	10.2901	33.6462
 474	1	7	0.459351	11.9116	11.2527	33.8501
 475	1	8	-0.403808	11.0235	9.13269	33.2727
 476	1	2	-0.02278	8.85541	13.1489	34.6742
 477	1	2	-0.06542	8.33001	10.4518	33.9321
 478	1	2	0.157218	7.53247	12.65	34.6657
 479	1	1	0.144625	9.06795	14.1637	34.9968
 480	1	2	-0.259423	7.27358	11.3109	34.3013
 481	1	3	-0.32062	6.50777	13.4015	35.1887
 482	1	1	0.165981	8.15724	9.40861	33.6751
 483	1	1	0.168674	6.25662	10.9321	34.352
 484	1	1	0.207625	13.8	12.9562	32.8337
 485	1	2	-0.428502	14.1707	11.9547	33.0397
 486	1	2	-0.035773	15.4921	11.6309	32.6664
 487	1	1	0.142536	16.1057	12.3872	32.1811
 488	1	2	0.020215	15.995	10.3246	32.8436
 489	1	2	-0.058677	15.169	9.38317	33.4867
 490	1	1	0.147375	15.5123	8.36214	33.6364
 491	1	2	-0.40884	13.864	9.71968	33.884
 492	1	1	0.20403	13.2504	8.94583	34.3387
 493	1	2	0.301824	13.3122	10.9929	33.6199
 494	1	2	-0.079086	19.081	8.60939	31.7498
 495	1	2	-0.121043	20.0483	7.59117	31.682
 496	1	1	0.148865	20.1842	6.89167	32.5021
 497	1	2	0.229196	20.7983	7.46966	30.4919
 498	1	3	-0.312503	21.7042	6.44833	30.3248
 499	1	1	0.177824	19.3763	10.0172	28.6534
 500	1	2	-0.142744	19.5894	9.35798	29.4938
 501	1	2	-0.093344	18.8546	9.45825	30.6839
 502	1	1	0.162888	22.7975	8.20764	32.0545
 503	1	1	0.147794	24.8911	7.88706	33.27
 504	1	2	-0.172056	23.3683	7.29923	31.8911
 505	1	2	-0.198933	24.5789	7.109	32.582
 506	1	2	0.236899	22.8923	6.3156	31.0091
 507	1	2	0.029337	25.3473	5.93118	32.4074
 508	1	4	0.180684	26.6162	5.62643	33.2521
 509	1	2	-0.223565	23.6614	5.16424	30.7924
 510	1	2	-0.141841	24.8757	4.97457	31.4786
 511	1	1	0.17153	23.3013	4.40962	30.0988
 512	1	1	0.139148	25.4428	4.06347	31.3005
 513	1	2	-0.185386	20.5696	8.34659	29.4096
 514	1	1	0.155741	21.1393	8.21347	28.4944
 515	1	4	-0.198622	26.3853	4.24985	33.9353
 516	1	4	-0.188008	26.8107	6.65542	34.4012
 517	1	5	0.060726	25.3813	4.20119	34.3758
 518	1	5	0.058265	27.1045	4.06667	34.7408
 519	1	5	0.044015	26.4837	3.42638	33.2161
 520	1	5	0.049647	27.0193	7.6567	34.0043
 521	1	5	0.045128	27.6525	6.38183	35.0488
 522	1	5	0.061555	25.9168	6.70899	35.0367
 523	1	1	0.151962	29.1054	4.74565	34.0425
 524	1	2	-0.211106	29.1037	5.06491	33.0054
 525	1	2	-0.169243	30.293	4.9468	32.2662
 526	1	1	0.166678	31.1826	4.54129	32.7363
 527	1	2	0.259195	30.3325	5.34643	30.9213
 528	1	2	-0.207473	29.1865	5.90853	30.3401
 529	1	1	0.171716	29.2279	6.23788	29.3066
 530	1	2	-0.169975	27.9901	6.02193	31.0788
 531	1	1	0.141932	27.1161	6.45012	30.5954
 532	1	2	0.050656	27.9208	5.57236	32.4183
 533	1	6	0.518059	17.6877	10.3201	31.0154
 534	1	6	0.507614	18.0744	8.92273	32.803
 535	1	7	-0.122906	17.2473	9.91431	32.2735
 536	1	8	-0.496938	17.1802	11.1354	30.2646
 537	1	8	-0.484992	17.9815	8.3605	33.8803
 538	1	2	-0.048962	34.2094	2.98903	31.2284
 539	1	6	0.0776	35.4284	2.75334	32.0375
 540	1	8	-0.391129	36.0962	3.64057	32.5437
 541	1	2	0.038503	33.7596	1.77251	30.7588
 542	1	6	0.061082	34.6468	0.702998	31.2899
 543	1	7	0.459351	35.5956	1.35813	32.0931
 544	1	8	-0.403808	34.4662	-0.49332	31.1272
 545	1	2	-0.02278	33.4921	4.17446	31.0134
 546	1	2	-0.06542	32.5894	1.67425	29.9946
 547	1	2	0.157218	32.2801	4.08923	30.2991
 548	1	1	0.144625	33.83	5.11685	31.4345
 549	1	2	-0.259423	31.8429	2.853	29.7726
 550	1	3	-0.32062	31.4789	5.1987	30.1703
 551	1	1	0.165981	32.2605	0.708431	29.6187
 552	1	1	0.168674	30.9121	2.81468	29.2133
 553	1	1	0.207625	36.6783	2.34139	34.4038
 554	1	2	-0.428502	36.9533	1.316	34.1825
 555	1	2	-0.035773	37.7189	0.643206	35.1457
 556	1	1	0.142536	38.0187	1.18576	36.0385
 557	1	2	0.020215	38.0241	-0.722354	35.008
 558	1	2	-0.058677	37.6425	-1.35804	33.8081
 559	1	1	0.147375	37.8683	-2.41088	33.6515
 560	1	2	-0.40884	36.9186	-0.65972	32.8171
 561	1	1	0.20403	36.6253	-1.2018	31.9218
 562	1	2	0.301824	36.5058	0.683973	32.9994
 563	1	2	-0.079086	39.0033	-2.19652	38.2553
 564	1	2	-0.121043	38.9687	-2.42389	39.6405
 565	1	1	0.148865	38.3973	-1.77599	40.2992
 566	1	2	0.229196	39.6388	-3.55915	40.1373
 567	1	3	-0.312503	39.5307	-3.92524	41.4584
 568	1	1	0.177824	40.8427	-4.85505	37.1714
 569	1	2	-0.142744	40.3472	-4.17519	37.8629
 570	1	2	-0.093344	39.6731	-3.03901	37.3903
 571	1	1	0.162888	38.4061	-4.271	43.7638
 572	1	1	0.147794	38.9047	-3.07084	45.8512
 573	1	2	-0.172056	39.1279	-3.45982	43.7581
 574	1	2	-0.198933	39.4258	-2.77062	44.9474
 575	1	2	0.236899	39.7728	-3.13313	42.5587
 576	1	2	0.029337	40.3913	-1.73617	44.9674
 577	1	4	0.180684	40.7718	-0.993147	46.2761
 578	1	2	-0.223565	40.7118	-2.08965	42.5488
 579	1	2	-0.141841	41.0092	-1.3949	43.7393
 580	1	1	0.17153	41.232	-1.8396	41.6294
 581	1	1	0.139148	41.744	-0.596091	43.7036
 582	1	2	-0.185386	40.3136	-4.43029	39.2526
 583	1	1	0.155741	40.7858	-5.32246	39.6543
 584	1	4	-0.198622	40.2935	0.482714	46.1714
 585	1	4	-0.188008	42.3226	-0.926233	46.4156
 586	1	5	0.060726	40.8364	1.02378	45.3865
 587	1	5	0.058265	40.4574	1.01583	47.1171
 588	1	5	0.044015	39.2295	0.547982	45.9163
 589	1	5	0.049647	42.7803	-1.91258	46.2715
 590	1	5	0.045128	42.6107	-0.550914	47.4064
 591	1	5	0.061555	42.774	-0.254611	45.6757
 592	1	1	0.151962	38.2315	-0.664241	47.4078
 593	1	2	-0.211106	38.8326	-1.3911	47.9442
 594	1	2	-0.169243	38.2446	-2.06295	49.0311
 595	1	1	0.166678	37.2223	-1.84257	49.3245
 596	1	2	0.259195	38.9579	-3.0362	49.74
 597	1	2	-0.207473	40.2741	-3.33792	49.3535
 598	1	1	0.171716	40.8354	-4.10005	49.8851
 599	1	2	-0.169975	40.8598	-2.67519	48.257
 600	1	1	0.141932	41.8665	-2.9612	47.9712
 601	1	2	0.050656	40.1549	-1.68251	47.5301
 602	1	6	0.518059	39.4417	-2.55324	35.9972
 603	1	6	0.507614	38.3097	-1.16683	37.4446
 604	1	7	-0.122906	38.6038	-1.4438	36.1076
 605	1	8	-0.496938	39.8772	-3.07258	34.9839
 606	1	8	-0.484992	37.569	-0.312359	37.8997
 607	1	2	-0.048962	40.0855	-4.85012	53.7579
 608	1	6	0.0776	40.705	-4.57915	55.0778
 609	1	8	-0.391129	40.826	-3.47487	55.583
 610	1	2	0.038503	40.0966	-6.21469	53.5426
 611	1	6	0.061082	40.7457	-6.87054	54.7059
 612	1	7	0.459351	41.0626	-5.83284	55.5909
 613	1	8	-0.403808	40.9559	-8.06798	54.8167
 614	1	2	-0.02278	39.5124	-3.96533	52.8358
 615	1	2	-0.06542	39.5199	-6.78097	52.3985
 616	1	2	0.157218	38.9359	-4.5125	51.673
 617	1	1	0.144625	39.4929	-2.89569	53.0219
 618	1	2	-0.259423	38.9295	-5.90859	51.4578
 619	1	3	-0.32062	38.317	-3.68789	50.7691
 620	1	1	0.165981	39.5124	-7.86067	52.2626
 621	1	1	0.168674	38.4473	-6.30815	50.57
 622	1	1	0.207625	40.6281	-7.9045	57.2978
 623	1	2	-0.428502	41.319	-7.15639	57.6788
 624	1	2	-0.035773	41.8627	-7.33466	58.9633
 625	1	1	0.142536	41.5863	-8.20361	59.5571
 626	1	2	0.020215	42.7497	-6.38397	59.4908
 627	1	2	-0.058677	43.0984	-5.26417	58.7183
 628	1	1	0.147375	43.7777	-4.51747	59.1241
 629	1	2	-0.40884	42.5599	-5.09513	57.4314
 630	1	1	0.20403	42.8343	-4.20909	56.8648
 631	1	2	0.301824	41.6515	-6.03186	56.8876
 632	1	2	-0.079086	44.7079	-6.5499	62.5745
 633	1	2	-0.121043	45.8334	-6.47862	63.3994
 634	1	1	0.148865	46.8272	-6.52816	62.9656
 635	1	2	0.229196	45.6333	-6.28378	64.7847
 636	1	3	-0.312503	46.6961	-6.06961	65.6348
 637	1	1	0.177824	42.1845	-6.27777	64.8585
 638	1	2	-0.142744	43.1987	-6.34191	64.4677
 639	1	2	-0.093344	43.428	-6.47931	63.0905
 640	1	1	0.162888	47.1038	-3.97145	64.05
 641	1	1	0.147794	49.2483	-3.38832	62.9809
 642	1	2	-0.172056	48.0019	-4.52594	64.3064
 643	1	2	-0.198933	49.2286	-4.19732	63.7039
 644	1	2	0.236899	47.9132	-5.61879	65.1847
 645	1	2	0.029337	50.3975	-4.93481	63.9996
 646	1	4	0.180684	51.7269	-4.68168	63.2538
 647	1	2	-0.223565	49.0679	-6.32472	65.5277
 648	1	2	-0.141841	50.299	-5.98553	64.9413
 649	1	1	0.17153	48.9922	-7.15874	66.2204
 650	1	1	0.139148	51.1726	-6.57217	65.2038
 651	1	2	-0.185386	44.3247	-6.24088	65.3142
 652	1	1	0.155741	44.194	-6.09841	66.383
 653	1	4	-0.198622	51.8713	-3.20507	62.7803
 654	1	4	-0.188008	51.7024	-5.54825	61.9637