pySIMM System Object

2141 atoms
2357 bonds
3968 angles
6134 dihedrals
744 impropers

9 atom types
11 bond types
18 angle types
9 dihedral types
4 improper types

-194.717242 194.717242 xlo xhi
-194.717242 194.717242 ylo yhi
-194.717242 194.717242 zlo zhi

Masses

   1	1.008	# ha
   2	12.01	# ca
   3	16.0	# os
   4	12.01	# c3
   5	1.008	# hc
   6	12.01	# c
   7	14.01	# n
   8	16.0	# o
   9	1.008	# hn

Pair Coeffs

   1	0.015	2.59964245953351	# ha
   2	0.086	3.3996695084235347	# ca
   3	0.17	3.0000123434657784	# os
   4	0.1094	3.3996695084235347	# c3
   5	0.0157	2.649532787749369	# hc
   6	0.086	3.3996695084235347	# c
   7	0.17	3.249998523775958	# n
   8	0.21	2.959921901149463	# o
   9	0.0157	1.069078461768407	# hn

Bond Coeffs

   1	461.1	1.3984	# ca,ca
   2	427.6	1.3789	# c,n
   3	345.9	1.4906	# c,ca
   4	300.9	1.5375	# c3,c3
   5	345.8	1.086	# ca,ha
   6	384.2	1.4121	# ca,n
   7	321.0	1.5156	# c3,ca
   8	330.6	1.0969	# c3,hc
   9	637.7	1.2183	# c,o
  10	376.6	1.3696	# ca,os
  11	403.2	1.0129	# hn,n

Angle Coeffs

   1	46.34	109.8	# c3,c3,hc
   2	74.22	123.05	# n,c,o
   3	48.33	117.55	# c,n,hn
   4	63.56	112.24	# ca,c3,ca
   5	63.48	119.89	# ca,os,ca
   6	62.86	111.51	# c3,c3,c3
   7	66.62	120.02	# ca,ca,ca
   8	64.28	120.33	# c,ca,ca
   9	63.15	112.07	# c3,c3,ca
  10	39.4	107.58	# hc,c3,hc
  11	48.18	119.88	# ca,ca,ha
  12	63.53	120.77	# c3,ca,ca
  13	63.74	127.08	# c,n,c
  14	67.68	115.25	# ca,c,n
  15	63.82	123.71	# c,n,ca
  16	68.72	122.6	# ca,c,o
  17	67.87	120.19	# ca,ca,n
  18	69.58	119.2	# ca,ca,os

Dihedral Coeffs

   1	1	3.625	2	180	# X,ca,ca,X
   2	1	1.0	2	180	# X,c,ca,X
   3	1	0.0	2	0	# X,c3,ca,X
   4	1	0.15555555555555556	3	0	# X,c3,c3,X
   5	1	0.9	2	180	# X,ca,os,X
   6	1	2.5	2	180	# X,c,n,X
   7	1	0.45	2	180	# X,ca,n,X
   8	1	0.16	3	0	# hc,c3,c3,c3
   9	2	2.5	2	180	2.0	1	0	# hn,n,c,o

Improper Coeffs

   1	1.1	-1	2	# n,X,X,hn
   2	1.1	-1	2	# ca,ca,ca,c3
   3	10.5	-1	2	# c,X,X,o
   4	1.1	-1	2	# ca,X,X,ha

Atoms

   1	1	1	0.207625	-24.6411	-80.529	130.844
   2	1	2	-0.428502	-24.0288	-81.3749	131.14
   3	1	2	-0.035773	-23.103	-81.9298	130.238
   4	1	1	0.142536	-23.004	-81.5072	129.24
   5	1	2	0.020215	-22.311	-83.0317	130.619
   6	1	2	-0.058677	-22.4621	-83.5684	131.914
   7	1	1	0.147375	-21.8573	-84.4176	132.225
   8	1	2	-0.40884	-23.3917	-83.0097	132.81
   9	1	1	0.20403	-23.5063	-83.4228	133.807
  10	1	2	0.301824	-24.1754	-81.9132	132.425
  11	1	2	-0.079086	-20.4355	-84.5013	127.815
  12	1	2	-0.121043	-20.1749	-84.9988	126.531
  13	1	1	0.148865	-20.9334	-84.9768	125.754
  14	1	2	0.229196	-18.8969	-85.5321	126.28
  15	1	3	-0.312503	-18.6119	-86.028	125.035
  16	1	1	0.177824	-17.4582	-85.088	129.383
  17	1	2	-0.142744	-18.1984	-85.064	128.585
  18	1	2	-0.093344	-19.4762	-84.5316	128.81
  19	1	1	0.162888	-18.1838	-86.9069	122.639
  20	1	1	0.147794	-16.8833	-85.7984	120.862
  21	1	2	-0.172056	-17.7111	-85.9486	122.833
  22	1	2	-0.198933	-16.9693	-85.3064	121.826
  23	1	2	0.236899	-17.858	-85.3617	124.096
  24	1	2	0.029337	-16.356	-84.0551	122.068
  25	1	4	0.180684	-15.5371	-83.3001	120.994
  26	1	2	-0.223565	-17.2485	-84.121	124.354
  27	1	2	-0.141841	-16.498	-83.4827	123.352
  28	1	1	0.17153	-17.3534	-83.6463	125.325
  29	1	1	0.139148	-16.034	-82.5232	123.569
  30	1	2	-0.185386	-17.9167	-85.5718	127.298
  31	1	1	0.155741	-16.9431	-86.0014	127.081
  32	1	4	-0.198622	-15.6586	-83.931	119.581
  33	1	4	-0.188008	-14.0453	-83.4008	121.415
  34	1	5	0.060726	-15.1072	-83.3354	118.842
  35	1	5	0.058265	-16.7061	-83.9708	119.256
  36	1	5	0.044015	-15.2457	-84.9475	119.555
  37	1	5	0.049647	-13.8496	-82.8212	122.326
  38	1	5	0.045128	-13.3715	-83.0416	120.628
  39	1	5	0.061555	-13.7739	-84.4445	121.62
  40	1	1	0.151962	-14.0785	-80.9545	120.444
  41	1	2	-0.211106	-15.1401	-80.7739	120.579
  42	1	2	-0.169243	-15.6162	-79.4581	120.435
  43	1	1	0.166678	-14.9323	-78.6468	120.205
  44	1	2	0.259195	-16.9813	-79.179	120.571
  45	1	2	-0.207473	-17.8731	-80.2168	120.881
  46	1	1	0.171716	-18.9291	-79.9986	121.01
  47	1	2	-0.169975	-17.4021	-81.536	121.007
  48	1	1	0.141932	-18.1169	-82.3292	121.215
  49	1	2	0.050656	-16.0261	-81.8366	120.874
  50	1	6	0.518059	-20.0731	-83.9478	130.041
  51	1	6	0.507614	-21.6708	-83.8987	128.38
  52	1	7	-0.122906	-21.3777	-83.6033	129.706
  53	1	8	-0.496938	-19.5135	-83.8201	131.116
  54	1	8	-0.484992	-22.7156	-83.7125	127.781
  55	1	2	-0.048962	-20.0536	-77.8184	117.825
  56	1	6	0.0776	-20.8884	-78.4883	116.798
  57	1	8	-0.391129	-20.8184	-79.6671	116.489
  58	1	2	0.038503	-20.4573	-76.5014	117.924
  59	1	6	0.061082	-21.5531	-76.2682	116.95
  60	1	7	0.459351	-21.7616	-77.5022	116.324
  61	1	8	-0.403808	-22.1216	-75.2044	116.76
  62	1	2	-0.02278	-19.0263	-78.3358	118.623
  63	1	2	-0.06542	-19.8662	-75.6228	118.839
  64	1	2	0.157218	-18.4273	-77.4748	119.573
  65	1	1	0.144625	-18.7163	-79.369	118.504
  66	1	2	-0.259423	-18.8437	-76.1286	119.67
  67	1	3	-0.32062	-17.4126	-77.884	120.411
  68	1	1	0.165981	-20.1981	-74.5886	118.903
  69	1	1	0.168674	-18.364	-75.4794	120.397
  70	1	1	0.207625	-21.5832	-79.1047	114.137
  71	1	2	-0.428502	-22.5433	-78.6042	114.239
  72	1	2	-0.035773	-23.5441	-78.8576	113.285
  73	1	1	0.142536	-23.3379	-79.5432	112.465
  74	1	2	0.020215	-24.8032	-78.2362	113.384
  75	1	2	-0.058677	-25.0393	-77.3606	114.46
  76	1	1	0.147375	-26.0033	-76.8654	114.559
  77	1	2	-0.40884	-24.0419	-77.125	115.422
  78	1	1	0.20403	-24.2602	-76.4485	116.245
  79	1	2	0.301824	-22.7731	-77.7384	115.331
  80	1	2	-0.079086	-26.9218	-78.8802	110.44
  81	1	2	-0.121043	-27.2726	-79.0808	109.098
  82	1	1	0.148865	-26.52	-79.018	108.318
  83	1	2	0.229196	-28.6246	-79.3624	108.803
  84	1	3	-0.312503	-29.0409	-79.5763	107.509
  85	1	1	0.177824	-29.9407	-79.248	111.99
  86	1	2	-0.142744	-29.2119	-79.2063	111.182
  87	1	2	-0.093344	-27.8607	-78.9451	111.45
  88	1	1	0.162888	-27.6575	-81.835	107.618
  89	1	1	0.147794	-26.099	-82.6529	105.889
  90	1	2	-0.172056	-27.5099	-81.2603	106.708
  91	1	2	-0.198933	-26.622	-81.7175	105.718
  92	1	2	0.236899	-28.2081	-80.0565	106.53
  93	1	2	0.029337	-26.4177	-80.972	104.532
  94	1	4	0.180684	-25.4483	-81.4219	103.416
  95	1	2	-0.223565	-28.0384	-79.3215	105.352
  96	1	2	-0.141841	-27.1504	-79.7757	104.361
  97	1	1	0.17153	-28.5871	-78.3939	105.22
  98	1	1	0.139148	-27.0236	-79.188	103.456
  99	1	2	-0.185386	-29.5858	-79.4126	109.836
 100	1	1	0.155741	-30.622	-79.6187	109.584
 101	1	4	-0.198622	-26.3138	-81.9451	102.238
 102	1	4	-0.188008	-24.5227	-82.5949	103.843
 103	1	5	0.060726	-26.9828	-82.7464	102.578
 104	1	5	0.058265	-25.6907	-82.3558	101.433
 105	1	5	0.044015	-26.9412	-81.1491	101.818
 106	1	5	0.049647	-25.0953	-83.5101	104.039
 107	1	5	0.045128	-23.9513	-82.347	104.746
 108	1	5	0.061555	-23.8008	-82.8241	103.048
 109	1	1	0.151962	-24.9126	-80.2683	100.878
 110	1	2	-0.211106	-24.3812	-79.7886	101.694
 111	1	2	-0.169243	-23.5219	-78.7171	101.387
 112	1	1	0.166678	-23.4039	-78.3976	100.356
 113	1	2	0.259195	-22.7992	-78.0719	102.405
 114	1	2	-0.207473	-22.9393	-78.5061	103.729
 115	1	1	0.171716	-22.3724	-78.0106	104.511
 116	1	2	-0.169975	-23.8022	-79.5733	104.038
 117	1	1	0.141932	-23.8977	-79.8936	105.073
 118	1	2	0.050656	-24.5353	-80.235	103.028
 119	1	6	0.518059	-27.1629	-78.6983	112.741
 120	1	6	0.507614	-25.5998	-78.5851	111.051
 121	1	7	-0.122906	-25.824	-78.4951	112.421
 122	1	8	-0.496938	-27.6825	-78.6958	113.843
 123	1	8	-0.484992	-24.5463	-78.468	110.449
 124	1	2	-0.048962	-21.2837	-75.1889	99.0386
 125	1	6	0.0776	-20.4338	-74.8939	97.8562
 126	1	8	-0.391129	-19.3473	-75.3937	97.6144
 127	1	2	0.038503	-22.438	-74.4333	98.9437
 128	1	6	0.061082	-22.3714	-73.6213	97.7035
 129	1	7	0.459351	-21.1524	-73.9569	97.1077
 130	1	8	-0.403808	-23.2376	-72.8609	97.3009
 131	1	2	-0.02278	-21.0722	-76.0701	100.108
 132	1	2	-0.06542	-23.4513	-74.5136	99.9065
 133	1	2	0.157218	-22.0857	-76.178	101.081
 134	1	1	0.144625	-20.165	-76.663	100.176
 135	1	2	-0.259423	-23.2645	-75.4036	100.985
 136	1	3	-0.32062	-21.9232	-77.0468	102.131
 137	1	1	0.165981	-24.3508	-73.9086	99.8116
 138	1	1	0.168674	-24.0275	-75.4944	101.754
 139	1	1	0.207625	-21.3132	-71.3877	96.283
 140	1	2	-0.428502	-20.8718	-72.0566	95.5476
 141	1	2	-0.035773	-20.5052	-71.5423	94.2923
 142	1	1	0.142536	-20.6625	-70.4861	94.0835
 143	1	2	0.020215	-19.9598	-72.3839	93.3043
 144	1	2	-0.058677	-19.7774	-73.7475	93.6039
 145	1	1	0.147375	-19.3597	-74.4179	92.8553
 146	1	2	-0.40884	-20.154	-74.2598	94.859
 147	1	1	0.20403	-20.013	-75.3192	95.0606
 148	1	2	0.301824	-20.716	-73.4259	95.8499
 149	1	2	-0.079086	-18.9694	-70.4576	90.3236
 150	1	2	-0.121043	-18.516	-69.3746	89.5576
 151	1	1	0.148865	-18.1139	-68.4819	90.028
 152	1	2	0.229196	-18.6185	-69.4718	88.1573
 153	1	3	-0.312503	-18.223	-68.415	87.3787
 154	1	1	0.177824	-20.0661	-72.591	87.8926
 155	1	2	-0.142744	-19.6227	-71.7026	88.3402
 156	1	2	-0.093344	-19.5124	-71.5833	89.7337
 157	1	1	0.162888	-17.6254	-66.5944	85.6341
 158	1	1	0.147794	-15.4826	-66.3735	84.3963
 159	1	2	-0.172056	-16.8233	-67.3069	85.8027
 160	1	2	-0.198933	-15.6067	-67.1859	85.1086
 161	1	2	0.236899	-17.0185	-68.3488	86.718
 162	1	2	0.029337	-14.5513	-68.0983	85.3291
 163	1	4	0.180684	-13.2372	-67.9434	84.528
 164	1	2	-0.223565	-15.9844	-69.2744	86.9399
 165	1	2	-0.141841	-14.7643	-69.1517	86.2498
 166	1	1	0.17153	-16.1196	-70.0874	87.6465
 167	1	1	0.139148	-13.9928	-69.8901	86.4417
 168	1	2	-0.185386	-19.1638	-70.6257	87.5509
 169	1	1	0.155741	-19.2456	-70.6674	86.4684
 170	1	4	-0.198622	-13.5188	-68.4897	83.1017
 171	1	4	-0.188008	-12.0655	-68.7766	85.1138
 172	1	5	0.060726	-13.9312	-69.5057	83.1527
 173	1	5	0.058265	-12.6043	-68.5399	82.4977
 174	1	5	0.044015	-14.2493	-67.8627	82.5746
 175	1	5	0.049647	-12.2528	-69.8545	85.0325
 176	1	5	0.045128	-11.8951	-68.5319	86.17
 177	1	5	0.061555	-11.1345	-68.5663	84.5715
 178	1	1	0.151962	-13.109	-66.213	86.6606
 179	1	2	-0.211106	-12.7654	-65.7399	85.7435
 180	1	2	-0.169243	-12.3157	-64.4066	85.7868
 181	1	1	0.166678	-12.3167	-63.8559	86.7228
 182	1	2	0.259195	-11.8524	-63.7747	84.6251
 183	1	2	-0.207473	-11.8551	-64.4849	83.4113
 184	1	1	0.171716	-11.5042	-64.0115	82.5001
 185	1	2	-0.169975	-12.307	-65.8157	83.3656
 186	1	1	0.141932	-12.2789	-66.331	82.4113
 187	1	2	0.050656	-12.7748	-66.4661	84.5311
 188	1	6	0.518059	-19.9458	-72.5064	90.8181
 189	1	6	0.507614	-19.0281	-70.6337	91.7985
 190	1	7	-0.122906	-19.6357	-71.8662	92.0138
 191	1	8	-0.496938	-20.4901	-73.5858	90.6613
 192	1	8	-0.484992	-18.6341	-69.8329	92.6286
 193	1	2	-0.048962	-10.8246	-60.303	81.8194
 194	1	6	0.0776	-11.3297	-59.3557	80.7968
 195	1	8	-0.391129	-12.4481	-58.8677	80.7754
 196	1	2	0.038503	-9.51901	-60.6304	81.5039
 197	1	6	0.061082	-9.13796	-59.908	80.2618
 198	1	7	0.459351	-10.2767	-59.186	79.8911
 199	1	8	-0.403808	-8.06971	-60.004	79.6787
 200	1	2	-0.02278	-11.4856	-60.8803	82.9108
 201	1	2	-0.06542	-8.78984	-61.5486	82.2706
 202	1	2	0.157218	-10.7777	-61.8216	83.6826
 203	1	1	0.144625	-12.5202	-60.6364	83.133
 204	1	2	-0.259423	-9.43777	-62.1479	83.3732
 205	1	3	-0.32062	-11.4162	-62.4697	84.7102
 206	1	1	0.165981	-7.76575	-61.7999	82.0019
 207	1	1	0.168674	-8.91437	-62.8795	83.9828
 208	1	1	0.207625	-8.39192	-57.5668	78.7751
 209	1	2	-0.428502	-9.32305	-57.6119	78.2145
 210	1	2	-0.035773	-9.44058	-56.8709	77.0221
 211	1	1	0.142536	-8.6066	-56.2574	76.6869
 212	1	2	0.020215	-10.6293	-56.9135	76.268
 213	1	2	-0.058677	-11.6916	-57.7124	76.7306
 214	1	1	0.147375	-12.6257	-57.7566	76.1747
 215	1	2	-0.40884	-11.5646	-58.4601	77.9117
 216	1	1	0.20403	-12.4056	-59.0678	78.2374
 217	1	2	0.301824	-10.3839	-58.419	78.6828
 218	1	2	-0.079086	-11.5218	-55.4574	73.0098
 219	1	2	-0.121043	-12.1879	-55.3361	71.7841
 220	1	1	0.148865	-12.7242	-56.1763	71.3523
 221	1	2	0.229196	-12.1817	-54.0825	71.1477
 222	1	3	-0.312503	-12.9178	-53.9471	69.9957
 223	1	1	0.177824	-10.3736	-52.2776	73.4707
 224	1	2	-0.142744	-10.8576	-53.122	72.982
 225	1	2	-0.093344	-10.8838	-54.3828	73.5977
 226	1	1	0.162888	-10.4545	-53.5167	69.0318
 227	1	1	0.147794	-9.93033	-52.1559	67.0245
 228	1	2	-0.172056	-11.2546	-53.0204	68.4906
 229	1	2	-0.198933	-10.9644	-52.2559	67.3462
 230	1	2	0.236899	-12.5831	-53.1631	68.9199
 231	1	2	0.029337	-11.9936	-51.6269	66.6089
 232	1	4	0.180684	-11.6233	-50.8062	65.3523
 233	1	2	-0.223565	-13.6143	-52.5536	68.1958
 234	1	2	-0.141841	-13.3269	-51.7889	67.0519
 235	1	1	0.17153	-14.6409	-52.687	68.5238
 236	1	1	0.139148	-14.1556	-51.3372	66.5163
 237	1	2	-0.185386	-11.5192	-52.9801	71.7411
 238	1	1	0.155741	-11.5544	-52.0085	71.2565
 239	1	4	-0.198622	-12.8182	-50.01	64.7613
 240	1	4	-0.188008	-11.1706	-51.8151	64.2611
 241	1	5	0.060726	-13.6085	-50.6795	64.3987
 242	1	5	0.058265	-12.4907	-49.3984	63.9107
 243	1	5	0.044015	-13.2528	-49.3314	65.5062
 244	1	5	0.049647	-11.9406	-52.581	64.1018
 245	1	5	0.045128	-10.2469	-52.3311	64.552
 246	1	5	0.061555	-10.999	-51.3188	63.2977
 247	1	1	0.151962	-11.5812	-49.1263	67.5117
 248	1	2	-0.211106	-10.6965	-48.9975	66.8924
 249	1	2	-0.169243	-9.72426	-48.058	67.2768
 250	1	1	0.166678	-9.85145	-47.4692	68.1803
 251	1	2	0.259195	-8.5804	-47.8681	66.4932
 252	1	2	-0.207473	-8.40168	-48.6313	65.3283
 253	1	1	0.171716	-7.50714	-48.4936	64.7284
 254	1	2	-0.169975	-9.37148	-49.575	64.9436
 255	1	1	0.141932	-9.20359	-50.1429	64.034
 256	1	2	0.050656	-10.5317	-49.7792	65.7268
 257	1	6	0.518059	-10.3838	-54.8222	74.9312
 258	1	6	0.507614	-11.437	-56.614	73.936
 259	1	7	-0.122906	-10.7807	-56.149	75.0709
 260	1	8	-0.496938	-9.80946	-54.121	75.7461
 261	1	8	-0.484992	-11.908	-57.7203	73.7349
 262	1	2	-0.048962	-4.95409	-44.9159	65.4881
 263	1	6	0.0776	-3.56934	-44.3865	65.5548
 264	1	8	-0.391129	-2.7442	-44.6501	66.4142
 265	1	2	0.038503	-5.57628	-44.374	64.379
 266	1	6	0.061082	-4.61609	-43.4771	63.6902
 267	1	7	0.459351	-3.44844	-43.5314	64.4564
 268	1	8	-0.403808	-4.83605	-42.8423	62.6707
 269	1	2	-0.02278	-5.62612	-45.7895	66.351
 270	1	2	-0.06542	-6.90827	-44.6692	64.0663
 271	1	2	0.157218	-6.96343	-46.113	66.0511
 272	1	1	0.144625	-5.13286	-46.2019	67.2262
 273	1	2	-0.259423	-7.60503	-45.5489	64.9216
 274	1	3	-0.32062	-7.64124	-46.9524	66.9011
 275	1	1	0.165981	-7.38266	-44.2183	63.197
 276	1	1	0.168674	-8.64642	-45.7825	64.7184
 277	1	1	0.207625	-0.877474	-44.3881	64.5613
 278	1	2	-0.428502	-0.98406	-43.3506	64.2524
 279	1	2	-0.035773	0.169944	-42.6026	63.9564
 280	1	1	0.142536	1.14829	-43.0741	64.0266
 281	1	2	0.020215	0.0651648	-41.2565	63.5582
 282	1	2	-0.058677	-1.21205	-40.6729	63.4681
 283	1	1	0.147375	-1.31805	-39.6365	63.1542
 284	1	2	-0.40884	-2.36104	-41.4215	63.7714
 285	1	1	0.20403	-3.33676	-40.9489	63.6835
 286	1	2	0.301824	-2.26942	-42.7739	64.1621
 287	1	2	-0.079086	2.67808	-38.7538	62.8829
 288	1	2	-0.121043	3.29523	-37.4962	62.8142
 289	1	1	0.148865	2.88708	-36.6391	63.3424
 290	1	2	0.229196	4.42866	-37.3663	61.9897
 291	1	3	-0.312503	4.99444	-36.129	61.8103
 292	1	1	0.177824	4.66588	-40.5987	60.807
 293	1	2	-0.142744	4.30538	-39.7378	61.3682
 294	1	2	-0.093344	3.16521	-39.8381	62.1772
 295	1	1	0.162888	7.06925	-34.8521	60.8344
 296	1	1	0.147794	7.25148	-33.9012	58.5502
 297	1	2	-0.172056	6.23161	-34.9212	60.1466
 298	1	2	-0.198933	6.32887	-34.393	58.8456
 299	1	2	0.236899	5.05858	-35.5636	60.5597
 300	1	2	0.029337	5.25243	-34.4937	57.9315
 301	1	4	0.180684	5.40423	-33.9408	56.4881
 302	1	2	-0.223565	3.96633	-35.6384	59.6827
 303	1	2	-0.141841	4.05905	-35.1055	58.386
 304	1	1	0.17153	3.04622	-36.1158	60.0062
 305	1	1	0.139148	3.18878	-35.1887	57.7436
 306	1	2	-0.185386	4.93594	-38.4791	61.2793
 307	1	1	0.155741	5.80517	-38.3512	60.6404
 308	1	4	-0.198622	4.25565	-34.4268	55.5581
 309	1	4	-0.188008	6.72272	-34.5097	55.8881
 310	1	5	0.060726	4.16498	-35.5205	55.58
 311	1	5	0.058265	4.43073	-34.1365	54.5151
 312	1	5	0.044015	3.29411	-33.9892	55.855
 313	1	5	0.049647	7.6052	-34.046	56.345
 314	1	5	0.045128	6.79078	-34.3365	54.8074
 315	1	5	0.061555	6.78669	-35.5935	56.0496
 316	1	1	0.151962	4.90632	-32.0645	58.5452
 317	1	2	-0.211106	5.1569	-31.6038	57.5935
 318	1	2	-0.169243	5.20035	-30.1986	57.5244
 319	1	1	0.166678	4.99685	-29.6002	58.4074
 320	1	2	0.259195	5.495	-29.5498	56.3179
 321	1	2	-0.207473	5.74151	-30.32	55.1685
 322	1	1	0.171716	5.95413	-29.8395	54.2196
 323	1	2	-0.169975	5.71504	-31.7241	55.2399
 324	1	1	0.141932	5.91038	-32.2936	54.336
 325	1	2	0.050656	5.43284	-32.3937	56.4527
 326	1	6	0.518059	2.24166	-40.9836	62.3945
 327	1	6	0.507614	1.43059	-39.1757	63.5727
 328	1	7	-0.122906	1.22474	-40.5029	63.2109
 329	1	8	-0.496938	2.34239	-42.0887	61.8899
 330	1	8	-0.484992	0.715446	-38.4617	64.2541
 331	1	2	-0.048962	6.77248	-26.43	53.3268
 332	1	6	0.0776	7.86835	-26.0794	52.3869
 333	1	8	-0.391129	9.02388	-26.464	52.462
 334	1	2	0.038503	5.61275	-25.8164	52.8891
 335	1	6	0.061082	5.91928	-25.0466	51.6578
 336	1	7	0.459351	7.28062	-25.2556	51.4221
 337	1	8	-0.403808	5.12535	-24.3758	51.0171
 338	1	2	-0.02278	6.78869	-27.2288	54.4786
 339	1	2	-0.06542	4.39989	-25.9635	53.5727
 340	1	2	0.157218	5.57289	-27.404	55.1726
 341	1	1	0.144625	7.70478	-27.701	54.8211
 342	1	2	-0.259423	4.39135	-26.7715	54.7293
 343	1	3	-0.32062	5.52046	-28.1725	56.3082
 344	1	1	0.165981	3.50098	-25.4661	53.2141
 345	1	1	0.168674	3.47194	-26.9112	55.2909
 346	1	1	0.207625	6.42268	-25.0952	48.8637
 347	1	2	-0.428502	7.41253	-24.6726	49.0208
 348	1	2	-0.035773	8.08211	-24.0854	47.9336
 349	1	1	0.142536	7.60158	-24.0706	46.9575
 350	1	2	0.020215	9.35532	-23.5089	48.1026
 351	1	2	-0.058677	9.94586	-23.5396	49.3806
 352	1	1	0.147375	10.9293	-23.1004	49.5362
 353	1	2	-0.40884	9.2676	-24.1197	50.4683
 354	1	1	0.20403	9.74402	-24.1247	51.4461
 355	1	2	0.301824	7.98665	-24.6909	50.3098
 356	1	2	-0.079086	11.1602	-21.358	45.7144
 357	1	2	-0.121043	11.8689	-20.2526	45.2222
 358	1	1	0.148865	12.1804	-19.4465	45.8805
 359	1	2	0.229196	12.1531	-20.211	43.844
 360	1	3	-0.312503	12.8503	-19.1388	43.3439
 361	1	1	0.177824	10.719	-23.1957	42.8706
 362	1	2	-0.142744	11.0409	-22.375	43.5101
 363	1	2	-0.093344	10.7625	-22.3883	44.8841
 364	1	1	0.162888	14.5305	-18.7489	41.3714
 365	1	1	0.147794	13.9959	-17.6794	39.1916
 366	1	2	-0.172056	13.5254	-18.3895	41.1713
 367	1	2	-0.198933	13.2154	-17.7817	39.9418
 368	1	2	0.236899	12.5348	-18.544	42.1482
 369	1	2	0.029337	11.9149	-17.2945	39.678
 370	1	4	0.180684	11.6188	-16.6288	38.3138
 371	1	2	-0.223565	11.234	-18.083	41.8994
 372	1	2	-0.141841	10.9247	-17.4638	40.6747
 373	1	1	0.17153	10.4696	-18.199	42.6621
 374	1	1	0.139148	9.90743	-17.1204	40.5167
 375	1	2	-0.185386	11.7446	-21.2664	42.9935
 376	1	1	0.155741	11.9824	-21.2244	41.9343
 377	1	4	-0.198622	10.2896	-15.8251	38.3026
 378	1	4	-0.188008	11.468	-17.7726	37.2751
 379	1	5	0.060726	10.1693	-15.2934	37.3496
 380	1	5	0.058265	10.2722	-15.0749	39.1034
 381	1	5	0.044015	9.41738	-16.4798	38.4227
 382	1	5	0.049647	12.4111	-18.3188	37.147
 383	1	5	0.045128	11.1516	-17.391	36.296
 384	1	5	0.061555	10.7098	-18.4946	37.6046
 385	1	1	0.151962	12.6972	-14.6859	39.9157
 386	1	2	-0.211106	13.1609	-14.6895	38.9317
 387	1	2	-0.169243	14.1632	-13.7458	38.6431
 388	1	1	0.166678	14.469	-13.0205	39.3914
 389	1	2	0.259195	14.7742	-13.7253	37.3831
 390	1	2	-0.207473	14.3706	-14.6485	36.4047
 391	1	1	0.171716	14.8214	-14.621	35.4175
 392	1	2	-0.169975	13.3669	-15.5922	36.6906
 393	1	1	0.141932	13.0714	-16.2789	35.9041
 394	1	2	0.050656	12.7481	-15.6313	37.9626
 395	1	6	0.518059	10.033	-23.3892	45.7085
 396	1	6	0.507614	10.687	-21.6651	47.0905
 397	1	7	-0.122906	10.0182	-22.8821	47.0039
 398	1	8	-0.496938	9.53642	-24.4243	45.2988
 399	1	8	-0.484992	10.8379	-20.9579	48.0717
 400	1	2	-0.048962	17.9414	-12.0701	34.2969
 401	1	6	0.0776	18.3665	-11.1984	33.1734
 402	1	8	-0.391129	17.7888	-10.1879	32.8069
 403	1	2	0.038503	18.8273	-13.1261	34.3893
 404	1	6	0.061082	19.8657	-12.9632	33.3405
 405	1	7	0.459351	19.533	-11.7824	32.6644
 406	1	8	-0.403808	20.8257	-13.6995	33.1762
 407	1	2	-0.02278	16.8809	-11.9222	35.1999
 408	1	2	-0.06542	18.6975	-14.1086	35.3795
 409	1	2	0.157218	16.7274	-12.9004	36.2016
 410	1	1	0.144625	16.2046	-11.0749	35.1365
 411	1	2	-0.259423	17.6267	-13.988	36.292
 412	1	3	-0.32062	15.7184	-12.7604	37.1216
 413	1	1	0.165981	19.416	-14.9234	35.4434
 414	1	1	0.168674	17.5039	-14.7193	37.0864
 415	1	1	0.207625	19.9875	-9.14221	32.2163
 416	1	2	-0.428502	20.5069	-9.80178	31.5251
 417	1	2	-0.035773	21.3522	-9.232	30.5569
 418	1	1	0.142536	21.4774	-8.15215	30.5134
 419	1	2	0.020215	22.0698	-10.0534	29.6733
 420	1	2	-0.058677	21.9008	-11.446	29.7392
 421	1	1	0.147375	22.4677	-12.0913	29.0716
 422	1	2	-0.40884	21.0325	-12.0097	30.6919
 423	1	1	0.20403	20.941	-13.0923	30.7391
 424	1	2	0.301824	20.3375	-11.2024	31.6221
 425	1	2	-0.079086	24.018	-8.21374	27.1582
 426	1	2	-0.121043	24.3117	-7.34226	26.0979
 427	1	1	0.148865	23.5183	-6.88132	25.5163
 428	1	2	0.229196	25.6653	-7.06559	25.8164
 429	1	3	-0.312503	25.9507	-6.18771	24.7918
 430	1	1	0.177824	27.1501	-8.97149	28.2864
 431	1	2	-0.142744	26.3753	-8.5258	27.664
 432	1	2	-0.093344	25.023	-8.7961	27.9084
 433	1	1	0.162888	27.4355	-8.16201	23.7979
 434	1	1	0.147794	29.6703	-7.91643	22.7968
 435	1	2	-0.172056	27.8806	-7.17507	23.7107
 436	1	2	-0.198933	29.1561	-7.02323	23.1364
 437	1	2	0.236899	27.1813	-6.05705	24.1909
 438	1	2	0.029337	29.7511	-5.74347	23.016
 439	1	4	0.180684	31.173	-5.52659	22.4367
 440	1	2	-0.223565	27.7398	-4.78135	24.0471
 441	1	2	-0.141841	29.0119	-4.62587	23.4663
 442	1	1	0.17153	27.1864	-3.91721	24.4027
 443	1	1	0.139148	29.4308	-3.62695	23.3715
 444	1	2	-0.185386	26.6893	-7.64204	26.6107
 445	1	1	0.155741	27.7294	-7.39378	26.4228
 446	1	4	-0.198622	31.8623	-6.85244	22.0167
 447	1	4	-0.188008	32.0363	-4.91345	23.5767
 448	1	5	0.060726	31.2968	-7.35536	21.2219
 449	1	5	0.058265	31.9607	-7.53963	22.8667
 450	1	5	0.044015	32.8711	-6.66263	21.6281
 451	1	5	0.049647	31.9187	-5.49144	24.5025
 452	1	5	0.045128	31.7426	-3.878	23.7892
 453	1	5	0.061555	33.1051	-4.91665	23.3316
 454	1	1	0.151962	33.1717	-3.86553	21.4003
 455	1	2	-0.211106	32.2675	-3.85534	20.8005
 456	1	2	-0.169243	32.2535	-3.07624	19.629
 457	1	1	0.166678	33.1243	-2.4872	19.3569
 458	1	2	0.259195	31.1162	-3.05568	18.8065
 459	1	2	-0.207473	29.9919	-3.80857	19.1687
 460	1	1	0.171716	29.1137	-3.78782	18.5303
 461	1	2	-0.169975	30.0061	-4.594	20.3369
 462	1	1	0.141932	29.1277	-5.18847	20.5761
 463	1	2	0.050656	31.1396	-4.61998	21.1824
 464	1	6	0.518059	24.3901	-9.6351	28.9597
 465	1	6	0.507614	22.7102	-8.65229	27.723
 466	1	7	-0.122906	23.0229	-9.48333	28.7895
 467	1	8	-0.496938	24.9705	-10.2849	29.8113
 468	1	8	-0.484992	21.6047	-8.30083	27.3511
 469	1	2	-0.048962	33.484	-0.55807	15.5211
 470	1	6	0.0776	33.977	0.685733	14.877
 471	1	8	-0.391129	33.4996	1.7991	15.0236
 472	1	2	0.038503	34.2967	-1.60399	15.1265
 473	1	6	0.061082	35.3377	-1.07353	14.2089
 474	1	7	0.459351	35.0771	0.296693	14.1051
 475	1	8	-0.403808	36.2077	-1.73168	13.6606
 476	1	2	-0.02278	32.3923	-0.759714	16.3762
 477	1	2	-0.06542	34.0693	-2.91439	15.5657
 478	1	2	0.157218	32.1493	-2.0675	16.8409
 479	1	1	0.144625	31.7519	0.0662649	16.671
 480	1	2	-0.259423	32.9791	-3.13965	16.4345
 481	1	3	-0.32062	31.07	-2.29181	17.6629
 482	1	1	0.165981	34.7133	-3.72567	15.2321
 483	1	1	0.168674	32.7634	-4.14669	16.7806
 484	1	1	0.207625	37.77	0.329812	13.7771
 485	1	2	-0.428502	37.2496	1.1019	13.2148
 486	1	2	-0.035773	37.999	1.97765	12.4084
 487	1	1	0.142536	39.0814	1.87251	12.3685
 488	1	2	0.020215	37.3623	2.98572	11.6596
 489	1	2	-0.058677	35.9605	3.09312	11.7304
 490	1	1	0.147375	35.4445	3.86505	11.1628
 491	1	2	-0.40884	35.2144	2.2085	12.5304
 492	1	1	0.20403	34.1329	2.31851	12.5675
 493	1	2	0.301824	35.8429	1.19782	13.2905
 494	1	2	-0.079086	38.8255	5.23008	9.12106
 495	1	2	-0.121043	38.9677	5.93771	7.91765
 496	1	1	0.148865	38.233	5.845	7.12275
 497	1	2	0.229196	40.0899	6.77676	7.76883
 498	1	3	-0.312503	40.2459	7.4647	6.58702
 499	1	1	0.177824	41.6216	6.21771	10.812
 500	1	2	-0.142744	40.8916	6.15389	10.0064
 501	1	2	-0.093344	39.7568	5.34054	10.1354
 502	1	1	0.162888	39.9204	9.48073	8.32338
 503	1	1	0.147794	40.824	11.7607	8.0533
 504	1	2	-0.172056	40.5216	9.71984	7.4514
 505	1	2	-0.198933	41.0389	11.0183	7.29045
 506	1	2	0.236899	40.7615	8.73692	6.47761
 507	1	2	0.029337	41.8024	11.3662	6.15141
 508	1	4	0.180684	42.3256	12.8128	5.9775
 509	1	2	-0.223565	41.4977	9.07059	5.3341
 510	1	2	-0.141841	42.0144	10.3693	5.16948
 511	1	1	0.17153	41.6595	8.31514	4.57102
 512	1	1	0.139148	42.5703	10.5886	4.26221
 513	1	2	-0.185386	41.0537	6.87181	8.80207
 514	1	1	0.155741	41.9305	7.49771	8.66226
 515	1	4	-0.198622	43.0199	13.2962	7.28634
 516	1	4	-0.188008	41.1006	13.7482	5.77175
 517	1	5	0.060726	42.3006	13.4615	8.09729
 518	1	5	0.058265	43.5435	14.2468	7.12085
 519	1	5	0.044015	43.7482	12.5626	7.65222
 520	1	5	0.049647	40.466	13.3996	4.94797
 521	1	5	0.045128	41.4198	14.7765	5.55757
 522	1	5	0.061555	40.466	13.7785	6.66626
 523	1	1	0.151962	41.9087	13.6425	3.30402
 524	1	2	-0.211106	42.9389	13.37	3.50899
 525	1	2	-0.169243	43.8676	13.456	2.45329
 526	1	1	0.166678	43.5488	13.7828	1.46783
 527	1	2	0.259195	45.2132	13.1195	2.66438
 528	1	2	-0.207473	45.6095	12.636	3.91644
 529	1	1	0.171716	46.6431	12.338	4.06407
 530	1	2	-0.169975	44.6807	12.5338	4.96828
 531	1	1	0.141932	45.0222	12.1393	5.92035
 532	1	2	0.050656	43.3319	12.9263	4.79685
 533	1	6	0.518059	39.315	4.47687	11.2638
 534	1	6	0.507614	37.7642	4.2876	9.57066
 535	1	7	-0.122906	38.1243	3.88647	10.8537
 536	1	8	-0.496938	39.895	4.34179	12.3273
 537	1	8	-0.484992	36.7828	3.95752	8.92766
 538	1	2	-0.048962	47.7702	15.2436	-0.897581
 539	1	6	0.0776	48.773	15.3851	-1.98633
 540	1	8	-0.391129	49.4886	14.4996	-2.4247
 541	1	2	0.038503	47.1918	16.4794	-0.677644
 542	1	6	0.061082	47.7817	17.4548	-1.63069
 543	1	7	0.459351	48.7229	16.729	-2.3625
 544	1	8	-0.403808	47.4993	18.6393	-1.716
 545	1	2	-0.02278	47.4138	14.1237	-0.133903
 546	1	2	-0.06542	46.2465	16.674	0.33643
 547	1	2	0.157218	46.4544	14.2862	0.887644
 548	1	1	0.144625	47.8778	13.1582	-0.31243
 549	1	2	-0.259423	45.8875	15.5634	1.13164
 550	1	3	-0.32062	46.1439	13.1804	1.65239
 551	1	1	0.165981	45.8246	17.662	0.509728
 552	1	1	0.168674	45.1822	15.7059	1.94421
 553	1	1	0.207625	51.4147	16.5603	-2.51736
 554	1	2	-0.428502	50.9689	17.1551	-3.31112
 555	1	2	-0.035773	51.8011	17.7514	-4.27747
 556	1	1	0.142536	52.8797	17.6231	-4.22061
 557	1	2	0.020215	51.2422	18.5101	-5.31999
 558	1	2	-0.058677	49.8473	18.6652	-5.38847
 559	1	1	0.147375	49.4085	19.2502	-6.19379
 560	1	2	-0.40884	49.0193	18.0748	-4.41622
 561	1	1	0.20403	47.9435	18.2241	-4.4701
 562	1	2	0.301824	49.566	17.3109	-3.36259
 563	1	2	-0.079086	53.3781	20.6151	-7.44246
 564	1	2	-0.121043	54.1047	21.7372	-7.87143
 565	1	1	0.148865	54.2688	22.5859	-7.21336
 566	1	2	0.229196	54.591	21.7407	-9.19442
 567	1	3	-0.312503	55.2477	22.8436	-9.6788
 568	1	1	0.177824	53.3801	18.6964	-10.2697
 569	1	2	-0.142744	53.6014	19.535	-9.61102
 570	1	2	-0.093344	53.1264	19.552	-8.29175
 571	1	1	0.162888	57.1234	21.6856	-8.1627
 572	1	1	0.147794	59.5509	21.9253	-8.46576
 573	1	2	-0.172056	57.5031	22.2589	-9.00286
 574	1	2	-0.198933	58.8916	22.4011	-9.18436
 575	1	2	0.236899	56.6068	22.8943	-9.87675
 576	1	2	0.029337	59.4103	23.1744	-10.251
 577	1	4	0.180684	60.9224	23.449	-10.4222
 578	1	2	-0.223565	57.1055	23.6585	-10.9395
 579	1	2	-0.141841	58.4931	23.7929	-11.1291
 580	1	1	0.17153	56.4087	24.1607	-11.6037
 581	1	1	0.139148	58.858	24.4083	-11.9481
 582	1	2	-0.185386	54.3454	20.6485	-10.0557
 583	1	1	0.155741	54.7115	20.6867	-11.0776
 584	1	4	-0.198622	61.8136	22.4934	-9.57955
 585	1	4	-0.188008	61.1819	24.8805	-9.87759
 586	1	5	0.060726	61.6808	22.6599	-8.50318
 587	1	5	0.058265	62.8752	22.6583	-9.80512
 588	1	5	0.044015	61.589	21.4409	-9.79281
 589	1	5	0.049647	60.6338	25.6341	-10.4572
 590	1	5	0.045128	62.2497	25.1329	-9.90263
 591	1	5	0.061555	60.8475	24.9643	-8.83547
 592	1	1	0.151962	62.158	25.2812	-12.2098
 593	1	2	-0.211106	61.9796	24.3028	-12.6439
 594	1	2	-0.169243	62.4204	24.075	-13.9609
 595	1	1	0.166678	62.9136	24.8669	-14.5168
 596	1	2	0.259195	62.2525	22.8163	-14.5584
 597	1	2	-0.207473	61.5871	21.8044	-13.8539
 598	1	1	0.171716	61.4452	20.8368	-14.326
 599	1	2	-0.169975	61.1362	22.0328	-12.5395
 600	1	1	0.141932	60.6403	21.2284	-12.0015
 601	1	2	0.050656	61.3435	23.2772	-11.903
 602	1	6	0.518059	52.2777	18.5691	-7.56363
 603	1	6	0.507614	52.7099	20.3315	-6.14143
 604	1	7	-0.122906	52.0703	19.111	-6.30473
 605	1	8	-0.496938	51.8292	17.5293	-8.01217
 606	1	8	-0.484992	52.7193	21.0422	-5.15213
 607	1	2	-0.048962	65.5053	23.31	-18.1068
 608	1	6	0.0776	66.0382	23.4683	-19.4866
 609	1	8	-0.391129	65.3936	23.3608	-20.5168
 610	1	2	0.038503	66.5468	23.5021	-17.2191
 611	1	6	0.061082	67.783	23.7916	-17.9898
 612	1	7	0.459351	67.402	23.7406	-19.333
 613	1	8	-0.403808	68.8831	24.0253	-17.515
 614	1	2	-0.02278	64.2121	22.997	-17.6612
 615	1	2	-0.06542	66.3619	23.3848	-15.837
 616	1	2	0.157218	63.9932	22.8866	-16.2714
 617	1	1	0.144625	63.4024	22.8364	-18.3669
 618	1	2	-0.259423	65.0701	23.0654	-15.3667
 619	1	3	-0.32062	62.7284	22.5593	-15.8253
 620	1	1	0.165981	67.2006	23.5224	-15.1576
 621	1	1	0.168674	64.9113	22.9416	-14.2994
 622	1	1	0.207625	67.0171	25.2213	-21.573
 623	1	2	-0.428502	67.9837	24.7243	-21.5372
 624	1	2	-0.035773	68.8722	24.8727	-22.619
 625	1	1	0.142536	68.5888	25.4865	-23.4715
 626	1	2	0.020215	70.1139	24.2116	-22.6184
 627	1	2	-0.058677	70.4605	23.412	-21.5153
 628	1	1	0.147375	71.4135	22.8854	-21.506
 629	1	2	-0.40884	69.5722	23.273	-20.4322
 630	1	1	0.20403	69.8636	22.6512	-19.5887
 631	1	2	0.301824	68.315	23.9174	-20.4264
 632	1	2	-0.079086	72.2105	25.1271	-25.502
 633	1	2	-0.121043	72.8385	25.9333	-26.4644
 634	1	1	0.148865	72.8375	27.0148	-26.3644
 635	1	2	0.229196	73.4305	25.2994	-27.5811
 636	1	3	-0.312503	74.0062	26.0307	-28.5983
 637	1	1	0.177824	72.6922	22.014	-26.8264
 638	1	2	-0.142744	72.7491	23.0987	-26.728
 639	1	2	-0.093344	72.1651	23.7515	-25.6327
 640	1	1	0.162888	73.306	28.344	-29.6507
 641	1	1	0.147794	74.287	30.5461	-29.0819
 642	1	2	-0.172056	74.1485	28.4045	-28.9684
 643	1	2	-0.198933	74.7153	29.6522	-28.6398
 644	1	2	0.236899	74.6326	27.2306	-28.375
 645	1	2	0.029337	75.7768	29.7365	-27.7065
 646	1	4	0.180684	76.2951	31.0746	-27.1276
 647	1	2	-0.223565	75.7251	27.2926	-27.5051