pySIMM System Object

1589 atoms
1749 bonds
2944 angles
4550 dihedrals
552 impropers

9 atom types
11 bond types
18 angle types
9 dihedral types
4 improper types

-175.592064 175.592064 xlo xhi
-175.592064 175.592064 ylo yhi
-175.592064 175.592064 zlo zhi

Masses

   1	1.008	# ha
   2	12.01	# ca
   3	16.0	# os
   4	12.01	# c3
   5	1.008	# hc
   6	12.01	# c
   7	14.01	# n
   8	16.0	# o
   9	1.008	# hn

Pair Coeffs

   1	0.015	2.59964245953351	# ha
   2	0.086	3.3996695084235347	# ca
   3	0.17	3.0000123434657784	# os
   4	0.1094	3.3996695084235347	# c3
   5	0.0157	2.649532787749369	# hc
   6	0.086	3.3996695084235347	# c
   7	0.17	3.249998523775958	# n
   8	0.21	2.959921901149463	# o
   9	0.0157	1.069078461768407	# hn

Bond Coeffs

   1	461.1	1.3984	# ca,ca
   2	427.6	1.3789	# c,n
   3	345.9	1.4906	# c,ca
   4	300.9	1.5375	# c3,c3
   5	345.8	1.086	# ca,ha
   6	384.2	1.4121	# ca,n
   7	321.0	1.5156	# c3,ca
   8	330.6	1.0969	# c3,hc
   9	637.7	1.2183	# c,o
  10	376.6	1.3696	# ca,os
  11	403.2	1.0129	# hn,n

Angle Coeffs

   1	46.34	109.8	# c3,c3,hc
   2	74.22	123.05	# n,c,o
   3	48.33	117.55	# c,n,hn
   4	63.56	112.24	# ca,c3,ca
   5	63.48	119.89	# ca,os,ca
   6	62.86	111.51	# c3,c3,c3
   7	66.62	120.02	# ca,ca,ca
   8	64.28	120.33	# c,ca,ca
   9	63.15	112.07	# c3,c3,ca
  10	39.4	107.58	# hc,c3,hc
  11	48.18	119.88	# ca,ca,ha
  12	63.53	120.77	# c3,ca,ca
  13	63.74	127.08	# c,n,c
  14	67.68	115.25	# ca,c,n
  15	63.82	123.71	# c,n,ca
  16	68.72	122.6	# ca,c,o
  17	67.87	120.19	# ca,ca,n
  18	69.58	119.2	# ca,ca,os

Dihedral Coeffs

   1	1	3.625	2	180	# X,ca,ca,X
   2	1	1.0	2	180	# X,c,ca,X
   3	1	0.0	2	0	# X,c3,ca,X
   4	1	0.15555555555555556	3	0	# X,c3,c3,X
   5	1	0.9	2	180	# X,ca,os,X
   6	1	2.5	2	180	# X,c,n,X
   7	1	0.45	2	180	# X,ca,n,X
   8	1	0.16	3	0	# hc,c3,c3,c3
   9	2	2.5	2	180	2.0	1	0	# hn,n,c,o

Improper Coeffs

   1	1.1	-1	2	# n,X,X,hn
   2	1.1	-1	2	# ca,ca,ca,c3
   3	10.5	-1	2	# c,X,X,o
   4	1.1	-1	2	# ca,X,X,ha

Atoms

   1	1	1	0.207625	-88.0272	-50.6846	15.3857
   2	1	2	-0.428502	-87.8508	-49.986	16.1974
   3	1	2	-0.035773	-88.8326	-49.0392	16.5431
   4	1	1	0.142536	-89.7703	-49.0068	15.9919
   5	1	2	0.020215	-88.6019	-48.1279	17.5927
   6	1	2	-0.058677	-87.3773	-48.1781	18.2881
   7	1	1	0.147375	-87.1851	-47.4816	19.102
   8	1	2	-0.40884	-86.3986	-49.1244	17.9341
   9	1	1	0.20403	-85.455	-49.1608	18.4693
  10	1	2	0.301824	-86.6329	-50.029	16.8896
  11	1	2	-0.079086	-91.0866	-45.4231	17.7983
  12	1	2	-0.121043	-91.9073	-44.3644	17.3842
  13	1	1	0.148865	-91.9933	-44.0974	16.3346
  14	1	2	0.229196	-92.5967	-43.6377	18.3735
  15	1	3	-0.312503	-93.384	-42.579	17.988
  16	1	1	0.177824	-91.5412	-45.3458	21.1818
  17	1	2	-0.142744	-91.6519	-45.0654	20.1352
  18	1	2	-0.093344	-90.9571	-45.7572	19.1334
  19	1	1	0.162888	-91.3171	-41.4073	19.2408
  20	1	1	0.147794	-91.39	-39.1999	20.3585
  21	1	2	-0.172056	-92.2413	-40.837	19.2431
  22	1	2	-0.198933	-92.2855	-39.58	19.8724
  23	1	2	0.236899	-93.3873	-41.3536	18.6149
  24	1	2	0.029337	-93.4685	-38.808	19.8772
  25	1	4	0.180684	-93.4713	-37.4441	20.6084
  26	1	2	-0.223565	-94.5624	-40.5925	18.5957
  27	1	2	-0.141841	-94.6084	-39.3341	19.2236
  28	1	1	0.17153	-95.4403	-40.99	18.0952
  29	1	1	0.139148	-95.5424	-38.7825	19.195
  30	1	2	-0.185386	-92.4835	-43.9963	19.7385
  31	1	1	0.155741	-93.0384	-43.437	20.4865
  32	1	4	-0.198622	-93.3919	-37.7454	22.1306
  33	1	4	-0.188008	-94.7725	-36.6278	20.3815
  34	1	5	0.060726	-93.5151	-36.8352	22.7306
  35	1	5	0.058265	-92.4324	-38.2063	22.3968
  36	1	5	0.044015	-94.1874	-38.441	22.4278
  37	1	5	0.049647	-94.9447	-36.4402	19.3141
  38	1	5	0.045128	-94.7076	-35.6521	20.8802
  39	1	5	0.061555	-95.6495	-37.1464	20.789
  40	1	1	0.151962	-91.6106	-35.8594	22.0445
  41	1	2	-0.211106	-91.4623	-35.8327	20.9698
  42	1	2	-0.169243	-90.4304	-35.0217	20.4607
  43	1	1	0.166678	-89.8104	-34.4404	21.1368
  44	1	2	0.259195	-90.2129	-34.9377	19.0763
  45	1	2	-0.207473	-91.0418	-35.6519	18.2032
  46	1	1	0.171716	-90.8822	-35.5665	17.1324
  47	1	2	-0.169975	-92.0734	-36.463	18.7093
  48	1	1	0.141932	-92.7102	-37.0035	18.0129
  49	1	2	0.050656	-92.2973	-36.5745	20.1
  50	1	6	0.518059	-89.9883	-46.8822	19.2355
  51	1	6	0.507614	-90.2107	-46.3293	17.0084
  52	1	7	-0.122906	-89.5823	-47.1528	17.9345
  53	1	8	-0.496938	-89.614	-47.4151	20.2659
  54	1	8	-0.484992	-90.0722	-46.3188	15.7975
  55	1	2	-0.048962	-85.9931	-34.9253	20.1178
  56	1	6	0.0776	-85.0707	-35.8774	20.7837
  57	1	8	-0.391129	-85.3353	-37.0291	21.0889
  58	1	2	0.038503	-85.3247	-33.7297	19.9309
  59	1	6	0.061082	-83.9454	-33.8702	20.4662
  60	1	7	0.459351	-83.8709	-35.1792	20.9492
  61	1	8	-0.403808	-83.0809	-33.0084	20.4579
  62	1	2	-0.02278	-87.31	-35.1099	19.678
  63	1	2	-0.06542	-85.9372	-32.642	19.2967
  64	1	2	0.157218	-87.9529	-34.0227	19.0453
  65	1	1	0.144625	-87.8056	-36.0674	19.8078
  66	1	2	-0.259423	-87.2674	-32.8032	18.8515
  67	1	3	-0.32062	-89.2328	-34.1288	18.5513
  68	1	1	0.165981	-85.3916	-31.7125	19.1466
  69	1	1	0.168674	-87.7742	-31.9873	18.3435
  70	1	1	0.207625	-83.7082	-36.7424	23.1527
  71	1	2	-0.428502	-82.752	-36.5743	22.6629
  72	1	2	-0.035773	-81.6047	-37.21	23.1699
  73	1	1	0.142536	-81.6907	-37.8508	24.045
  74	1	2	0.020215	-80.3579	-37.0454	22.5378
  75	1	2	-0.058677	-80.2774	-36.214	21.4048
  76	1	1	0.147375	-79.3233	-36.0747	20.9001
  77	1	2	-0.40884	-81.4285	-35.5838	20.8985
  78	1	1	0.20403	-81.3417	-34.9568	20.0137
  79	1	2	0.301824	-82.6881	-35.7634	21.5093
  80	1	2	-0.079086	-77.6564	-38.7581	24.371
  81	1	2	-0.121043	-76.9042	-39.2446	25.4509
  82	1	1	0.148865	-77.1516	-38.9772	26.4745
  83	1	2	0.229196	-75.8272	-40.1074	25.1682
  84	1	3	-0.312503	-75.0789	-40.6095	26.2038
  85	1	1	0.177824	-76.0468	-40.2036	21.727
  86	1	2	-0.142744	-76.2739	-39.9463	22.7607
  87	1	2	-0.093344	-77.3487	-39.0997	23.0675
  88	1	1	0.162888	-72.8719	-41.6015	27.1817
  89	1	1	0.147794	-72.382	-43.9897	27.5712
  90	1	2	-0.172056	-73.6117	-42.3549	26.9276
  91	1	2	-0.198933	-73.3465	-43.7181	27.154
  92	1	2	0.236899	-74.8338	-41.9517	26.3773
  93	1	2	0.029337	-74.3133	-44.7108	26.8625
  94	1	4	0.180684	-74.0363	-46.211	27.1662
  95	1	2	-0.223565	-75.791	-42.922	26.0438
  96	1	2	-0.141841	-75.5314	-44.2845	26.2782
  97	1	1	0.17153	-76.7453	-42.6182	25.6238
  98	1	1	0.139148	-76.3004	-45.0006	26.0077
  99	1	2	-0.185386	-75.5098	-40.4512	23.8337
 100	1	1	0.155741	-74.6669	-41.1082	23.6384
 101	1	4	-0.198622	-75.3673	-46.9767	27.4203
 102	1	4	-0.188008	-73.2131	-46.3332	28.4829
 103	1	5	0.060726	-75.9931	-46.4471	28.1503
 104	1	5	0.058265	-75.1858	-47.9848	27.8129
 105	1	5	0.044015	-75.9409	-47.1006	26.4936
 106	1	5	0.049647	-73.644	-45.7036	29.2722
 107	1	5	0.045128	-72.1688	-46.0335	28.3335
 108	1	5	0.061555	-73.1962	-47.3615	28.8633
 109	1	1	0.151962	-73.0454	-48.7848	27.0978
 110	1	2	-0.211106	-72.8609	-48.2565	26.1672
 111	1	2	-0.169243	-72.2163	-48.9403	25.1216
 112	1	1	0.166678	-71.9079	-49.9739	25.2472
 113	1	2	0.259195	-71.9782	-48.3032	23.8987
 114	1	2	-0.207473	-72.3975	-46.9731	23.7222
 115	1	1	0.171716	-72.2471	-46.4792	22.7675
 116	1	2	-0.169975	-73.0396	-46.2849	24.7698
 117	1	1	0.141932	-73.3586	-45.2616	24.5935
 118	1	2	0.050656	-73.2842	-46.9162	26.0125
 119	1	6	0.518059	-78.3402	-38.4456	22.1726
 120	1	6	0.507614	-78.8573	-37.8785	24.3457
 121	1	7	-0.122906	-79.2089	-37.7502	23.0061
 122	1	8	-0.496938	-78.3798	-38.5454	20.9584
 123	1	8	-0.484992	-79.4271	-37.4151	25.3185
 124	1	2	-0.048962	-69.0239	-47.0498	20.8933
 125	1	6	0.0776	-67.9177	-46.0667	20.7882
 126	1	8	-0.391129	-67.3694	-45.5045	21.7222
 127	1	2	0.038503	-69.3793	-47.4439	19.616
 128	1	6	0.061082	-68.5208	-46.7226	18.6421
 129	1	7	0.459351	-67.6789	-45.9248	19.4191
 130	1	8	-0.403808	-68.5726	-46.8204	17.4265
 131	1	2	-0.02278	-69.674	-47.5552	22.0263
 132	1	2	-0.06542	-70.3986	-48.3778	19.3942
 133	1	2	0.157218	-70.7156	-48.4851	21.8244
 134	1	1	0.144625	-69.3824	-47.2408	23.0242
 135	1	2	-0.259423	-71.0655	-48.9026	20.5219
 136	1	3	-0.32062	-71.3902	-49.03	22.8885
 137	1	1	0.165981	-70.6573	-48.6818	18.3818
 138	1	1	0.168674	-71.86	-49.633	20.3952
 139	1	1	0.207625	-68.0248	-44.1728	17.3903
 140	1	2	-0.428502	-67.0272	-44.1521	17.8229
 141	1	2	-0.035773	-66.0823	-43.2389	17.3233
 142	1	1	0.142536	-66.3641	-42.5545	16.5254
 143	1	2	0.020215	-64.7855	-43.187	17.8667
 144	1	2	-0.058677	-64.4436	-44.0753	18.9028
 145	1	1	0.147375	-63.4462	-44.0452	19.3373
 146	1	2	-0.40884	-65.392	-44.9862	19.4005
 147	1	1	0.20403	-65.1148	-45.6444	20.2208
 148	1	2	0.301824	-66.7013	-45.0321	18.8768
 149	1	2	-0.079086	-62.8921	-40.1791	16.9502
 150	1	2	-0.121043	-62.6147	-38.8164	16.7904
 151	1	1	0.148865	-63.4039	-38.0773	16.8968
 152	1	2	0.229196	-61.2813	-38.4387	16.5227
 153	1	3	-0.312503	-60.9333	-37.1121	16.4121
 154	1	1	0.177824	-59.8081	-41.5589	16.4635
 155	1	2	-0.142744	-60.5773	-40.7921	16.5437
 156	1	2	-0.093344	-61.9041	-41.1384	16.8396
 157	1	1	0.162888	-61.775	-34.8481	15.4056
 158	1	1	0.147794	-63.0057	-33.0798	16.6143
 159	1	2	-0.172056	-61.977	-34.9562	16.4671
 160	1	2	-0.198933	-62.6759	-33.9544	17.1655
 161	1	2	0.236899	-61.5607	-36.1189	17.1265
 162	1	2	0.029337	-62.9612	-34.0981	18.5443
 163	1	4	0.180684	-63.7731	-33.0494	19.3396
 164	1	2	-0.223565	-61.8216	-36.2702	18.4972
 165	1	2	-0.141841	-62.526	-35.2744	19.195
 166	1	1	0.17153	-61.4929	-37.1671	19.0138
 167	1	1	0.139148	-62.7418	-35.4234	20.2506
 168	1	2	-0.185386	-60.2761	-39.4215	16.3822
 169	1	1	0.155741	-59.2578	-39.1083	16.1701
 170	1	4	-0.198622	-65.231	-33.5778	19.4161
 171	1	4	-0.188008	-63.8232	-31.6639	18.6407
 172	1	5	0.060726	-65.6134	-33.802	18.4119
 173	1	5	0.058265	-65.9069	-32.8397	19.8656
 174	1	5	0.044015	-65.2866	-34.5033	20.0035
 175	1	5	0.049647	-64.3895	-31.7025	17.7018
 176	1	5	0.045128	-62.8138	-31.2934	18.4215
 177	1	5	0.061555	-64.3148	-30.9249	19.2865
 178	1	1	0.151962	-64.967	-32.9681	21.9113
 179	1	2	-0.211106	-63.8925	-32.8159	21.9268
 180	1	2	-0.169243	-63.27	-32.6019	23.17
 181	1	1	0.166678	-63.8547	-32.5949	24.0852
 182	1	2	0.259195	-61.889	-32.3837	23.2417
 183	1	2	-0.207473	-61.1215	-32.3957	22.0675
 184	1	1	0.171716	-60.0477	-32.2432	22.1255
 185	1	2	-0.169975	-61.742	-32.6072	20.8235
 186	1	1	0.141932	-61.1338	-32.6079	19.9217
 187	1	2	0.050656	-63.1349	-32.8279	20.7313
 188	1	6	0.518059	-62.5177	-42.4633	17.1342
 189	1	6	0.507614	-64.1628	-40.8572	17.3106
 190	1	7	-0.122906	-63.8534	-42.2064	17.4221
 191	1	8	-0.496938	-61.9332	-43.5319	17.177
 192	1	8	-0.484992	-65.2331	-40.3114	17.517
 193	1	2	-0.048962	-59.5694	-28.9218	24.3789
 194	1	6	0.0776	-59.3968	-27.5524	23.8318
 195	1	8	-0.391129	-60.03	-27.0625	22.911
 196	1	2	0.038503	-58.6712	-29.0943	25.416
 197	1	6	0.061082	-57.8944	-27.8397	25.5809
 198	1	7	0.459351	-58.3937	-26.9703	24.609
 199	1	8	-0.403808	-57.0276	-27.6342	26.4156
 200	1	2	-0.02278	-60.4754	-29.9265	24.0179
 201	1	2	-0.06542	-58.6176	-30.2861	26.1486
 202	1	2	0.157218	-60.434	-31.1427	24.7371
 203	1	1	0.144625	-61.1935	-29.7585	23.2208
 204	1	2	-0.259423	-59.5158	-31.316	25.7957
 205	1	3	-0.32062	-61.3066	-32.1712	24.467
 206	1	1	0.165981	-57.9111	-30.3978	26.9687
 207	1	1	0.168674	-59.514	-32.2526	26.3465
 208	1	1	0.207625	-58.1256	-25.1584	26.5807
 209	1	2	-0.428502	-57.8873	-24.7672	25.5941
 210	1	2	-0.035773	-57.4974	-23.424	25.4654
 211	1	1	0.142536	-57.4513	-22.7889	26.3479
 212	1	2	0.020215	-57.1727	-22.895	24.2038
 213	1	2	-0.058677	-57.2385	-23.7288	23.0728
 214	1	1	0.147375	-56.9875	-23.331	22.0917
 215	1	2	-0.40884	-57.6383	-25.0724	23.2049
 216	1	1	0.20403	-57.7073	-25.6974	22.3174
 217	1	2	0.301824	-57.9681	-25.612	24.4674
 218	1	2	-0.079086	-55.5757	-19.6182	23.7073
 219	1	2	-0.121043	-54.5787	-18.6757	23.4083
 220	1	1	0.148865	-53.6433	-18.9786	22.9464
 221	1	2	0.229196	-54.8148	-17.3308	23.7671
 222	1	3	-0.312503	-53.8575	-16.3609	23.5899
 223	1	1	0.177824	-57.9157	-17.6582	25.242
 224	1	2	-0.142744	-56.998	-17.9242	24.7193
 225	1	2	-0.093344	-56.7436	-19.2518	24.3516
 226	1	1	0.162888	-51.8164	-14.7832	23.475
 227	1	1	0.147794	-50.5791	-14.0933	21.4447
 228	1	2	-0.172056	-52.0919	-15.1929	22.5078
 229	1	2	-0.198933	-51.3907	-14.8104	21.3503
 230	1	2	0.236899	-53.1719	-16.0821	22.4295
 231	1	2	0.029337	-51.7475	-15.3274	20.0848
 232	1	4	0.180684	-51.0268	-14.8533	18.8007
 233	1	2	-0.223565	-53.5583	-16.5841	21.1758
 234	1	2	-0.141841	-52.8496	-16.2126	20.0184
 235	1	1	0.17153	-54.4204	-17.2372	21.0885
 236	1	1	0.139148	-53.1899	-16.5981	19.0627
 237	1	2	-0.185386	-56.012	-16.9623	24.4187
 238	1	1	0.155741	-56.1574	-15.9258	24.709
 239	1	4	-0.198622	-51.8965	-13.7239	18.1857
 240	1	4	-0.188008	-50.9366	-15.9871	17.7397
 241	1	5	0.060726	-52.9202	-14.0746	18.0033
 242	1	5	0.058265	-51.492	-13.3831	17.2242
 243	1	5	0.044015	-51.9608	-12.8637	18.8643
 244	1	5	0.049647	-51.9154	-16.2335	17.312
 245	1	5	0.045128	-50.5153	-16.9036	18.1716
 246	1	5	0.061555	-50.2898	-15.6831	16.9062
 247	1	1	0.151962	-49.711	-12.3927	18.2448
 248	1	2	-0.211106	-49.0661	-13.1394	18.6968
 249	1	2	-0.169243	-47.7003	-12.8315	18.841
 250	1	1	0.166678	-47.3094	-11.8791	18.4948
 251	1	2	0.259195	-46.8167	-13.7777	19.3745
 252	1	2	-0.207473	-47.3045	-15.0168	19.8105
 253	1	1	0.171716	-46.6116	-15.7489	20.2145
 254	1	2	-0.169975	-48.6692	-15.3268	19.6672
 255	1	1	0.141932	-49.0251	-16.3061	19.9786
 256	1	2	0.050656	-49.5691	-14.4066	19.0823
 257	1	6	0.518059	-57.5423	-20.4808	24.6001
 258	1	6	0.507614	-55.6051	-21.0944	23.5106
 259	1	7	-0.122906	-56.7919	-21.5294	24.0865
 260	1	8	-0.496938	-58.6067	-20.5387	25.1907
 261	1	8	-0.484992	-54.7457	-21.7671	22.9684
 262	1	2	-0.048962	-42.4298	-14.62	17.5709
 263	1	6	0.0776	-40.9482	-14.7377	17.4885
 264	1	8	-0.391129	-40.1478	-14.2774	18.2861
 265	1	2	0.038503	-42.9724	-15.2828	16.4863
 266	1	6	0.061082	-41.8729	-15.8479	15.6698
 267	1	7	0.459351	-40.6987	-15.4936	16.3377
 268	1	8	-0.403808	-42.0091	-16.5257	14.6633
 269	1	2	-0.02278	-43.2461	-14.0167	18.5404
 270	1	2	-0.06542	-44.3536	-15.3811	16.2988
 271	1	2	0.157218	-44.6463	-14.1088	18.383
 272	1	1	0.144625	-42.8131	-13.508	19.3966
 273	1	2	-0.259423	-45.1927	-14.7819	17.259
 274	1	3	-0.32062	-45.4639	-13.5426	19.3407
 275	1	1	0.165981	-44.7552	-15.9162	15.4407
 276	1	1	0.168674	-46.2684	-14.852	17.1263
 277	1	1	0.207625	-38.7274	-16.4971	17.9025
 278	1	2	-0.428502	-38.4821	-16.4809	16.843
 279	1	2	-0.035773	-37.2619	-17.0355	16.4141
 280	1	1	0.142536	-36.5866	-17.4785	17.1433
 281	1	2	0.020215	-36.9299	-17.0603	15.0465
 282	1	2	-0.058677	-37.8203	-16.4847	14.1218
 283	1	1	0.147375	-37.5842	-16.4969	13.0595
 284	1	2	-0.40884	-39.0374	-15.93	14.555
 285	1	1	0.20403	-39.7289	-15.5343	13.8144
 286	1	2	0.301824	-39.4018	-15.9392	15.9189
 287	1	2	-0.079086	-33.8604	-18.252	13.3965
 288	1	2	-0.121043	-32.7856	-18.2876	12.497
 289	1	1	0.148865	-32.5742	-17.4471	11.8421
 290	1	2	0.229196	-31.9963	-19.4526	12.4529
 291	1	3	-0.312503	-30.974	-19.5141	11.5373
 292	1	1	0.177824	-33.6511	-21.3526	14.8115
 293	1	2	-0.142744	-33.3899	-20.5054	14.1789
 294	1	2	-0.093344	-34.1521	-19.3283	14.2126
 295	1	1	0.162888	-29.6537	-19.5096	13.8826
 296	1	1	0.147794	-27.3437	-20.3445	14.2154
 297	1	2	-0.172056	-29.1133	-19.9453	13.0475
 298	1	2	-0.198933	-27.7987	-20.4141	13.2299
 299	1	2	0.236899	-29.7165	-20.0148	11.7806
 300	1	2	0.029337	-27.056	-20.9432	12.1499
 301	1	4	0.180684	-25.6033	-21.4206	12.3891
 302	1	2	-0.223565	-28.9983	-20.5501	10.705
 303	1	2	-0.141841	-27.6843	-21.0172	10.8846
 304	1	1	0.17153	-29.467	-20.5919	9.72623
 305	1	1	0.139148	-27.1648	-21.4242	10.0232
 306	1	2	-0.185386	-32.3007	-20.5586	13.282
 307	1	1	0.155741	-31.704	-21.4635	13.2082
 308	1	4	-0.198622	-24.8254	-21.6881	11.0717
 309	1	4	-0.188008	-25.687	-22.7718	13.1496
 310	1	5	0.060726	-25.2563	-22.5257	10.509
 311	1	5	0.058265	-23.7795	-21.9427	11.2862
 312	1	5	0.044015	-24.8221	-20.8009	10.4255
 313	1	5	0.049647	-26.1089	-22.6369	14.1535
 314	1	5	0.045128	-24.7009	-23.2431	13.2486
 315	1	5	0.061555	-26.3323	-23.4773	12.6104
 316	1	1	0.151962	-25.5593	-18.718	11.9196
 317	1	2	-0.211106	-24.908	-18.9871	12.748
 318	1	2	-0.169243	-24.1729	-17.977	13.3945
 319	1	1	0.166678	-24.2633	-16.9437	13.0732
 320	1	2	0.259195	-23.3111	-18.3	14.4541
 321	1	2	-0.207473	-23.207	-19.6308	14.8776
 322	1	1	0.171716	-22.5389	-19.8726	15.6988
 323	1	2	-0.169975	-23.9425	-20.6433	14.233
 324	1	1	0.141932	-23.8165	-21.6656	14.5752
 325	1	2	0.050656	-24.8103	-20.3363	13.1578
 326	1	6	0.518059	-35.3682	-18.9901	15.0007
 327	1	6	0.507614	-34.8806	-17.1961	13.6387
 328	1	7	-0.122906	-35.7464	-17.7152	14.5942
 329	1	8	-0.496938	-35.9217	-19.7164	15.8079
 330	1	8	-0.484992	-34.9464	-16.1189	13.0724
 331	1	2	-0.048962	-20.9868	-14.104	14.3692
 332	1	6	0.0776	-20.6501	-12.7121	14.7678
 333	1	8	-0.391129	-20.9708	-12.1731	15.8145
 334	1	2	0.038503	-20.4292	-14.3462	13.1281
 335	1	6	0.061082	-19.7197	-13.1224	12.6798
 336	1	7	0.459351	-19.8881	-12.1962	13.7139
 337	1	8	-0.403808	-19.1266	-12.9908	11.6206
 338	1	2	-0.02278	-21.7114	-15.0919	15.0507
 339	1	2	-0.06542	-20.5528	-15.5894	12.4971
 340	1	2	0.157218	-21.8666	-16.3478	14.4287
 341	1	1	0.144625	-22.1405	-14.896	16.0289
 342	1	2	-0.259423	-21.2787	-16.5986	13.1646
 343	1	3	-0.32062	-22.5668	-17.3324	15.0882
 344	1	1	0.165981	-20.0908	-15.7624	11.5272
 345	1	1	0.168674	-21.3754	-17.5794	12.7072
 346	1	1	0.207625	-17.4202	-11.5155	12.852
 347	1	2	-0.428502	-17.9991	-10.6745	13.2271
 348	1	2	-0.035773	-17.4216	-9.39413	13.2109
 349	1	1	0.142536	-16.4095	-9.2711	12.8309
 350	1	2	0.020215	-18.1359	-8.27864	13.6859
 351	1	2	-0.058677	-19.4458	-8.47018	14.1654
 352	1	1	0.147375	-20.017	-7.62132	14.5364
 353	1	2	-0.40884	-20.0238	-9.75483	14.1717
 354	1	1	0.20403	-21.0337	-9.87746	14.5569
 355	1	2	0.301824	-19.3109	-10.8818	13.7047
 356	1	2	-0.079086	-17.1352	-4.73992	13.3621
 357	1	2	-0.121043	-17.2018	-3.37652	13.0318
 358	1	1	0.148865	-18.114	-2.94176	12.6332
 359	1	2	0.229196	-16.0489	-2.58589	13.2208
 360	1	3	-0.312503	-16.1075	-1.24932	12.8835
 361	1	1	0.177824	-13.9083	-5.00792	14.4412
 362	1	2	-0.142744	-14.8149	-4.54302	14.0566
 363	1	2	-0.093344	-15.9752	-5.30181	13.8587
 364	1	1	0.162888	-15.718	0.0330882	15.1485
 365	1	1	0.147794	-13.7985	1.48463	15.6778
 366	1	2	-0.172056	-14.9621	0.228626	14.3934
 367	1	2	-0.198933	-13.8576	1.04998	14.6854
 368	1	2	0.236899	-15.083	-0.369933	13.1336
 369	1	2	0.029337	-12.8421	1.28064	13.7236
 370	1	4	0.180684	-11.5633	2.10339	14.0541
 371	1	2	-0.223565	-14.1223	-0.110559	12.149
 372	1	2	-0.141841	-13.0184	0.713441	12.438
 373	1	1	0.17153	-14.2269	-0.570102	11.1705
 374	1	1	0.139148	-12.2876	0.890636	11.6546
 375	1	2	-0.185386	-14.8616	-3.1717	13.7313
 376	1	1	0.155741	-13.9691	-2.56893	13.8696
 377	1	4	-0.198622	-10.3282	1.37344	13.4458
 378	1	4	-0.188008	-11.3119	2.15927	15.5884
 379	1	5	0.060726	-9.38274	1.7607	13.8439
 380	1	5	0.058265	-10.287	1.48972	12.3563
 381	1	5	0.044015	-10.3581	0.300249	13.6755
 382	1	5	0.049647	-12.0632	2.7802	16.0918
 383	1	5	0.045128	-10.3332	2.59696	15.8211
 384	1	5	0.061555	-11.3358	1.15431	16.0294
 385	1	1	0.151962	-13.7433	3.53466	12.971
 386	1	2	-0.211106	-12.8336	4.1261	13.0341
 387	1	2	-0.169243	-12.8783	5.47463	12.6244
 388	1	1	0.166678	-13.8025	5.90311	12.2483
 389	1	2	0.259195	-11.7391	6.28791	12.7146
 390	1	2	-0.207473	-10.5389	5.73267	13.1855
 391	1	1	0.171716	-9.64615	6.34814	13.2397
 392	1	2	-0.169975	-10.4924	4.38866	13.5974
 393	1	1	0.141932	-9.55613	3.99759	13.9842
 394	1	2	0.050656	-11.6367	3.55965	13.5326
 395	1	6	0.518059	-16.218	-6.75124	14.0796
 396	1	6	0.507614	-18.1564	-5.82046	13.252
 397	1	7	-0.122906	-17.5297	-6.98576	13.6835
 398	1	8	-0.496938	-15.4025	-7.55354	14.5007
 399	1	8	-0.484992	-19.2982	-5.69	12.8463
 400	1	2	-0.048962	-9.93233	10.7345	12.7652
 401	1	6	0.0776	-9.25171	11.9303	12.1954
 402	1	8	-0.391129	-9.22938	12.2492	11.0181
 403	1	2	0.038503	-9.71107	10.7231	14.1299
 404	1	6	0.061082	-8.87458	11.8975	14.4855
 405	1	7	0.459351	-8.6268	12.5559	13.2785
 406	1	8	-0.403808	-8.46617	12.1725	15.6025
 407	1	2	-0.02278	-10.6469	9.70451	12.1333
 408	1	2	-0.06542	-10.2077	9.69985	14.9462
 409	1	2	0.157218	-11.1338	8.64517	12.9296
 410	1	1	0.144625	-10.8002	9.70998	11.0582
 411	1	2	-0.259423	-10.9328	8.65666	14.3316
 412	1	3	-0.32062	-11.8166	7.6098	12.3256
 413	1	1	0.165981	-10.024	9.71461	16.0187
 414	1	1	0.168674	-11.3344	7.85116	14.9406
 415	1	1	0.207625	-9.08462	14.8866	11.9426
 416	1	2	-0.428502	-8.119	14.8474	12.4418
 417	1	2	-0.035773	-7.24424	15.9498	12.3409
 418	1	1	0.142536	-7.54765	16.829	11.7757
 419	1	2	0.020215	-5.98018	15.9214	12.9631
 420	1	2	-0.058677	-5.6073	14.767	13.6764
 421	1	1	0.147375	-4.6382	14.7232	14.1693
 422	1	2	-0.40884	-6.48035	13.6693	13.7714
 423	1	1	0.20403	-6.17212	12.7987	14.3457
 424	1	2	0.301824	-7.75319	13.6888	13.1629
 425	1	2	-0.079086	-3.73692	18.7251	12.0848
 426	1	2	-0.121043	-3.02855	19.6511	11.2994
 427	1	1	0.148865	-3.18898	19.7119	10.2268
 428	1	2	0.229196	-2.09383	20.4953	11.9364
 429	1	3	-0.312503	-1.39433	21.4074	11.1692
 430	1	1	0.177824	-2.4837	19.3939	15.1883
 431	1	2	-0.142744	-2.62421	19.4737	14.1112
 432	1	2	-0.093344	-3.53006	18.6349	13.4477
 433	1	1	0.162888	0.713542	20.0789	12.1144
 434	1	1	0.147794	2.82842	21.0832	12.8633
 435	1	2	-0.172056	0.863304	21.1501	12.0159
 436	1	2	-0.198933	2.07507	21.7325	12.43
 437	1	2	0.236899	-0.173186	21.9503	11.5107
 438	1	2	0.029337	2.28692	23.1287	12.3265
 439	1	4	0.180684	3.53465	23.8134	12.936
 440	1	2	-0.223565	0.0372035	23.3284	11.3609
 441	1	2	-0.141841	1.2524	23.9138	11.7696
 442	1	1	0.17153	-0.760963	23.9445	10.9576
 443	1	1	0.139148	1.3747	24.9913	11.6878
 444	1	2	-0.185386	-1.91157	20.417	13.3405
 445	1	1	0.155741	-1.21742	21.0904	13.8348
 446	1	4	-0.198622	4.72352	22.8309	13.1352
 447	1	4	-0.188008	3.11472	24.2883	14.3541
 448	1	5	0.060726	4.97075	22.3092	12.2022
 449	1	5	0.058265	4.50754	22.078	13.9032
 450	1	5	0.044015	5.62122	23.3727	13.4606
 451	1	5	0.049647	2.71313	23.452	14.9406
 452	1	5	0.045128	2.33148	25.0552	14.2989
 453	1	5	0.061555	3.9667	24.6987	14.911
 454	1	1	0.151962	4.02864	26.5338	13.5737
 455	1	2	-0.211106	4.29732	26.2699	12.5563
 456	1	2	-0.169243	4.92953	27.2509	11.7727
 457	1	1	0.166678	5.12684	28.2348	12.1878
 458	1	2	0.259195	5.36063	26.9538	10.4709
 459	1	2	-0.207473	5.09022	25.6881	9.93167
 460	1	1	0.171716	5.41894	25.4623	8.92152
 461	1	2	-0.169975	4.44669	24.7053	10.7122
 462	1	1	0.141932	4.28181	23.7164	10.2908
 463	1	2	0.050656	4.06598	24.9685	12.0481
 464	1	6	0.518059	-4.39683	17.5478	13.9782
 465	1	6	0.507614	-4.75512	17.701	11.7086
 466	1	7	-0.122906	-5.08492	17.0336	12.8846
 467	1	8	-0.496938	-4.4441	17.1767	15.1381
 468	1	8	-0.484992	-5.18517	17.4946	10.5874
 469	1	2	-0.048962	8.43677	30.6291	10.4098
 470	1	6	0.0776	8.96362	31.9947	10.1254
 471	1	8	-0.391129	8.56815	32.7602	9.26229
 472	1	2	0.038503	9.18404	30.0897	11.4421
 473	1	6	0.061082	10.1935	31.0847	11.8735
 474	1	7	0.459351	10.0053	32.1802	11.0359
 475	1	8	-0.403808	11.018	30.9395	12.7616
 476	1	2	-0.02278	7.39457	29.9032	9.80968
 477	1	2	-0.06542	8.96488	28.7919	11.9122
 478	1	2	0.157218	7.12898	28.6009	10.2893
 479	1	1	0.144625	6.80403	30.3339	9.00649
 480	1	2	-0.259423	7.92978	28.0433	11.3174
 481	1	3	-0.32062	6.08828	27.8739	9.74567
 482	1	1	0.165981	9.58473	28.3837	12.7081
 483	1	1	0.168674	7.74748	27.0273	11.6571
 484	1	1	0.207625	10.0897	34.056	12.9731
 485	1	2	-0.428502	10.8316	34.1968	12.1915
 486	1	2	-0.035773	11.7996	35.2077	12.3345
 487	1	1	0.142536	11.7847	35.8472	13.2151
 488	1	2	0.020215	12.8212	35.3558	11.3773
 489	1	2	-0.058677	12.823	34.5181	10.2458
 490	1	1	0.147375	13.6108	34.6144	9.5012
 491	1	2	-0.40884	11.8496	33.5136	10.1012
 492	1	1	0.20403	11.8965	32.8445	9.24604
 493	1	2	0.301824	10.8599	33.3211	11.0861
 494	1	2	-0.079086	15.9895	37.1649	11.8452
 495	1	2	-0.121043	17.3727	37.3835	11.9106
 496	1	1	0.148865	18.0799	36.5946	11.6697
 497	1	2	0.229196	17.8167	38.6645	12.2876
 498	1	3	-0.312503	19.1613	38.9316	12.3205
 499	1	1	0.177824	14.7761	40.2197	12.7711
 500	1	2	-0.142744	15.5029	39.444	12.5344
 501	1	2	-0.093344	15.0818	38.1617	12.1518
 502	1	1	0.162888	18.262	39.2739	9.80289
 503	1	1	0.147794	19.4876	40.3557	7.99248
 504	1	2	-0.172056	19.2571	39.66	10.0003
 505	1	2	-0.198933	19.9695	40.2842	8.96257
 506	1	2	0.236899	19.8291	39.5317	11.2775
 507	1	2	0.029337	21.2713	40.7978	9.17584
 508	1	4	0.180684	22.0753	41.4893	8.04818
 509	1	2	-0.223565	21.1235	40.0174	11.5
 510	1	2	-0.141841	21.8383	40.6425	10.4617
 511	1	1	0.17153	21.5682	39.9062	12.4843
 512	1	1	0.139148	22.8422	41.0047	10.6635
 513	1	2	-0.185386	16.8924	39.6879	12.5953
 514	1	1	0.155741	17.2636	40.6686	12.8791
 515	1	4	-0.198622	23.3276	40.6245	7.72546
 516	1	4	-0.188008	22.6151	42.8611	8.55085
 517	1	5	0.060726	24.0396	40.6199	8.56004
 518	1	5	0.058265	23.8545	41.011	6.84338
 519	1	5	0.044015	23.0581	39.5781	7.53882
 520	1	5	0.049647	21.8236	43.4531	9.02638
 521	1	5	0.045128	23.0341	43.4447	7.72096
 522	1	5	0.061555	23.411	42.7407	9.29558
 523	1	1	0.151962	21.6647	39.7604	5.87821
 524	1	2	-0.211106	21.0975	40.6815	5.79233
 525	1	2	-0.169243	20.237	40.828	4.68962
 526	1	1	0.166678	20.1663	40.045	3.9405
 527	1	2	0.259195	19.45	41.9763	4.54576
 528	1	2	-0.207473	19.5487	42.9985	5.50403
 529	1	1	0.171716	18.9641	43.9062	5.39205
 530	1	2	-0.169975	20.3988	42.8484	6.6158
 531	1	1	0.141932	20.4169	43.6432	7.35456
 532	1	2	0.050656	21.1981	41.6906	6.78034
 533	1	6	0.518059	13.7107	37.5987	11.9982
 534	1	6	0.507614	15.228	35.9442	11.4758
 535	1	7	-0.122906	13.8841	36.2809	11.5924
 536	1	8	-0.496938	12.6644	38.1853	12.2136
 537	1	8	-0.484992	15.7105	34.8767	11.1398
 538	1	2	-0.048962	16.1738	44.3221	1.9448
 539	1	6	0.0776	15.7234	45.1462	0.795833
 540	1	8	-0.391129	16.2821	45.2266	-0.285544
 541	1	2	0.038503	15.2843	44.5011	2.987
 542	1	6	0.061082	14.2321	45.4545	2.54861
 543	1	7	0.459351	14.5737	45.8053	1.23893
 544	1	8	-0.403808	13.318	45.8775	3.23851
 545	1	2	-0.02278	17.3048	43.5078	2.07789
 546	1	2	-0.06542	15.4635	43.8604	4.22002
 547	1	2	0.157218	17.5212	42.8702	3.31498
 548	1	1	0.144625	18.0037	43.3831	1.25606
 549	1	2	-0.259423	16.5935	43.0263	4.37407
 550	1	3	-0.32062	18.6288	42.0645	3.44342
 551	1	1	0.165981	14.7479	44.0112	5.02591
 552	1	1	0.168674	16.7528	42.5014	5.31219
 553	1	1	0.207625	15.6966	47.7479	-0.264677
 554	1	2	-0.428502	14.6106	47.7925	-0.231951
 555	1	2	-0.035773	13.9515	48.8407	-0.894566
 556	1	1	0.142536	14.5251	49.593	-1.42075
 557	1	2	0.020215	12.5541	48.9394	-0.851766
 558	1	2	-0.058677	11.8152	47.9574	-0.170939
 559	1	1	0.147375	10.7309	48.0317	-0.124167
 560	1	2	-0.40884	12.477	46.9026	0.485389
 561	1	1	0.20403	11.8907	46.1736	1.04046
 562	1	2	0.301824	13.8873	46.8128	0.483506
 563	1	2	-0.079086	10.6686	51.4136	-2.79911
 564	1	2	-0.121043	9.88722	51.9548	-3.83072
 565	1	1	0.148865	9.70498	51.395	-4.7445
 566	1	2	0.229196	9.32232	53.2337	-3.6292
 567	1	3	-0.312503	8.51063	53.8087	-4.57715
 568	1	1	0.177824	10.5297	53.9104	-0.470792
 569	1	2	-0.142744	10.3504	53.3828	-1.40634
 570	1	2	-0.093344	10.8925	52.1091	-1.6241
 571	1	1	0.162888	6.77078	53.1161	-6.41642
 572	1	1	0.147794	7.2571	52.8366	-8.84056
 573	1	2	-0.172056	7.76169	53.3333	-6.80372
 574	1	2	-0.198933	8.04294	53.1828	-8.17346
 575	1	2	0.236899	8.7745	53.7261	-5.92051
 576	1	2	0.029337	9.33981	53.428	-8.68071
 577	1	4	0.180684	9.6282	53.1412	-10.1707
 578	1	2	-0.223565	10.0544	54.0132	-6.41264
 579	1	2	-0.141841	10.3373	53.8656	-7.78039
 580	1	1	0.17153	10.8403	54.3187	-5.72952
 581	1	1	0.139148	11.352	54.058	-8.1135
 582	1	2	-0.185386	9.54976	53.937	-2.42675
 583	1	1	0.155741	9.09288	54.9132	-2.29303
 584	1	4	-0.198622	11.1278	53.2865	-10.553
 585	1	4	-0.188008	8.84874	54.1831	-11.0189
 586	1	5	0.060726	11.4778	54.3178	-10.4198
 587	1	5	0.058265	11.2861	53.0144	-11.6048
 588	1	5	0.044015	11.7631	52.6266	-9.94816
 589	1	5	0.049647	7.76573	54.097	-10.8675
 590	1	5	0.045128	9.05694	54.0642	-12.0897
 591	1	5	0.061555	9.14079	55.2029	-10.7372
 592	1	1	0.151962	10.4048	50.9192	-8.80028
 593	1	2	-0.211106	9.72803	50.6641	-9.61382
 594	1	2	-0.169243	9.36929	49.321	-9.80558
 595	1	1	0.166678	9.76219	48.5582	-9.14023
 596	1	2	0.259195	8.51476	48.9624	-10.8607
 597	1	2	-0.207473	7.99081	49.9586	-11.6946
 598	1	1	0.171716	7.32367	49.6746	-12.5023
 599	1	2	-0.169975	8.33827	51.3083	-11.4958
 600	1	1	0.141932	7.92015	52.0532	-12.1648
 601	1	2	0.050656	9.2181	51.6799	-10.4521
 602	1	6	0.518059	11.7127	51.251	-0.728851
 603	1	6	0.507614	11.336	50.0873	-2.68372
 604	1	7	-0.122906	11.9012	50.0636	-1.41822
 605	1	8	-0.496938	12.1141	51.5402	0.38556
 606	1	8	-0.484992	11.3578	49.2089	-3.52693
 607	1	2	-0.048962	11.2994	45.6964	-11.0217
 608	1	6	0.0776	12.7662	45.6112	-11.1797
 609	1	8	-0.391129	13.4996	46.5391	-11.4811
 610	1	2	0.038503	10.8252	44.4608	-10.6249
 611	1	6	0.061082	11.9765	43.5223	-10.5364
 612	1	7	0.459351	13.0941	44.2832	-10.8915
 613	1	8	-0.403808	11.9193	42.3379	-10.2462
 614	1	2	-0.02278	10.4502	46.7883	-11.2178
 615	1	2	-0.06542	9.46102	44.2493	-10.3862
 616	1	2	0.157218	9.07443	46.6073	-10.9581
 617	1	1	0.144625	10.8502	47.7439	-11.5479
 618	1	2	-0.259423	8.58455	45.345	-10.5552
 619	1	3	-0.32062	8.18373	47.6472	-11.094
 620	1	1	0.165981	9.10125	43.2711	-10.0742
 621	1	1	0.168674	7.52085	45.2268	-10.369
 622	1	1	0.207625	14.34	42.5318	-9.21045
 623	1	2	-0.428502	14.9675	42.8923	-10.0227
 624	1	2	-0.035773	16.3138	42.4805	-10.0846
 625	1	1	0.142536	16.7086	41.82	-9.31491
 626	1	2	0.020215	17.1604	42.9574	-11.1052
 627	1	2	-0.058677	16.6227	43.8235	-12.0756
 628	1	1	0.147375	17.2534	44.2325	-12.861
 629	1	2	-0.40884	15.2774	44.21	-12.0248
 630	1	1	0.20403	14.9056	44.8956	-12.7821
 631	1	2	0.301824	14.432	43.7796	-10.9822
 632	1	2	-0.079086	20.7259	42.6481	-11.8716
 633	1	2	-0.121043	21.8664	42.8376	-12.6594
 634	1	1	0.148865	21.7969	42.8405	-13.7435
 635	1	2	0.229196	23.0791	43.1349	-12.0064
 636	1	3	-0.312503	24.167	43.5255	-12.7488
 637	1	1	0.177824	21.989	43.1146	-8.73621
 638	1	2	-0.142744	21.9764	43.0004	-9.81928
 639	1	2	-0.093344	20.7724	42.7493	-10.4952
 640	1	1	0.162888	25.0316	43.4233	-15.2305
 641	1	1	0.147794	24.5878	45.1003	-16.992
 642	1	2	-0.172056	24.496	44.3363	-14.9881
 643	1	2	-0.198933	24.2335	45.2963	-15.9848
 644	1	2	0.236899	24.0237	44.525	-13.6829
 645	1	2	0.029337	23.4888	46.4631	-15.6857