pySIMM System Object

3245 atoms
3573 bonds
6016 angles
9302 dihedrals
1128 impropers

9 atom types
11 bond types
18 angle types
9 dihedral types
4 improper types

-224.534597 224.534597 xlo xhi
-224.534597 224.534597 ylo yhi
-224.534597 224.534597 zlo zhi

Masses

   1	1.008	# ha
   2	12.01	# ca
   3	16.0	# os
   4	12.01	# c3
   5	1.008	# hc
   6	12.01	# c
   7	14.01	# n
   8	16.0	# o
   9	1.008	# hn

Pair Coeffs

   1	0.015	2.59964245953351	# ha
   2	0.086	3.3996695084235347	# ca
   3	0.17	3.0000123434657784	# os
   4	0.1094	3.3996695084235347	# c3
   5	0.0157	2.649532787749369	# hc
   6	0.086	3.3996695084235347	# c
   7	0.17	3.249998523775958	# n
   8	0.21	2.959921901149463	# o
   9	0.0157	1.069078461768407	# hn

Bond Coeffs

   1	461.1	1.3984	# ca,ca
   2	427.6	1.3789	# c,n
   3	345.9	1.4906	# c,ca
   4	300.9	1.5375	# c3,c3
   5	345.8	1.086	# ca,ha
   6	384.2	1.4121	# ca,n
   7	321.0	1.5156	# c3,ca
   8	330.6	1.0969	# c3,hc
   9	637.7	1.2183	# c,o
  10	376.6	1.3696	# ca,os
  11	403.2	1.0129	# hn,n

Angle Coeffs

   1	46.34	109.8	# c3,c3,hc
   2	74.22	123.05	# n,c,o
   3	48.33	117.55	# c,n,hn
   4	63.56	112.24	# ca,c3,ca
   5	63.48	119.89	# ca,os,ca
   6	62.86	111.51	# c3,c3,c3
   7	66.62	120.02	# ca,ca,ca
   8	64.28	120.33	# c,ca,ca
   9	63.15	112.07	# c3,c3,ca
  10	39.4	107.58	# hc,c3,hc
  11	48.18	119.88	# ca,ca,ha
  12	63.53	120.77	# c3,ca,ca
  13	63.74	127.08	# c,n,c
  14	67.68	115.25	# ca,c,n
  15	63.82	123.71	# c,n,ca
  16	68.72	122.6	# ca,c,o
  17	67.87	120.19	# ca,ca,n
  18	69.58	119.2	# ca,ca,os

Dihedral Coeffs

   1	1	3.625	2	180	# X,ca,ca,X
   2	1	1.0	2	180	# X,c,ca,X
   3	1	0.0	2	0	# X,c3,ca,X
   4	1	0.15555555555555556	3	0	# X,c3,c3,X
   5	1	0.9	2	180	# X,ca,os,X
   6	1	2.5	2	180	# X,c,n,X
   7	1	0.45	2	180	# X,ca,n,X
   8	1	0.16	3	0	# hc,c3,c3,c3
   9	2	2.5	2	180	2.0	1	0	# hn,n,c,o

Improper Coeffs

   1	1.1	-1	2	# n,X,X,hn
   2	1.1	-1	2	# ca,ca,ca,c3
   3	10.5	-1	2	# c,X,X,o
   4	1.1	-1	2	# ca,X,X,ha

Atoms

   1	1	1	0.207625	-94.8416	131.077	38.3447
   2	1	2	-0.428502	-95.4216	130.69	39.1764
   3	1	2	-0.035773	-95.6201	129.304	39.3172
   4	1	1	0.142536	-95.1872	128.623	38.5877
   5	1	2	0.020215	-96.3793	128.798	40.3919
   6	1	2	-0.058677	-96.9329	129.702	41.321
   7	1	1	0.147375	-97.5192	129.331	42.1592
   8	1	2	-0.40884	-96.7292	131.086	41.1751
   9	1	1	0.20403	-97.1535	131.779	41.8946
  10	1	2	0.301824	-95.975	131.583	40.1037
  11	1	2	-0.079086	-97.0575	125.188	40.0852
  12	1	2	-0.121043	-97.388	123.961	39.4933
  13	1	1	0.148865	-97.5887	123.888	38.4282
  14	1	2	0.229196	-97.4542	122.822	40.3196
  15	1	3	-0.312503	-97.7938	121.618	39.7446
  16	1	1	0.177824	-96.6947	124.282	43.3562
  17	1	2	-0.142744	-96.8814	124.179	42.2883
  18	1	2	-0.093344	-96.8069	125.292	41.4399
  19	1	1	0.162888	-99.3634	119.545	39.9581
  20	1	1	0.147794	-98.7463	117.323	40.8479
  21	1	2	-0.172056	-98.3459	119.355	40.2866
  22	1	2	-0.198933	-97.9826	118.091	40.7883
  23	1	2	0.236899	-97.405	120.39	40.2241
  24	1	2	0.029337	-96.6609	117.836	41.2243
  25	1	4	0.180684	-96.2547	116.479	41.8471
  26	1	2	-0.223565	-96.0873	120.153	40.6437
  27	1	2	-0.141841	-95.7232	118.893	41.151
  28	1	1	0.17153	-95.3513	120.949	40.5823
  29	1	1	0.139148	-94.7027	118.744	41.4955
  30	1	2	-0.185386	-97.216	122.935	41.7123
  31	1	1	0.155741	-97.2999	122.058	42.3477
  32	1	4	-0.198622	-97.1158	115.296	41.3217
  33	1	4	-0.188008	-96.5255	116.59	43.3716
  34	1	5	0.060726	-96.7101	114.34	41.6769
  35	1	5	0.058265	-97.1289	115.267	40.2252
  36	1	5	0.044015	-98.1531	115.356	41.6733
  37	1	5	0.049647	-95.9198	117.385	43.8243
  38	1	5	0.045128	-96.3074	115.646	43.8883
  39	1	5	0.061555	-97.5785	116.834	43.5621
  40	1	1	0.151962	-94.0487	115.984	43.5696
  41	1	2	-0.211106	-93.798	115.934	42.5149
  42	1	2	-0.169243	-92.4635	115.659	42.1665
  43	1	1	0.166678	-91.7123	115.51	42.9367
  44	1	2	0.259195	-92.0847	115.575	40.8217
  45	1	2	-0.207473	-93.0399	115.783	39.8165
  46	1	1	0.171716	-92.7379	115.743	38.7739
  47	1	2	-0.169975	-94.3745	116.067	40.1627
  48	1	1	0.141932	-95.1009	116.243	39.3726
  49	1	2	0.050656	-94.7776	116.149	41.5157
  50	1	6	0.518059	-96.4965	126.714	41.7453
  51	1	6	0.507614	-96.9195	126.543	39.4863
  52	1	7	-0.122906	-96.5883	127.394	40.5358
  53	1	8	-0.496938	-96.2259	127.165	42.845
  54	1	8	-0.484992	-97.0751	126.825	38.3107
  55	1	2	-0.048962	-90.4425	112.143	38.72
  56	1	6	0.0776	-90.954	110.803	38.3327
  57	1	8	-0.391129	-92.0505	110.348	38.6154
  58	1	2	0.038503	-89.1653	112.282	38.2085
  59	1	6	0.061082	-88.8093	111.043	37.4733
  60	1	7	0.459351	-89.9224	110.208	37.5989
  61	1	8	-0.403808	-87.7466	110.821	36.9148
  62	1	2	-0.02278	-91.04	113.151	39.49
  63	1	2	-0.06542	-88.4063	113.436	38.4352
  64	1	2	0.157218	-90.2934	114.329	39.7275
  65	1	1	0.144625	-92.0346	113.013	39.903
  66	1	2	-0.259423	-88.9876	114.463	39.2077
  67	1	3	-0.32062	-90.7655	115.353	40.5149
  68	1	1	0.165981	-87.3975	113.52	38.0362
  69	1	1	0.168674	-88.4247	115.368	39.4203
  70	1	1	0.207625	-90.8393	107.979	38.8295
  71	1	2	-0.428502	-90.4754	107.804	37.8196
  72	1	2	-0.035773	-90.5054	106.498	37.298
  73	1	1	0.142536	-90.8833	105.684	37.9138
  74	1	2	0.020215	-90.04	106.235	35.9953
  75	1	2	-0.058677	-89.5538	107.307	35.2227
  76	1	1	0.147375	-89.1856	107.128	34.2145
  77	1	2	-0.40884	-89.5284	108.612	35.7471
  78	1	1	0.20403	-89.1294	109.419	35.1369
  79	1	2	0.301824	-89.9827	108.883	37.0556
  80	1	2	-0.079086	-89.7454	102.635	35.2682
  81	1	2	-0.121043	-89.4351	101.281	35.4593
  82	1	1	0.148865	-89.0384	100.928	36.4069
  83	1	2	0.229196	-89.6307	100.391	34.3853
  84	1	3	-0.312503	-89.288	99.0719	34.588
  85	1	1	0.177824	-90.8254	102.622	32.0323
  86	1	2	-0.142744	-90.4458	102.237	32.9778
  87	1	2	-0.093344	-90.2391	103.098	34.0649
  88	1	1	0.162888	-91.4904	98.0594	33.5023
  89	1	1	0.147794	-91.5671	96.2334	31.842
  90	1	2	-0.172056	-90.567	97.6103	33.1481
  91	1	2	-0.198933	-90.5996	96.5638	32.2066
  92	1	2	0.236899	-89.3405	98.0768	33.6434
  93	1	2	0.029337	-89.4019	95.9538	31.7592
  94	1	4	0.180684	-89.3749	94.7971	30.7301
  95	1	2	-0.223565	-88.149	97.4778	33.2186
  96	1	2	-0.141841	-88.1788	96.4294	32.2823
  97	1	1	0.17153	-87.2045	97.8285	33.6238
  98	1	1	0.139148	-87.243	95.9739	31.9672
  99	1	2	-0.185386	-90.1293	100.871	33.1469
 100	1	1	0.155741	-90.2617	100.191	32.3113
 101	1	4	-0.198622	-88.717	95.3543	29.4368
 102	1	4	-0.188008	-90.7911	94.2983	30.3367
 103	1	5	0.060726	-89.2063	96.2873	29.1282
 104	1	5	0.058265	-88.8045	94.6513	28.5993
 105	1	5	0.044015	-87.6528	95.5719	29.5911
 106	1	5	0.049647	-91.376	95.0897	29.8511
 107	1	5	0.045128	-91.3448	93.9446	31.2158
 108	1	5	0.061555	-90.7237	93.4587	29.6329
 109	1	1	0.151962	-87.6321	92.969	29.4657
 110	1	2	-0.211106	-87.7836	92.7558	30.5188
 111	1	2	-0.169243	-87.1554	91.6204	31.066
 112	1	1	0.166678	-86.5429	90.9836	30.4352
 113	1	2	0.259195	-87.3396	91.2905	32.4194
 114	1	2	-0.207473	-88.1735	92.0889	33.2118
 115	1	1	0.171716	-88.3351	91.8159	34.2503
 116	1	2	-0.169975	-88.8077	93.2197	32.6658
 117	1	1	0.141932	-89.4645	93.8111	33.2995
 118	1	2	0.050656	-88.6156	93.5807	31.3131
 119	1	6	0.518059	-90.4413	104.569	34.1868
 120	1	6	0.507614	-89.6122	103.793	36.1916
 121	1	7	-0.122906	-90.0401	104.906	35.4754
 122	1	8	-0.496938	-90.8595	105.308	33.3124
 123	1	8	-0.484992	-89.1932	103.752	37.3355
 124	1	2	-0.048962	-84.325	87.5514	32.2568
 125	1	6	0.0776	-83.9489	86.1154	32.2031
 126	1	8	-0.391129	-84.6815	85.1763	32.4684
 127	1	2	0.038503	-83.2225	88.3045	31.9002
 128	1	6	0.061082	-82.0977	87.3825	31.6011
 129	1	7	0.459351	-82.6072	86.0969	31.8097
 130	1	8	-0.403808	-80.9791	87.7147	31.2418
 131	1	2	-0.02278	-85.538	88.1541	32.6144
 132	1	2	-0.06542	-83.2643	89.7042	31.8844
 133	1	2	0.157218	-85.611	89.5615	32.5932
 134	1	1	0.144625	-86.3951	87.5547	32.9066
 135	1	2	-0.259423	-84.4768	90.3329	32.2427
 136	1	3	-0.32062	-86.7856	90.1623	32.9826
 137	1	1	0.165981	-82.3785	90.2775	31.6182
 138	1	1	0.168674	-84.5338	91.4174	32.2679
 139	1	1	0.207625	-80.04	85.6919	32.5619
 140	1	2	-0.428502	-80.4974	84.8286	32.0838
 141	1	2	-0.035773	-79.7243	83.6711	31.8889
 142	1	1	0.142536	-78.6882	83.6595	32.2212
 143	1	2	0.020215	-80.2742	82.5411	31.2555
 144	1	2	-0.058677	-81.6153	82.5911	30.8299
 145	1	1	0.147375	-82.0616	81.7299	30.3362
 146	1	2	-0.40884	-82.3821	83.7557	31.0178
 147	1	1	0.20403	-83.4136	83.769	30.6729
 148	1	2	0.301824	-81.8362	84.8986	31.6419
 149	1	2	-0.079086	-77.8902	79.7285	31.2273
 150	1	2	-0.121043	-76.859	78.8778	31.6529
 151	1	1	0.148865	-76.4301	78.9699	32.6468
 152	1	2	0.229196	-76.3846	77.9062	30.75
 153	1	3	-0.312503	-75.3565	77.0836	31.1532
 154	1	1	0.177824	-78.3974	78.6271	28.0367
 155	1	2	-0.142744	-77.9718	78.6784	29.0379
 156	1	2	-0.093344	-78.428	79.6305	29.9587
 157	1	1	0.162888	-73.1441	76.5095	29.8597
 158	1	1	0.147794	-72.6792	74.3852	28.6506
 159	1	2	-0.172056	-73.8722	75.7037	29.8702
 160	1	2	-0.198933	-73.6182	74.5007	29.1871
 161	1	2	0.236899	-75.0838	75.8824	30.5487
 162	1	2	0.029337	-74.5678	73.4538	29.1787
 163	1	4	0.180684	-74.2668	72.1725	28.3677
 164	1	2	-0.223565	-76.0323	74.8508	30.565
 165	1	2	-0.141841	-75.7795	73.6462	29.8847
 166	1	1	0.17153	-76.9686	74.9964	31.0957
 167	1	1	0.139148	-76.5443	72.8767	29.9058
 168	1	2	-0.185386	-76.9364	77.8125	29.4469
 169	1	1	0.155741	-76.5517	77.0783	28.745
 170	1	4	-0.198622	-74.4223	72.5342	26.8652
 171	1	4	-0.188008	-75.27	71.0191	28.6488
 172	1	5	0.060726	-75.4263	72.9309	26.666
 173	1	5	0.058265	-74.282	71.6548	26.2238
 174	1	5	0.044015	-73.7005	73.3028	26.5614
 175	1	5	0.049647	-76.2841	71.2764	28.3175
 176	1	5	0.045128	-75.3111	70.7732	29.7173
 177	1	5	0.061555	-74.9715	70.1095	28.1119
 178	1	1	0.151962	-73.3039	71.5698	30.8509
 179	1	2	-0.211106	-72.5529	71.3913	30.0847
 180	1	2	-0.169243	-71.2886	70.9051	30.4633
 181	1	1	0.166678	-71.0636	70.7089	31.5074
 182	1	2	0.259195	-70.3037	70.6693	29.4961
 183	1	2	-0.207473	-70.5746	70.9521	28.149
 184	1	1	0.171716	-69.797	70.7997	27.4064
 185	1	2	-0.169975	-71.8421	71.4312	27.766
 186	1	1	0.141932	-72.0184	71.6289	26.7136
 187	1	2	0.050656	-72.8546	71.6557	28.7304
 188	1	6	0.518059	-79.4577	80.6925	29.8085
 189	1	6	0.507614	-78.5655	80.8549	31.927
 190	1	7	-0.122906	-79.4715	81.3856	31.0138
 191	1	8	-0.496938	-80.1175	80.9082	28.8065
 192	1	8	-0.484992	-78.3318	81.2348	33.0613
 193	1	2	-0.048962	-66.4957	67.6438	29.5428
 194	1	6	0.0776	-65.1758	67.095	29.9435
 195	1	8	-0.391129	-64.3881	67.6306	30.7063
 196	1	2	0.038503	-67.11	66.7333	28.7057
 197	1	6	0.061082	-66.2034	65.5676	28.529
 198	1	7	0.459351	-65.0802	65.8485	29.3148
 199	1	8	-0.403808	-66.4384	64.5758	27.857
 200	1	2	-0.02278	-67.1345	68.8272	29.9352
 201	1	2	-0.06542	-68.405	66.9507	28.2178
 202	1	2	0.157218	-68.4373	69.0749	29.4577
 203	1	1	0.144625	-66.6487	69.5237	30.6122
 204	1	2	-0.259423	-69.073	68.1332	28.6085
 205	1	3	-0.32062	-69.0687	70.2192	29.8977
 206	1	1	0.165981	-68.8818	66.2098	27.5793
 207	1	1	0.168674	-70.0905	68.3011	28.269
 208	1	1	0.207625	-65.2525	63.1693	29.6828
 209	1	2	-0.428502	-64.2377	63.5554	29.7477
 210	1	2	-0.035773	-63.193	62.6714	30.076
 211	1	1	0.142536	-63.4146	61.6239	30.2702
 212	1	2	0.020215	-61.8725	63.1404	30.1988
 213	1	2	-0.058677	-61.6107	64.4999	29.9486
 214	1	1	0.147375	-60.596	64.8818	30.0431
 215	1	2	-0.40884	-62.6591	65.3806	29.6206
 216	1	1	0.20403	-62.4348	66.4352	29.4767
 217	1	2	0.301824	-63.9959	64.9312	29.5357
 218	1	2	-0.079086	-58.7934	61.2422	30.9192
 219	1	2	-0.121043	-57.454	60.8297	30.8334
 220	1	1	0.148865	-56.8183	61.1581	30.0163
 221	1	2	0.229196	-56.9432	60.0094	31.8601
 222	1	3	-0.312503	-55.6091	59.6756	31.8484
 223	1	1	0.177824	-59.7475	59.792	33.8598
 224	1	2	-0.142744	-59.1089	60.0525	33.0167
 225	1	2	-0.093344	-59.5961	60.8593	31.9775
 226	1	1	0.162888	-56.9245	57.3083	31.7256
 227	1	1	0.147794	-55.9256	55.1662	31.0957
 228	1	2	-0.172056	-55.8658	57.2684	31.4911
 229	1	2	-0.198933	-55.2813	56.0384	31.1294
 230	1	2	0.236899	-55.0892	58.4387	31.5311
 231	1	2	0.029337	-53.9082	55.9494	30.7864
 232	1	4	0.180684	-53.2533	54.6434	30.2546
 233	1	2	-0.223565	-53.7247	58.3603	31.2219
 234	1	2	-0.141841	-53.1432	57.1359	30.8433
 235	1	1	0.17153	-53.1254	59.2654	31.2512
 236	1	1	0.139148	-52.0894	57.1109	30.5766
 237	1	2	-0.185386	-57.7615	59.6341	32.9507
 238	1	1	0.155741	-57.3352	59.0422	33.7558
 239	1	4	-0.198622	-52.9185	54.9055	28.7588
 240	1	4	-0.188008	-54.2288	53.4346	30.2979
 241	1	5	0.060726	-53.7904	55.3203	28.2361
 242	1	5	0.058265	-52.6329	53.9895	28.229
 243	1	5	0.044015	-52.0955	55.6238	28.6562
 244	1	5	0.049647	-55.1187	53.6127	29.6811
 245	1	5	0.045128	-54.5502	53.2284	31.3269
 246	1	5	0.061555	-53.7502	52.5242	29.9161
 247	1	1	0.151962	-52.3676	55.4165	32.8162
 248	1	2	-0.211106	-51.7023	54.702	32.3384
 249	1	2	-0.169243	-50.5767	54.2439	33.0535
 250	1	1	0.166678	-50.3797	54.6132	34.0556
 251	1	2	0.259195	-49.7143	53.2818	32.5052
 252	1	2	-0.207473	-49.9935	52.7744	31.2258
 253	1	1	0.171716	-49.3696	51.9942	30.8027
 254	1	2	-0.169975	-51.1051	53.2461	30.5016
 255	1	1	0.141932	-51.3032	52.8123	29.5266
 256	1	2	0.050656	-51.9807	54.2212	31.0382
 257	1	6	0.518059	-60.9251	61.5079	31.8057
 258	1	6	0.507614	-59.5853	62.1564	30.0471
 259	1	7	-0.122906	-60.8327	62.2735	30.6495
 260	1	8	-0.496938	-61.8751	61.4051	32.5622
 261	1	8	-0.484992	-59.184	62.7214	29.0448
 262	1	2	-0.048962	-46.0021	50.2927	33.3528
 263	1	6	0.0776	-45.2758	49.1976	34.0547
 264	1	8	-0.391129	-45.6201	48.6815	35.1054
 265	1	2	0.038503	-45.3038	50.6051	32.2034
 266	1	6	0.061082	-44.1059	49.7285	32.124
 267	1	7	0.459351	-44.1432	48.9276	33.2734
 268	1	8	-0.403808	-43.2539	49.7787	31.251
 269	1	2	-0.02278	-47.1527	51.007	33.7233
 270	1	2	-0.06542	-45.7093	51.6488	31.3604
 271	1	2	0.157218	-47.5926	52.0556	32.8855
 272	1	1	0.144625	-47.6782	50.7753	34.6448
 273	1	2	-0.259423	-46.8629	52.3831	31.7171
 274	1	3	-0.32062	-48.6773	52.8091	33.2878
 275	1	1	0.165981	-45.1247	51.8961	30.4764
 276	1	1	0.168674	-47.1756	53.2255	31.1061
 277	1	1	0.207625	-42.6671	47.3461	31.6202
 278	1	2	-0.428502	-42.3835	47.2684	32.6672
 279	1	2	-0.035773	-41.2668	46.4788	33.0057
 280	1	1	0.142536	-40.7218	45.9743	32.2111
 281	1	2	0.020215	-40.826	46.3759	34.3413
 282	1	2	-0.058677	-41.5657	47.059	35.3289
 283	1	1	0.147375	-41.2622	47.0007	36.372
 284	1	2	-0.40884	-42.6686	47.866	34.9821
 285	1	1	0.20403	-43.1841	48.4095	35.7706
 286	1	2	0.301824	-43.0909	48.0093	33.6408
 287	1	2	-0.079086	-37.7845	44.2593	34.541
 288	1	2	-0.121043	-36.8194	43.3137	34.1508
 289	1	1	0.148865	-37.0349	42.5921	33.3681
 290	1	2	0.229196	-35.5446	43.3524	34.7584
 291	1	3	-0.312503	-34.5764	42.4826	34.2857
 292	1	1	0.177824	-36.0371	46.0572	36.8517
 293	1	2	-0.142744	-36.2494	45.2767	36.1223
 294	1	2	-0.093344	-37.5037	45.2142	35.4961
 295	1	1	0.162888	-32.3703	41.8409	33.0523
 296	1	1	0.147794	-30.3056	40.9135	34.065
 297	1	2	-0.172056	-32.31	41.7084	34.1286
 298	1	2	-0.198933	-31.1375	41.1797	34.7117
 299	1	2	0.236899	-33.4232	42.0494	34.9154
 300	1	2	0.029337	-31.0531	40.9785	36.1081
 301	1	4	0.180684	-29.8045	40.3633	36.799
 302	1	2	-0.223565	-33.3573	41.8429	36.3015
 303	1	2	-0.141841	-32.1832	41.3315	36.8871
 304	1	1	0.17153	-34.2228	42.054	36.9216
 305	1	1	0.139148	-32.1684	41.1867	37.963
 306	1	2	-0.185386	-35.264	44.3392	35.7366
 307	1	1	0.155741	-34.2699	44.4055	36.1675
 308	1	4	-0.198622	-30.2618	39.1068	37.5987
 309	1	4	-0.188008	-29.2713	41.3704	37.8591
 310	1	5	0.060726	-30.9413	39.3632	38.4194
 311	1	5	0.058265	-29.4031	38.5897	38.0461
 312	1	5	0.044015	-30.7965	38.4006	36.9508
 313	1	5	0.049647	-29.0998	42.3614	37.4223
 314	1	5	0.045128	-28.3256	41.0181	38.2913
 315	1	5	0.061555	-29.9787	41.5057	38.686
 316	1	1	0.151962	-29.0086	37.8392	35.7696
 317	1	2	-0.211106	-28.352	38.6483	35.4679
 318	1	2	-0.169243	-27.2007	38.3098	34.729
 319	1	1	0.166678	-27.0005	37.2739	34.4727
 320	1	2	0.259195	-26.3033	39.3039	34.3167
 321	1	2	-0.207473	-26.5956	40.6443	34.6063
 322	1	1	0.171716	-25.9159	41.4178	34.2605
 323	1	2	-0.169975	-27.7416	40.9843	35.3556
 324	1	1	0.141932	-27.921	42.0317	35.5799
 325	1	2	0.050656	-28.6324	39.9912	35.8329
 326	1	6	0.518059	-38.68	46.1238	35.6004
 327	1	6	0.507614	-39.1567	44.5257	34.0167
 328	1	7	-0.122906	-39.6138	45.6724	34.6678
 329	1	8	-0.496938	-38.7445	47.1082	36.3166
 330	1	8	-0.484992	-39.7195	43.8806	33.1491
 331	1	2	-0.048962	-22.8875	36.1803	33.0048
 332	1	6	0.0776	-22.1877	35.2549	32.0739
 333	1	8	-0.391129	-22.3988	35.1784	30.8746
 334	1	2	0.038503	-22.4157	35.9472	34.281
 335	1	6	0.061082	-21.3764	34.8817	34.2132
 336	1	7	0.459351	-21.2849	34.5224	32.86
 337	1	8	-0.403808	-20.7234	34.473	35.1604
 338	1	2	-0.02278	-23.833	37.1851	32.7438
 339	1	2	-0.06542	-22.8824	36.6893	35.3761
 340	1	2	0.157218	-24.3196	37.9475	33.8273
 341	1	1	0.144625	-24.1671	37.3847	31.7302
 342	1	2	-0.259423	-23.8475	37.6964	35.1382
 343	1	3	-0.32062	-25.1837	38.9939	33.5731
 344	1	1	0.165981	-22.4878	36.5012	36.3728
 345	1	1	0.168674	-24.2033	38.3089	35.9623
 346	1	1	0.207625	-20.0476	34.5486	30.4294
 347	1	2	-0.428502	-19.7772	33.6971	31.0488
 348	1	2	-0.035773	-18.8548	32.7641	30.5352
 349	1	1	0.142536	-18.4359	32.9135	29.5421
 350	1	2	0.020215	-18.4622	31.6477	31.295
 351	1	2	-0.058677	-19.0244	31.4812	32.5746
 352	1	1	0.147375	-18.7354	30.6256	33.182
 353	1	2	-0.40884	-19.9539	32.4138	33.0808
 354	1	1	0.20403	-20.3574	32.2546	34.0779
 355	1	2	0.301824	-20.3516	33.5491	32.334
 356	1	2	-0.079086	-15.5961	29.8005	29.8603
 357	1	2	-0.121043	-14.3294	29.5663	29.2938
 358	1	1	0.148865	-13.6644	30.3903	29.0514
 359	1	2	0.229196	-13.9372	28.2303	29.0602
 360	1	3	-0.312503	-12.6983	27.9641	28.5113
 361	1	1	0.177824	-16.778	26.6134	30.1726
 362	1	2	-0.142744	-16.0904	27.4227	29.9313
 363	1	2	-0.093344	-16.4476	28.7581	30.1754
 364	1	1	0.162888	-12.4017	27.5297	31.1327
 365	1	1	0.147794	-10.6723	26.1394	32.173
 366	1	2	-0.172056	-11.6718	27.0295	30.5035
 367	1	2	-0.198933	-10.6661	26.2426	31.0928
 368	1	2	0.236899	-11.7334	27.1747	29.1098
 369	1	2	0.029337	-9.68293	25.582	30.3146
 370	1	4	0.180684	-8.62989	24.675	31.0154
 371	1	2	-0.223565	-10.77	26.5253	28.319
 372	1	2	-0.141841	-9.76381	25.7271	28.91
 373	1	1	0.17153	-10.8145	26.6373	27.2397
 374	1	1	0.139148	-9.05317	25.2162	28.2656
 375	1	2	-0.185386	-14.8199	27.1683	29.3673
 376	1	1	0.155741	-14.5127	26.147	29.1597
 377	1	4	-0.198622	-9.40759	23.4499	31.5752
 378	1	4	-0.188008	-8.01963	25.4186	32.2376
 379	1	5	0.060726	-8.76266	22.8101	32.1904
 380	1	5	0.058265	-9.82675	22.8474	30.7591
 381	1	5	0.044015	-10.2445	23.762	32.2122
 382	1	5	0.049647	-7.62162	26.3983	31.9449
 383	1	5	0.045128	-7.19583	24.8382	32.6726
 384	1	5	0.061555	-8.75191	25.5805	33.0367
 385	1	1	0.151962	-7.60084	22.0857	30.4193
 386	1	2	-0.211106	-7.01264	22.8915	29.9933
 387	1	2	-0.169243	-5.82421	22.5414	29.3189
 388	1	1	0.166678	-5.5392	21.4986	29.2174
 389	1	2	0.259195	-5.0014	23.5298	28.7623
 390	1	2	-0.207473	-5.39892	24.8728	28.8582
 391	1	1	0.171716	-4.7793	25.6384	28.4013
 392	1	2	-0.169975	-6.582	25.2272	29.5447
 393	1	1	0.141932	-6.84768	26.278	29.6339
 394	1	2	0.050656	-7.41625	24.2457	30.131
 395	1	6	0.518059	-17.6876	29.3356	30.7724
 396	1	6	0.507614	-16.2754	31.074	30.2405
 397	1	7	-0.122906	-17.5063	30.7141	30.7818
 398	1	8	-0.496938	-18.6455	28.7054	31.1854
 399	1	8	-0.484992	-15.8218	32.1967	30.1044
 400	1	2	-0.048962	-0.694279	21.3439	28.2039
 401	1	6	0.0776	0.282068	20.3822	27.6143
 402	1	8	-0.391129	0.152336	19.7873	26.5575
 403	1	2	0.038503	-0.196351	21.7663	29.4221
 404	1	6	0.061082	1.12538	21.1102	29.6468
 405	1	7	0.459351	1.327	20.2834	28.5387
 406	1	8	-0.403808	1.83991	21.2455	30.6268
 407	1	2	-0.02278	-1.93648	21.7964	27.7245
 408	1	2	-0.06542	-0.925388	22.6445	30.2389
 409	1	2	0.157218	-2.69272	22.6822	28.5268
 410	1	1	0.144625	-2.30843	21.4706	26.7577
 411	1	2	-0.259423	-2.18593	23.0996	29.7813
 412	1	3	-0.32062	-3.88388	23.1804	28.0277
 413	1	1	0.165981	-0.520534	22.9604	31.1983
 414	1	1	0.168674	-2.76115	23.7923	30.3894
 415	1	1	0.207625	1.13812	17.6059	28.4147
 416	1	2	-0.428502	2.16477	17.962	28.3887
 417	1	2	-0.035773	3.21427	17.0233	28.325
 418	1	1	0.142536	2.96604	15.9649	28.3244
 419	1	2	0.020215	4.56431	17.4334	28.272
 420	1	2	-0.058677	4.82082	18.8238	28.291
 421	1	1	0.147375	5.8465	19.1856	28.2593
 422	1	2	-0.40884	3.76623	19.7626	28.3734
 423	1	1	0.20403	4.00186	20.8231	28.42
 424	1	2	0.301824	2.41617	19.3492	28.4225
 425	1	2	-0.079086	6.81903	14.4865	27.9227
 426	1	2	-0.121043	7.21932	13.1664	27.6361
 427	1	1	0.148865	6.56786	12.4991	27.0793
 428	1	2	0.229196	8.46039	12.7065	28.1338
 429	1	3	-0.312503	8.78542	11.3671	27.9837
 430	1	1	0.177824	9.43985	15.5616	29.8173
 431	1	2	-0.142744	8.84397	14.8979	29.1923
 432	1	2	-0.093344	7.60683	15.3261	28.6823
 433	1	1	0.162888	11.1476	12.5674	27.3399
 434	1	1	0.147794	12.9617	11.5443	26.1015
 435	1	2	-0.172056	11.0602	11.5243	27.0605
 436	1	2	-0.198933	12.1069	10.9192	26.3353
 437	1	2	0.236899	9.89285	10.8063	27.3633
 438	1	2	0.029337	12.0073	9.59058	25.8384
 439	1	4	0.180684	12.9333	9.06512	24.6872
 440	1	2	-0.223565	9.82957	9.45451	26.9857
 441	1	2	-0.141841	10.8616	8.85732	26.2283
 442	1	1	0.17153	8.93514	8.88733	27.2258
 443	1	1	0.139148	10.7284	7.83749	25.8767
 444	1	2	-0.185386	9.25824	13.5718	28.921
 445	1	1	0.155741	10.1775	13.1955	29.3595
 446	1	4	-0.198622	13.8853	10.2042	24.2009
 447	1	4	-0.188008	11.9945	8.75727	23.4847
 448	1	5	0.060726	13.3217	11.1143	23.9587
 449	1	5	0.058265	14.4279	9.95079	23.2853
 450	1	5	0.044015	14.632	10.445	24.9681
 451	1	5	0.049647	11.3168	9.59846	23.2895
 452	1	5	0.045128	11.3809	7.86799	23.6757
 453	1	5	0.061555	12.5566	8.5666	22.5627
 454	1	1	0.151962	14.7601	7.90378	23.0011
 455	1	2	-0.211106	14.6504	7.33637	23.9184
 456	1	2	-0.169243	15.3501	6.12554	24.0058
 457	1	1	0.166678	15.9729	5.79567	23.1793
 458	1	2	0.259195	15.2028	5.28993	25.1138
 459	1	2	-0.207473	14.3536	5.69876	26.1616
 460	1	1	0.171716	14.1945	5.03367	27.0047
 461	1	2	-0.169975	13.6573	6.93661	26.0829
 462	1	1	0.141932	12.9879	7.21563	26.8915
 463	1	2	0.050656	13.7763	7.77425	24.9436
 464	1	6	0.518059	6.85991	16.6055	28.885
 465	1	6	0.507614	5.55205	15.2131	27.6091
 466	1	7	-0.122906	5.63203	16.4599	28.2367
 467	1	8	-0.496938	7.25487	17.553	29.5422
 468	1	8	-0.484992	4.63109	14.7613	26.9512
 469	1	2	-0.048962	16.8732	0.83267	26.34
 470	1	6	0.0776	17.0314	-0.634795	26.1682
 471	1	8	-0.391129	16.6644	-1.27805	25.1986
 472	1	2	0.038503	17.3917	1.19095	27.5679
 473	1	6	0.061082	17.8961	-0.0448545	28.2373
 474	1	7	0.459351	17.6325	-1.09291	27.3452
 475	1	8	-0.403808	18.4019	-0.101668	29.3466
 476	1	2	-0.02278	16.2998	1.78054	25.4833
 477	1	2	-0.06542	17.3752	2.52878	27.9983
 478	1	2	0.157218	16.2479	3.12765	25.8988
 479	1	1	0.144625	15.9109	1.48443	24.5135
 480	1	2	-0.259423	16.7998	3.5053	27.1459
 481	1	3	-0.32062	15.7623	4.03366	24.9817
 482	1	1	0.165981	17.8065	2.79675	28.9607
 483	1	1	0.168674	16.8053	4.55168	27.437
 484	1	1	0.207625	17.1357	-2.42476	29.6601
 485	1	2	-0.428502	17.5134	-3.06282	28.8642
 486	1	2	-0.035773	17.6269	-4.45048	29.0939
 487	1	1	0.142536	17.3289	-4.85592	30.0586
 488	1	2	0.020215	18.0933	-5.31623	28.083
 489	1	2	-0.058677	18.4851	-4.74672	26.855
 490	1	1	0.147375	18.8497	-5.38651	26.0538
 491	1	2	-0.40884	18.3724	-3.35984	26.6311
 492	1	1	0.20403	18.6389	-2.96384	25.6537
 493	1	2	0.301824	17.8622	-2.48952	27.6205
 494	1	2	-0.079086	17.906	-9.01687	27.9394
 495	1	2	-0.121043	17.6314	-10.3005	27.4336
 496	1	1	0.148865	17.207	-10.4302	26.4419
 497	1	2	0.229196	17.9091	-11.4173	28.2506
 498	1	3	-0.312503	17.577	-12.6813	27.8064
 499	1	1	0.177824	19.0851	-9.76979	31.0501
 500	1	2	-0.142744	18.6904	-9.92962	30.0475
 501	1	2	-0.093344	18.414	-8.83603	29.2107
 502	1	1	0.162888	20.0905	-12.7737	26.9903
 503	1	1	0.147794	21.5978	-14.7092	27.1621
 504	1	2	-0.172056	19.7275	-13.7009	27.4233
 505	1	2	-0.198933	20.5761	-14.8188	27.5103
 506	1	2	0.236899	18.411	-13.7745	27.896
 507	1	2	0.029337	20.1288	-16.0428	28.0651
 508	1	4	0.180684	21.1205	-17.2132	28.2836
 509	1	2	-0.223565	17.9416	-14.9854	28.4312
 510	1	2	-0.141841	18.7951	-16.105	28.5272
 511	1	1	0.17153	16.9171	-15.0541	28.7835
 512	1	1	0.139148	18.4175	-17.0176	28.9795
 513	1	2	-0.185386	18.4343	-11.2293	29.5513
 514	1	1	0.155741	18.6208	-12.0963	30.1791
 515	1	4	-0.198622	21.9373	-16.8548	29.5555
 516	1	4	-0.188008	22.1495	-17.3119	27.1179
 517	1	5	0.060726	22.4422	-15.8874	29.4387
 518	1	5	0.058265	22.7121	-17.605	29.7594
 519	1	5	0.044015	21.2838	-16.7754	30.4337
 520	1	5	0.049647	21.6489	-17.3199	26.1417
 521	1	5	0.045128	22.738	-18.2355	27.1993
 522	1	5	0.061555	22.8645	-16.4811	27.1209
 523	1	1	0.151962	21.054	-19.0669	30.4378
 524	1	2	-0.211106	20.5951	-19.4419	29.5292
 525	1	2	-0.169243	20.2415	-20.8046	29.4938
 526	1	1	0.166678	20.4409	-21.4284	30.3592
 527	1	2	0.259195	19.7127	-21.3751	28.3229
 528	1	2	-0.207473	19.4731	-20.5454	27.2183
 529	1	1	0.171716	19.0631	-20.9856	26.3134
 530	1	2	-0.169975	19.8288	-19.1812	27.2503
 531	1	1	0.141932	19.6922	-18.5811	26.3541
 532	1	2	0.050656	20.4504	-18.6151	28.3871
 533	1	6	0.518059	18.5614	-7.36753	29.4453
 534	1	6	0.507614	17.7236	-7.67017	27.3247
 535	1	7	-0.122906	18.1341	-6.73902	28.2781
 536	1	8	-0.496938	18.9506	-6.84734	30.4765
 537	1	8	-0.484992	17.2868	-7.45692	26.2076
 538	1	2	-0.048962	20.4571	-25.7424	30.088
 539	1	6	0.0776	21.2123	-27.0229	30.2337
 540	1	8	-0.391129	22.0201	-27.4804	29.442
 541	1	2	0.038503	19.6584	-25.5874	31.2072
 542	1	6	0.061082	19.864	-26.7469	32.1047
 543	1	7	0.459351	20.7873	-27.565	31.4508
 544	1	8	-0.403808	19.3289	-26.9131	33.1898
 545	1	2	-0.02278	20.4403	-24.7935	29.0507
 546	1	2	-0.06542	18.7992	-24.4938	31.3593
 547	1	2	0.157218	19.5893	-23.6723	29.1877
 548	1	1	0.144625	21.0559	-24.9226	28.1655
 549	1	2	-0.259423	18.7671	-23.5365	30.3265
 550	1	3	-0.32062	19.511	-22.7357	28.1804
 551	1	1	0.165981	18.1654	-24.405	32.2398
 552	1	1	0.168674	18.0895	-22.6934	30.3926
 553	1	1	0.207625	23.3513	-28.4614	31.7443
 554	1	2	-0.428502	22.5973	-29.1203	32.1692
 555	1	2	-0.035773	23.0039	-30.2351	32.9323
 556	1	1	0.142536	24.0661	-30.4145	33.085
 557	1	2	0.020215	22.0512	-31.0593	33.5701
 558	1	2	-0.058677	20.6867	-30.8	33.3376
 559	1	1	0.147375	19.9203	-31.4065	33.8143
 560	1	2	-0.40884	20.2867	-29.7009	32.5626
 561	1	1	0.20403	19.2246	-29.4876	32.4672
 562	1	2	0.301824	21.2295	-28.8074	32.0152
 563	1	2	-0.079086	23.3149	-32.9228	36.4868
 564	1	2	-0.121043	24.0213	-33.1553	37.6771
 565	1	1	0.148865	24.8405	-32.5094	37.9796
 566	1	2	0.229196	23.6403	-34.2604	38.4636
 567	1	3	-0.312503	24.3478	-34.5756	39.5962
 568	1	1	0.177824	21.0467	-35.4741	36.5412
 569	1	2	-0.142744	21.8758	-34.8444	36.8613
 570	1	2	-0.093344	22.2807	-33.7463	36.0876
 571	1	1	0.162888	22.3655	-32.9395	40.4404
 572	1	1	0.147794	22.2605	-31.8816	42.6687
 573	1	2	-0.172056	23.1804	-33.0878	41.1425
 574	1	2	-0.198933	23.1282	-32.4837	42.4148
 575	1	2	0.236899	24.2688	-33.9053	40.7952
 576	1	2	0.029337	24.1683	-32.664	43.3578
 577	1	4	0.180684	24.0701	-32.0126	44.7637
 578	1	2	-0.223565	25.2968	-34.1067	41.7229
 579	1	2	-0.141841	25.2558	-33.4898	42.9852
 580	1	1	0.17153	26.1275	-34.7528	41.4557
 581	1	1	0.139148	26.0743	-33.6833	43.6703
 582	1	2	-0.185386	22.5774	-35.0983	38.0599
 583	1	1	0.155741	22.3074	-35.9475	38.6812
 584	1	4	-0.198622	23.7181	-30.5049	44.5922
 585	1	4	-0.188008	25.4195	-32.039	45.5346
 586	1	5	0.060726	24.4019	-30.0281	43.8781
 587	1	5	0.058265	23.8075	-29.9591	45.5403
 588	1	5	0.044015	22.6954	-30.3602	44.2249
 589	1	5	0.049647	25.7282	-33.0636	45.7756
 590	1	5	0.045128	25.3341	-31.5028	46.4887
 591	1	5	0.061555	26.2188	-31.5614	44.9534
 592	1	1	0.151962	22.0438	-31.0469	46.4897
 593	1	2	-0.211106	22.0946	-32.1302	46.4468
 594	1	2	-0.169243	21.1979	-32.87	47.2397
 595	1	1	0.166678	20.4664	-32.3631	47.8621
 596	1	2	0.259195	21.2399	-34.2698	47.2443
 597	1	2	-0.207473	22.1742	-34.9368	46.4381
 598	1	1	0.171716	22.1978	-36.0222	46.4251
 599	1	2	-0.169975	23.0649	-34.1987	45.6363
 600	1	1	0.141932	23.7834	-34.7351	45.0226
 601	1	2	0.050656	23.0391	-32.7844	45.621
 602	1	6	0.518059	21.7255	-33.2059	34.8162
 603	1	6	0.507614	23.4391	-31.8244	35.4917
 604	1	7	-0.122906	22.4341	-32.0352	34.5488
 605	1	8	-0.496938	20.7878	-33.6806	34.1986
 606	1	8	-0.484992	24.214	-30.8869	35.5718
 607	1	2	-0.048962	21.6098	-37.3912	50.4353
 608	1	6	0.0776	22.3799	-37.7153	51.6654
 609	1	8	-0.391129	23.1219	-36.9559	52.2666
 610	1	2	0.038503	20.8783	-38.5091	50.0759
 611	1	6	0.061082	21.1478	-39.5887	51.0579
 612	1	7	0.459351	22.0282	-39.0296	51.9866
 613	1	8	-0.403808	20.6515	-40.7041	51.0507
 614	1	2	-0.02278	21.4869	-36.1812	49.7365
 615	1	2	-0.06542	19.9907	-38.4912	48.9935
 616	1	2	0.157218	20.5857	-36.1376	48.6512
 617	1	1	0.144625	22.0275	-35.2948	50.0547
 618	1	2	-0.259423	19.8457	-37.2815	48.282
 619	1	3	-0.32062	20.3259	-34.954	48.0074
 620	1	1	0.165981	19.4074	-39.3757	48.7454
 621	1	1	0.168674	19.1359	-37.2128	47.4624
 622	1	1	0.207625	20.4871	-40.459	53.6759
 623	1	2	-0.428502	21.5335	-40.4178	53.9694
 624	1	2	-0.035773	21.9403	-41.094	55.1319
 625	1	1	0.142536	21.2034	-41.6375	55.72
 626	1	2	0.020215	23.2879	-41.0737	55.5354
 627	1	2	-0.058677	24.2184	-40.3618	54.7532
 628	1	1	0.147375	25.2652	-40.3307	55.0488
 629	1	2	-0.40884	23.8075	-39.6896	53.5866
 630	1	1	0.20403	24.5431	-39.1407	53.0034
 631	1	2	0.301824	22.4586	-39.71	53.1723
 632	1	2	-0.079086	24.8794	-43.0752	58.1866
 633	1	2	-0.121043	25.821	-43.8974	58.818
 634	1	1	0.148865	26.6938	-44.2481	58.2745
 635	1	2	0.229196	25.6033	-44.2362	60.1723
 636	1	3	-0.312503	26.4973	-45.0181	60.8653
 637	1	1	0.177824	22.6509	-42.5354	60.7161
 638	1	2	-0.142744	23.5293	-42.9215	60.2008
 639	1	2	-0.093344	23.769	-42.6002	58.8569
 640	1	1	0.162888	29.0948	-44.6739	60.6957
 641	1	1	0.147794	30.6707	-46.1223	59.4616
 642	1	2	-0.172056	28.7322	-45.5615	60.1859
 643	1	2	-0.198933	29.6193	-46.3902	59.4748
 644	1	2	0.236899	27.3664	-45.8661	60.2306
 645	1	2	0.029337	29.1484	-47.545	58.8045
 646	1	4	0.180684	30.0846	-48.5205	58.056
 647	1	2	-0.223565	26.8841	-47.0111	59.5861
 648	1	2	-0.141841	27.7707	-47.8495	58.8908
 649	1	1	0.17153	25.8251	-47.2493	59.6341
 650	1	1	0.139148	27.3798	-48.7496	58.4247
 651	1	2	-0.185386	24.4673	-43.749	60.8554
 652	1	1	0.155741	24.3231	-44.0195	61.8976