pySIMM System Object

2417 atoms
2661 bonds
4480 angles
6926 dihedrals
840 impropers

9 atom types
11 bond types
18 angle types
9 dihedral types
4 improper types

-203.012898 203.012898 xlo xhi
-203.012898 203.012898 ylo yhi
-203.012898 203.012898 zlo zhi

Masses

   1	1.008	# ha
   2	12.01	# ca
   3	16.0	# os
   4	12.01	# c3
   5	1.008	# hc
   6	12.01	# c
   7	14.01	# n
   8	16.0	# o
   9	1.008	# hn

Pair Coeffs

   1	0.015	2.59964245953351	# ha
   2	0.086	3.3996695084235347	# ca
   3	0.17	3.0000123434657784	# os
   4	0.1094	3.3996695084235347	# c3
   5	0.0157	2.649532787749369	# hc
   6	0.086	3.3996695084235347	# c
   7	0.17	3.249998523775958	# n
   8	0.21	2.959921901149463	# o
   9	0.0157	1.069078461768407	# hn

Bond Coeffs

   1	461.1	1.3984	# ca,ca
   2	427.6	1.3789	# c,n
   3	345.9	1.4906	# c,ca
   4	300.9	1.5375	# c3,c3
   5	345.8	1.086	# ca,ha
   6	384.2	1.4121	# ca,n
   7	321.0	1.5156	# c3,ca
   8	330.6	1.0969	# c3,hc
   9	637.7	1.2183	# c,o
  10	376.6	1.3696	# ca,os
  11	403.2	1.0129	# hn,n

Angle Coeffs

   1	46.34	109.8	# c3,c3,hc
   2	74.22	123.05	# n,c,o
   3	48.33	117.55	# c,n,hn
   4	63.56	112.24	# ca,c3,ca
   5	63.48	119.89	# ca,os,ca
   6	62.86	111.51	# c3,c3,c3
   7	66.62	120.02	# ca,ca,ca
   8	64.28	120.33	# c,ca,ca
   9	63.15	112.07	# c3,c3,ca
  10	39.4	107.58	# hc,c3,hc
  11	48.18	119.88	# ca,ca,ha
  12	63.53	120.77	# c3,ca,ca
  13	63.74	127.08	# c,n,c
  14	67.68	115.25	# ca,c,n
  15	63.82	123.71	# c,n,ca
  16	68.72	122.6	# ca,c,o
  17	67.87	120.19	# ca,ca,n
  18	69.58	119.2	# ca,ca,os

Dihedral Coeffs

   1	1	3.625	2	180	# X,ca,ca,X
   2	1	1.0	2	180	# X,c,ca,X
   3	1	0.0	2	0	# X,c3,ca,X
   4	1	0.15555555555555556	3	0	# X,c3,c3,X
   5	1	0.9	2	180	# X,ca,os,X
   6	1	2.5	2	180	# X,c,n,X
   7	1	0.45	2	180	# X,ca,n,X
   8	1	0.16	3	0	# hc,c3,c3,c3
   9	2	2.5	2	180	2.0	1	0	# hn,n,c,o

Improper Coeffs

   1	1.1	-1	2	# n,X,X,hn
   2	1.1	-1	2	# ca,ca,ca,c3
   3	10.5	-1	2	# c,X,X,o
   4	1.1	-1	2	# ca,X,X,ha

Atoms

   1	1	1	0.207625	-30.3632	141.042	66.3721
   2	1	2	-0.428502	-30.1372	141.084	67.4329
   3	1	2	-0.035773	-29.7389	139.922	68.1183
   4	1	1	0.142536	-29.6584	138.982	67.5779
   5	1	2	0.020215	-29.4451	139.972	69.4961
   6	1	2	-0.058677	-29.5608	141.202	70.1745
   7	1	1	0.147375	-29.3337	141.261	71.2369
   8	1	2	-0.40884	-29.9613	142.36	69.4832
   9	1	1	0.20403	-30.0444	143.307	70.0071
  10	1	2	0.301824	-30.2485	142.305	68.1126
  11	1	2	-0.079086	-28.8511	136.622	70.9075
  12	1	2	-0.121043	-29.0015	135.245	71.1219
  13	1	1	0.148865	-29.7835	134.681	70.6235
  14	1	2	0.229196	-28.0953	134.611	71.9915
  15	1	3	-0.312503	-28.2191	133.259	72.1999
  16	1	1	0.177824	-26.1715	137.327	72.9036
  17	1	2	-0.142744	-26.9491	136.741	72.4164
  18	1	2	-0.093344	-27.8545	137.347	71.5338
  19	1	1	0.162888	-27.9757	131.323	73.9323
  20	1	1	0.147794	-26.0505	129.797	74.1612
  21	1	2	-0.172056	-27.1296	131.413	73.2574
  22	1	2	-0.198933	-26.0283	130.547	73.3765
  23	1	2	0.236899	-27.1405	132.413	72.2786
  24	1	2	0.029337	-24.9224	130.66	72.5006
  25	1	4	0.180684	-23.6774	129.749	72.5996
  26	1	2	-0.223565	-26.0574	132.533	71.3943
  27	1	2	-0.141841	-24.9582	131.664	71.5069
  28	1	1	0.17153	-26.0712	133.297	70.6228
  29	1	1	0.139148	-24.1253	131.771	70.8158
  30	1	2	-0.185386	-27.0814	135.354	72.6423
  31	1	1	0.155741	-26.3997	134.851	73.3227
  32	1	4	-0.198622	-23.8458	128.593	73.6212
  33	1	4	-0.188008	-22.5082	130.636	73.1106
  34	1	5	0.060726	-22.9572	127.949	73.6256
  35	1	5	0.058265	-24.7077	127.962	73.3681
  36	1	5	0.044015	-23.9814	128.974	74.6416
  37	1	5	0.049647	-22.2362	131.403	72.3744
  38	1	5	0.045128	-21.614	130.041	73.3331
  39	1	5	0.061555	-22.7946	131.153	74.0357
  40	1	1	0.151962	-21.2398	129.441	71.1917
  41	1	2	-0.211106	-22.0968	129.029	70.6681
  42	1	2	-0.169243	-21.8823	128.414	69.4214
  43	1	1	0.166678	-20.8843	128.364	68.9962
  44	1	2	0.259195	-22.9507	127.848	68.7154
  45	1	2	-0.207473	-24.247	127.915	69.2502
  46	1	1	0.171716	-25.0832	127.498	68.6968
  47	1	2	-0.169975	-24.464	128.531	70.4961
  48	1	1	0.141932	-25.474	128.568	70.8979
  49	1	2	0.050656	-23.3959	129.104	71.2233
  50	1	6	0.518059	-27.9602	138.76	71.0825
  51	1	6	0.507614	-29.6208	137.55	70.0375
  52	1	7	-0.122906	-29.0262	138.798	70.19
  53	1	8	-0.496938	-27.2362	139.678	71.43
  54	1	8	-0.484992	-30.5638	137.248	69.3265
  55	1	2	-0.048962	-24.3009	123.958	67.2851
  56	1	6	0.0776	-24.7035	122.665	67.8941
  57	1	8	-0.391129	-24.5206	122.332	69.0536
  58	1	2	0.038503	-24.6828	123.951	65.9558
  59	1	6	0.061082	-25.3505	122.658	65.6625
  60	1	7	0.459351	-25.3168	121.947	66.8641
  61	1	8	-0.403808	-25.8027	122.312	64.5827
  62	1	2	-0.02278	-23.6345	125.053	67.8506
  63	1	2	-0.06542	-24.4136	125.032	65.1086
  64	1	2	0.157218	-23.3667	126.162	67.0178
  65	1	1	0.144625	-23.3288	125.04	68.8927
  66	1	2	-0.259423	-23.7425	126.146	65.6573
  67	1	3	-0.32062	-22.7037	127.266	67.4948
  68	1	1	0.165981	-24.7107	125.0	64.0623
  69	1	1	0.168674	-23.508	127.003	65.033
  70	1	1	0.207625	-24.1005	119.857	68.0726
  71	1	2	-0.428502	-25.0753	119.616	67.655
  72	1	2	-0.035773	-25.5599	118.301	67.7631
  73	1	1	0.142536	-24.9515	117.543	68.2525
  74	1	2	0.020215	-26.8159	117.957	67.2294
  75	1	2	-0.058677	-27.5841	118.953	66.6001
  76	1	1	0.147375	-28.5576	118.705	66.1814
  77	1	2	-0.40884	-27.0954	120.268	66.4936
  78	1	1	0.20403	-27.6953	121.016	65.98
  79	1	2	0.301824	-25.8305	120.619	67.0112
  80	1	2	-0.079086	-27.4029	114.324	67.1855
  81	1	2	-0.121043	-27.1428	112.957	67.014
  82	1	1	0.148865	-26.1697	112.607	66.6814
  83	1	2	0.229196	-28.1791	112.049	67.299
  84	1	3	-0.312503	-27.9408	110.704	67.1588
  85	1	1	0.177824	-30.6599	114.268	68.2108
  86	1	2	-0.142744	-29.6908	113.893	67.8846
  87	1	2	-0.093344	-28.6379	114.778	67.6094
  88	1	1	0.162888	-27.9238	111.187	69.8018
  89	1	1	0.147794	-28.2565	109.511	71.5607
  90	1	2	-0.172056	-28.0966	110.152	69.5227
  91	1	2	-0.198933	-28.2804	109.184	70.5263
  92	1	2	0.236899	-28.1288	109.785	68.1663
  93	1	2	0.029337	-28.4877	107.825	70.1926
  94	1	4	0.180684	-28.7084	106.723	71.2559
  95	1	2	-0.223565	-28.324	108.442	67.8227
  96	1	2	-0.141841	-28.5052	107.472	68.8249
  97	1	1	0.17153	-28.3359	108.16	66.7741
  98	1	1	0.139148	-28.6591	106.435	68.5365
  99	1	2	-0.185386	-29.4471	112.512	67.7227
 100	1	1	0.155741	-30.2373	111.794	67.9222
 101	1	4	-0.198622	-30.1936	106.278	71.1537
 102	1	4	-0.188008	-28.4934	107.225	72.71
 103	1	5	0.060726	-30.8614	107.145	71.2427
 104	1	5	0.058265	-30.461	105.576	71.9535
 105	1	5	0.044015	-30.4027	105.798	70.1897
 106	1	5	0.049647	-29.2221	108.0	72.9804
 107	1	5	0.045128	-27.4851	107.636	72.8458
 108	1	5	0.061555	-28.6104	106.4	73.4243
 109	1	1	0.151962	-29.132	103.919	71.1611
 110	1	2	-0.211106	-28.0962	104.206	71.0107
 111	1	2	-0.169243	-27.1437	103.187	70.8221
 112	1	1	0.166678	-27.4484	102.144	70.8287
 113	1	2	0.259195	-25.7892	103.507	70.643
 114	1	2	-0.207473	-25.3875	104.848	70.6642
 115	1	1	0.171716	-24.3361	105.089	70.5381
 116	1	2	-0.169975	-26.3379	105.869	70.8475
 117	1	1	0.141932	-26.0058	106.904	70.8631
 118	1	2	0.050656	-27.7078	105.567	71.0197
 119	1	6	0.518059	-28.5799	116.264	67.6877
 120	1	6	0.507614	-26.5208	115.504	66.9834
 121	1	7	-0.122906	-27.2914	116.615	67.3031
 122	1	8	-0.496938	-29.4899	117.001	68.0262
 123	1	8	-0.484992	-25.3572	115.475	66.6219
 124	1	2	-0.048962	-24.4425	99.2182	68.9547
 125	1	6	0.0776	-23.9228	97.8264	69.0032
 126	1	8	-0.391129	-23.2944	97.3294	69.9235
 127	1	2	0.038503	-25.0969	99.3953	67.7502
 128	1	6	0.061082	-25.0206	98.1299	66.9788
 129	1	7	0.459351	-24.3086	97.2438	67.7921
 130	1	8	-0.403808	-25.5093	97.935	65.8771
 131	1	2	-0.02278	-24.3469	100.255	69.8934
 132	1	2	-0.06542	-25.6959	100.614	67.4114
 133	1	2	0.157218	-24.951	101.49	69.5812
 134	1	1	0.144625	-23.8233	100.111	70.8339
 135	1	2	-0.259423	-25.6158	101.67	68.3438
 136	1	3	-0.32062	-24.8421	102.524	70.4812
 137	1	1	0.165981	-26.1977	100.732	66.4531
 138	1	1	0.168674	-26.0553	102.634	68.1006
 139	1	1	0.207625	-23.4765	96.3482	65.3812
 140	1	2	-0.428502	-23.608	95.5599	66.1191
 141	1	2	-0.035773	-23.3911	94.2255	65.7353
 142	1	1	0.142536	-23.09	94.0082	64.7125
 143	1	2	0.020215	-23.5793	93.1753	66.6537
 144	1	2	-0.058677	-23.9773	93.4904	67.9671
 145	1	1	0.147375	-24.1317	92.6949	68.6935
 146	1	2	-0.40884	-24.2007	94.8278	68.3449
 147	1	1	0.20403	-24.5163	95.0441	69.3631
 148	1	2	0.301824	-24.0297	95.8858	67.4257
 149	1	2	-0.079086	-22.64	89.9413	65.1584
 150	1	2	-0.121043	-21.962	89.0284	64.3387
 151	1	1	0.148865	-21.0772	89.3245	63.7823
 152	1	2	0.229196	-22.4745	87.7215	64.2352
 153	1	3	-0.312503	-21.8487	86.8462	63.38
 154	1	1	0.177824	-25.2396	88.0336	66.2782
 155	1	2	-0.142744	-24.3214	88.2909	65.752
 156	1	2	-0.093344	-23.7859	89.5843	65.8423
 157	1	1	0.162888	-21.986	85.0699	61.4847
 158	1	1	0.147794	-21.6539	82.6211	61.7359
 159	1	2	-0.172056	-21.7956	84.644	62.4654
 160	1	2	-0.198933	-21.6052	83.2595	62.6151
 161	1	2	0.236899	-21.7245	85.4919	63.5771
 162	1	2	0.029337	-21.3149	82.6978	63.8783
 163	1	4	0.180684	-21.0483	81.1764	63.978
 164	1	2	-0.223565	-21.4589	84.9505	64.8449
 165	1	2	-0.141841	-21.2611	83.5648	64.9961
 166	1	1	0.17153	-21.3806	85.6079	65.7056
 167	1	1	0.139148	-21.0468	83.1828	65.9891
 168	1	2	-0.185386	-23.6508	87.3556	64.9334
 169	1	1	0.155741	-24.0558	86.3546	64.8149
 170	1	4	-0.198622	-22.4165	80.459	63.818
 171	1	4	-0.188008	-20.4645	80.7456	65.3503
 172	1	5	0.060726	-23.1456	80.8557	64.5362
 173	1	5	0.058265	-22.3325	79.3805	64.0012
 174	1	5	0.044015	-22.8279	80.6071	62.8115
 175	1	5	0.049647	-21.1768	80.9222	66.166
 176	1	5	0.045128	-19.5374	81.2884	65.5745
 177	1	5	0.061555	-20.2264	79.6739	65.3487
 178	1	1	0.151962	-18.7224	82.4629	63.2941
 179	1	2	-0.211106	-18.8695	81.5643	62.6991
 180	1	2	-0.169243	-17.9149	81.2299	61.7223
 181	1	1	0.166678	-17.046	81.8612	61.5613
 182	1	2	0.259195	-18.0737	80.0763	60.9455
 183	1	2	-0.207473	-19.2012	79.2618	61.1384
 184	1	1	0.171716	-19.3341	78.3745	60.5264
 185	1	2	-0.169975	-20.1614	79.598	62.111
 186	1	1	0.141932	-21.0176	78.9429	62.2348
 187	1	2	0.050656	-20.0167	80.7634	62.9008
 188	1	6	0.518059	-24.2875	90.7899	66.5581
 189	1	6	0.507614	-22.3732	91.3805	65.4197
 190	1	7	-0.122906	-23.4052	91.8186	66.2429
 191	1	8	-0.496938	-25.2934	90.8451	67.2442
 192	1	8	-0.484992	-21.4491	92.0298	64.9613
 193	1	2	-0.048962	-16.0492	76.9339	57.9727
 194	1	6	0.0776	-15.7133	76.3423	56.6542
 195	1	8	-0.391129	-15.7643	76.9186	55.5798
 196	1	2	0.038503	-15.8615	75.9693	58.9449
 197	1	6	0.061082	-15.3949	74.722	58.289
 198	1	7	0.459351	-15.331	75.026	56.9265
 199	1	8	-0.403808	-15.1409	73.6687	58.8519
 200	1	2	-0.02278	-16.4776	78.2271	58.2955
 201	1	2	-0.06542	-16.0914	76.2387	60.2992
 202	1	2	0.157218	-16.7286	78.5193	59.6501
 203	1	1	0.144625	-16.6133	78.9808	57.5255
 204	1	2	-0.259423	-16.5284	77.5347	60.6477
 205	1	3	-0.32062	-17.1329	79.789	59.9851
 206	1	1	0.165981	-15.9269	75.4678	61.0494
 207	1	1	0.168674	-16.6999	77.7825	61.6914
 208	1	1	0.207625	-13.2599	73.2913	57.0705
 209	1	2	-0.428502	-13.8038	73.2487	56.1295
 210	1	2	-0.035773	-13.3924	72.3346	55.1445
 211	1	1	0.142536	-12.5354	71.6913	55.3344
 212	1	2	0.020215	-14.0798	72.2487	53.9199
 213	1	2	-0.058677	-15.188	73.0871	53.701
 214	1	1	0.147375	-15.7338	73.0335	52.7609
 215	1	2	-0.40884	-15.6	73.995	54.6917
 216	1	1	0.20403	-16.4551	74.6377	54.4951
 217	1	2	0.301824	-14.9145	74.0944	55.9215
 218	1	2	-0.079086	-13.6873	69.6734	51.3238
 219	1	2	-0.121043	-14.0377	68.6556	50.4268
 220	1	1	0.148865	-15.0737	68.3614	50.2847
 221	1	2	0.229196	-12.9994	68.0005	49.7407
 222	1	3	-0.312503	-13.308	66.9559	48.9073
 223	1	1	0.177824	-10.2858	69.7105	51.0141
 224	1	2	-0.142744	-11.3187	69.4119	50.8403
 225	1	2	-0.093344	-12.3693	70.0389	51.525
 226	1	1	0.162888	-12.7189	65.7701	51.2239
 227	1	1	0.147794	-11.6363	63.5783	51.4773
 228	1	2	-0.172056	-12.4628	65.1955	50.3387
 229	1	2	-0.198933	-11.8464	63.9396	50.4757
 230	1	2	0.236899	-12.7429	65.7139	49.0632
 231	1	2	0.029337	-11.4987	63.1798	49.3348
 232	1	4	0.180684	-10.7555	61.8273	49.4221
 233	1	2	-0.223565	-12.4372	64.9576	47.9265
 234	1	2	-0.141841	-11.8204	63.7018	48.0612
 235	1	1	0.17153	-12.6637	65.3591	46.9433
 236	1	1	0.139148	-11.5667	63.1386	47.1662
 237	1	2	-0.185386	-11.6502	68.378	49.9392
 238	1	1	0.155741	-10.8654	67.8574	49.3974
 239	1	4	-0.198622	-11.7573	60.7217	48.9897
 240	1	4	-0.188008	-10.2806	61.4769	50.8578
 241	1	5	0.060726	-12.6812	60.79	49.5786
 242	1	5	0.058265	-11.3455	59.7168	49.1454
 243	1	5	0.044015	-12.0306	60.8216	47.9318
 244	1	5	0.049647	-11.129	61.3476	51.5418
 245	1	5	0.045128	-9.62512	62.2593	51.2611
 246	1	5	0.061555	-9.71113	60.5387	50.8582
 247	1	1	0.151962	-8.9598	63.8916	49.1898
 248	1	2	-0.211106	-8.69496	63.0572	48.5448
 249	1	2	-0.169243	-7.56107	63.1671	47.7221
 250	1	1	0.166678	-6.96166	64.0726	47.7294
 251	1	2	0.259195	-7.18736	62.1097	46.8846
 252	1	2	-0.207473	-7.95045	60.9278	46.8849
 253	1	1	0.171716	-7.66502	60.0915	46.2552
 254	1	2	-0.169975	-9.09517	60.8221	47.6968
 255	1	1	0.141932	-9.66287	59.8976	47.6683
 256	1	2	0.050656	-9.49591	61.893	48.5282
 257	1	6	0.518059	-12.3419	71.1139	52.5528
 258	1	6	0.507614	-14.5387	70.4983	52.2195
 259	1	7	-0.122906	-13.666	71.321	52.9214
 260	1	8	-0.496938	-11.3442	71.6609	52.99
 261	1	8	-0.484992	-15.7511	70.4261	52.3223
 262	1	2	-0.048962	-3.70872	59.6495	45.1641
 263	1	6	0.0776	-2.4843	58.8608	45.4403
 264	1	8	-0.391129	-1.74237	59.0107	46.3974
 265	1	2	0.038503	-4.26589	59.1972	43.9825
 266	1	6	0.061082	-3.42429	58.0927	43.4587
 267	1	7	0.459351	-2.38231	57.9548	44.381
 268	1	8	-0.403808	-3.64167	57.4483	42.4445
 269	1	2	-0.02278	-4.28951	60.6888	45.8986
 270	1	2	-0.06542	-5.43269	59.7655	43.4557
 271	1	2	0.157218	-5.4712	61.2638	45.3955
 272	1	1	0.144625	-3.84642	61.0363	46.8271
 273	1	2	-0.259423	-6.03489	60.818	44.1785
 274	1	3	-0.32062	-6.07017	62.2751	46.0984
 275	1	1	0.165981	-5.84862	59.4006	42.5187
 276	1	1	0.168674	-6.93766	61.292	43.8033
 277	1	1	0.207625	-1.26391	56.4779	46.3615
 278	1	2	-0.428502	-0.84124	56.2892	45.3772
 279	1	2	-0.035773	0.197233	55.3503	45.2527
 280	1	1	0.142536	0.553536	54.8266	46.1375
 281	1	2	0.020215	0.768999	55.0803	43.9953
 282	1	2	-0.058677	0.287517	55.7732	42.869
 283	1	1	0.147375	0.708768	55.5775	41.885
 284	1	2	-0.40884	-0.740041	56.7217	43.0008
 285	1	1	0.20403	-1.09434	57.24	42.1127
 286	1	2	0.301824	-1.32718	56.9939	44.2547
 287	1	2	-0.079086	3.68485	52.9986	43.1498
 288	1	2	-0.121043	4.85136	52.5873	42.4913
 289	1	1	0.148865	5.35447	53.2349	41.7787
 290	1	2	0.229196	5.32535	51.2885	42.7498
 291	1	3	-0.312503	6.40944	50.8229	42.0515
 292	1	1	0.177824	2.9431	50.2315	45.0099
 293	1	2	-0.142744	3.48419	50.8758	44.3183
 294	1	2	-0.093344	3.01797	52.1656	44.0282
 295	1	1	0.162888	8.4567	49.3725	41.3401
 296	1	1	0.147794	8.40277	47.3841	39.8487
 297	1	2	-0.172056	7.51546	49.0326	40.9183
 298	1	2	-0.198933	7.47682	47.9072	40.0761
 299	1	2	0.236899	6.33836	49.7266	41.2232
 300	1	2	0.029337	6.25967	47.4593	39.5152
 301	1	4	0.180684	6.26894	46.2222	38.5886
 302	1	2	-0.223565	5.12075	49.2998	40.6644
 303	1	2	-0.141841	5.07993	48.1745	39.8242
 304	1	1	0.17153	4.20318	49.8404	40.8752
 305	1	1	0.139148	4.11903	47.8759	39.4178
 306	1	2	-0.185386	4.6567	50.4423	43.6649
 307	1	1	0.155741	5.04237	49.4425	43.844
 308	1	4	-0.198622	4.8952	45.942	37.9222
 309	1	4	-0.188008	6.60102	44.9927	39.4793
 310	1	5	0.060726	4.12499	45.7118	38.6693
 311	1	5	0.058265	4.96292	45.0816	37.2441
 312	1	5	0.044015	4.55993	46.802	37.3285
 313	1	5	0.049647	7.63018	45.0399	39.8568
 314	1	5	0.045128	6.47833	44.0484	38.9345
 315	1	5	0.061555	5.9305	44.9553	40.3476
 316	1	1	0.151962	6.77799	48.5315	37.1706
 317	1	2	-0.211106	7.39995	47.7058	36.833
 318	1	2	-0.169243	8.3108	47.9259	35.7838
 319	1	1	0.166678	8.39482	48.9046	35.321
 320	1	2	0.259195	9.1076	46.8763	35.3117
 321	1	2	-0.207473	8.99973	45.6057	35.9002
 322	1	1	0.171716	9.61524	44.7885	35.5379
 323	1	2	-0.169975	8.09864	45.3867	36.9569
 324	1	1	0.141932	8.03508	44.3894	37.3799
 325	1	2	0.050656	7.28967	46.4369	37.448
 326	1	6	0.518059	1.7994	52.8752	44.4999
 327	1	6	0.507614	2.91773	54.2662	43.0406
 328	1	7	-0.122906	1.80455	54.1094	43.8595
 329	1	8	-0.496938	0.95983	52.4235	45.2596
 330	1	8	-0.484992	3.21071	55.2191	42.3394
 331	1	2	-0.048962	11.3779	44.4244	32.2096
 332	1	6	0.0776	12.4298	43.4079	31.9552
 333	1	8	-0.391129	13.4784	43.2949	32.5687
 334	1	2	0.038503	10.3286	44.1929	31.3385
 335	1	6	0.061082	10.6682	43.0252	30.4888
 336	1	7	0.459351	11.9223	42.6007	30.9343
 337	1	8	-0.403808	9.9536	42.5326	29.6301
 338	1	2	-0.02278	11.3112	45.4255	33.1869
 339	1	2	-0.06542	9.15139	44.949	31.3865
 340	1	2	0.157218	10.1264	46.1835	33.266
 341	1	1	0.144625	12.125	45.5807	33.8891
 342	1	2	-0.259423	9.05704	45.9539	32.3717
 343	1	3	-0.32062	9.97374	47.1041	34.2695
 344	1	1	0.165981	8.33207	44.738	30.7022
 345	1	1	0.168674	8.14985	46.5452	32.4621
 346	1	1	0.207625	10.7651	40.2046	30.5186
 347	1	2	-0.428502	11.8327	40.216	30.3109
 348	1	2	-0.035773	12.4538	39.0335	29.8795
 349	1	1	0.142536	11.8605	38.1285	29.7658
 350	1	2	0.020215	13.8322	39.0123	29.6005
 351	1	2	-0.058677	14.5758	40.1981	29.7501
 352	1	1	0.147375	15.6427	40.2006	29.5351
 353	1	2	-0.40884	13.9482	41.3824	30.1802
 354	1	1	0.20403	14.5441	42.2836	30.307
 355	1	2	0.301824	12.5665	41.4105	30.468
 356	1	2	-0.079086	15.6478	36.2758	27.9405
 357	1	2	-0.121043	16.4348	35.6123	26.9886
 358	1	1	0.148865	16.9474	36.1583	26.2017
 359	1	2	0.229196	16.5139	34.209	27.0659
 360	1	3	-0.312503	17.2409	33.5258	26.1256
 361	1	1	0.177824	14.5153	33.6598	29.8236
 362	1	2	-0.142744	15.0542	34.1873	29.0376
 363	1	2	-0.093344	14.9798	35.5827	28.9328
 364	1	1	0.162888	18.3397	31.1814	25.7382
 365	1	1	0.147794	17.3577	29.3077	24.4457
 366	1	2	-0.172056	17.3736	31.2992	25.2564
 367	1	2	-0.198933	16.8102	30.2441	24.5173
 368	1	2	0.236899	16.6847	32.51	25.3895
 369	1	2	0.029337	15.5618	30.3942	23.8682
 370	1	4	0.180684	14.9609	29.224	23.0547
 371	1	2	-0.223565	15.4317	32.6681	24.7787
 372	1	2	-0.141841	14.8739	31.6195	24.0263
 373	1	1	0.17153	14.8963	33.6069	24.8839
 374	1	1	0.139148	13.8998	31.7724	23.5731
 375	1	2	-0.185386	15.8334	33.5009	28.0838
 376	1	1	0.155741	15.9103	32.4182	28.124
 377	1	4	-0.198622	14.0083	29.7095	21.926
 378	1	4	-0.188008	14.1102	28.3743	24.0355
 379	1	5	0.060726	13.7219	28.8711	21.278
 380	1	5	0.058265	14.4903	30.4673	21.2956
 381	1	5	0.044015	13.0818	30.1387	22.3265
 382	1	5	0.049647	14.7312	27.9601	24.84
 383	1	5	0.045128	13.6086	27.5463	23.5185
 384	1	5	0.061555	13.3315	28.9886	24.5055
 385	1	1	0.151962	16.8872	30.1677	21.3605
 386	1	2	-0.211106	17.0006	29.0991	21.5285
 387	1	2	-0.169243	18.0641	28.4176	20.9109
 388	1	1	0.166678	18.7591	28.9471	20.2659
 389	1	2	0.259195	18.2458	27.0476	21.133
 390	1	2	-0.207473	17.3442	26.3516	21.9532
 391	1	1	0.171716	17.4711	25.284	22.1054
 392	1	2	-0.169975	16.2783	27.0307	22.5705
 393	1	1	0.141932	15.6046	26.4593	23.2008
 394	1	2	0.050656	16.0946	28.4203	22.3744
 395	1	6	0.518059	14.2133	36.5632	29.7443
 396	1	6	0.507614	15.3227	37.72	28.0869
 397	1	7	-0.122906	14.4534	37.8052	29.168
 398	1	8	-0.496938	13.49	36.2975	30.6888
 399	1	8	-0.484992	15.7149	38.6211	27.3662
 400	1	2	-0.048962	21.2307	23.3325	20.9175
 401	1	6	0.0776	21.8231	22.1056	20.3337
 402	1	8	-0.391129	21.6677	21.7224	19.1857
 403	1	2	0.038503	21.6198	23.4198	22.2404
 404	1	6	0.061082	22.486	22.2539	22.5545
 405	1	7	0.459351	22.5748	21.5275	21.3622
 406	1	8	-0.403808	23.0294	22.0373	23.626
 407	1	2	-0.02278	20.4434	24.3208	20.3153
 408	1	2	-0.06542	21.2379	24.5012	23.0447
 409	1	2	0.157218	20.0386	25.4133	21.105
 410	1	1	0.144625	20.1614	24.2521	19.2689
 411	1	2	-0.259423	20.4361	25.5069	22.461
 412	1	3	-0.32062	19.2929	26.4066	20.5177
 413	1	1	0.165981	21.5702	24.5613	24.0791
 414	1	1	0.168674	20.14	26.3705	23.0503
 415	1	1	0.207625	24.0811	20.9123	19.2042
 416	1	2	-0.428502	24.1472	20.1821	20.0073
 417	1	2	-0.035773	24.9784	19.0638	19.835
 418	1	1	0.142536	25.5406	18.9509	18.9101
 419	1	2	0.020215	25.0972	18.0996	20.8508
 420	1	2	-0.058677	24.3602	18.2662	22.0374
 421	1	1	0.147375	24.4567	17.5388	22.8412
 422	1	2	-0.40884	23.5146	19.3807	22.1988
 423	1	1	0.20403	22.9699	19.4982	23.1329
 424	1	2	0.301824	23.3978	20.3638	21.1901
 425	1	2	-0.079086	27.2011	15.3116	19.7128
 426	1	2	-0.121043	27.7649	14.3811	18.83
 427	1	1	0.148865	27.3283	14.2037	17.8512
 428	1	2	0.229196	28.9355	13.7085	19.2281
 429	1	3	-0.312503	29.5085	12.8452	18.3207
 430	1	1	0.177824	29.3814	15.1594	22.3325
 431	1	2	-0.142744	28.9325	14.9203	21.3694
 432	1	2	-0.093344	27.7651	15.5717	20.9469
 433	1	1	0.162888	29.5127	11.0149	20.2554
 434	1	1	0.147794	31.3267	9.4078	20.7045
 435	1	2	-0.172056	30.4056	11.0217	19.6369
 436	1	2	-0.198933	31.4442	10.1041	19.8805
 437	1	2	0.236899	30.5139	11.9499	18.5905
 438	1	2	0.029337	32.603	10.0878	19.066
 439	1	4	0.180684	33.7755	9.10088	19.2855
 440	1	2	-0.223565	31.645	11.9355	17.7665
 441	1	2	-0.141841	32.6811	11.0154	18.0033
 442	1	1	0.17153	31.7117	12.6421	16.9445
 443	1	1	0.139148	33.5504	11.0177	17.35
 444	1	2	-0.185386	29.5213	13.9849	20.4901
 445	1	1	0.155741	30.4472	13.4972	20.7791
 446	1	4	-0.198622	33.5202	8.10334	20.447
 447	1	4	-0.188008	35.0162	9.94783	19.6866
 448	1	5	0.060726	32.6293	7.4922	20.2542
 449	1	5	0.058265	33.3854	8.62628	21.4024
 450	1	5	0.044015	34.3688	7.41694	20.5633
 451	1	5	0.049647	34.7675	10.6285	20.5112
 452	1	5	0.045128	35.374	10.5577	18.8477
 453	1	5	0.061555	35.8467	9.318	20.0282
 454	1	1	0.151962	36.186	8.16422	18.1579
 455	1	2	-0.211106	35.3071	7.85793	17.6
 456	1	2	-0.169243	35.4871	7.04025	16.4681
 457	1	1	0.166678	36.4846	6.74032	16.1608
 458	1	2	0.259195	34.3783	6.59416	15.733
 459	1	2	-0.207473	33.0912	6.98797	16.1188
 460	1	1	0.171716	32.237	6.64371	15.5434
 461	1	2	-0.169975	32.9081	7.80231	17.2519
 462	1	1	0.141932	31.8964	8.07324	17.5451
 463	1	2	0.050656	34.0122	8.25706	18.0095
 464	1	6	0.518059	26.9724	16.6525	21.596
 465	1	6	0.507614	26.0382	16.2191	19.5336
 466	1	7	-0.122906	25.9854	16.9995	20.6818
 467	1	8	-0.496938	27.1989	17.1567	22.682
 468	1	8	-0.484992	25.3355	16.2956	18.541
 469	1	2	-0.048962	36.3344	2.82524	13.4169
 470	1	6	0.0776	36.9012	2.03011	12.2949
 471	1	8	-0.391129	36.8765	2.3414	11.1153
 472	1	2	0.038503	36.5711	2.14143	14.594
 473	1	6	0.061082	37.2964	0.886063	14.2766
 474	1	7	0.459351	37.4592	0.892579	12.888
 475	1	8	-0.403808	37.6497	0.0429659	15.0859
 476	1	2	-0.02278	35.6577	4.05347	13.4092
 477	1	2	-0.06542	36.1425	2.63786	15.8303
 478	1	2	0.157218	35.2234	4.58329	14.6426
 479	1	1	0.144625	35.4701	4.58139	12.4789
 480	1	2	-0.259423	35.4571	3.87137	15.8459
 481	1	3	-0.32062	34.534	5.77707	14.6373
 482	1	1	0.165981	36.3303	2.07535	16.7427
 483	1	1	0.168674	35.0961	4.26499	16.7916
 484	1	1	0.207625	39.7431	-0.363532	13.6009
 485	1	2	-0.428502	39.3257	-0.717752	12.6611
 486	1	2	-0.035773	39.9755	-1.762	11.9806
 487	1	1	0.142536	40.8826	-2.18893	12.4034
 488	1	2	0.020215	39.4582	-2.26297	10.771
 489	1	2	-0.058677	38.2773	-1.69194	10.2573
 490	1	1	0.147375	37.856	-2.06271	9.32477
 491	1	2	-0.40884	37.6249	-0.651386	10.9471
 492	1	1	0.20403	36.713	-0.23063	10.529
 493	1	2	0.301824	38.1334	-0.148263	12.1648
 494	1	2	-0.079086	40.5091	-5.34111	9.02566
 495	1	2	-0.121043	40.4125	-6.59504	8.40336
 496	1	1	0.148865	39.4456	-7.05206	8.21242
 497	1	2	0.229196	41.6049	-7.25315	8.04179
 498	1	3	-0.312503	41.5145	-8.49779	7.45948
 499	1	1	0.177824	43.8943	-4.93797	9.19178
 500	1	2	-0.142744	42.9372	-5.40108	8.95554
 501	1	2	-0.093344	41.7345	-4.75902	9.28482
 502	1	1	0.162888	42.8547	-7.03818	5.62572
 503	1	1	0.147794	44.1643	-7.95756	3.75826
 504	1	2	-0.172056	42.9425	-8.11457	5.51689
 505	1	2	-0.198933	43.6884	-8.64658	4.44901
 506	1	2	0.236899	42.2899	-8.96938	6.42119
 507	1	2	0.029337	43.7879	-10.0433	4.24694
 508	1	4	0.180684	44.5538	-10.6044	3.02242
 509	1	2	-0.223565	42.3622	-10.3545	6.22179
 510	1	2	-0.141841	43.0936	-10.8883	5.14391
 511	1	1	0.17153	41.8283	-11.0131	6.90049
 512	1	1	0.139148	43.0992	-11.9664	5.00681
 513	1	2	-0.185386	42.8604	-6.66736	8.33545
 514	1	1	0.155741	43.7725	-7.20496	8.09233
 515	1	4	-0.198622	45.9113	-9.86935	2.82842
 516	1	4	-0.188008	43.6945	-10.2994	1.76485
 517	1	5	0.060726	45.7771	-8.82657	2.51852
 518	1	5	0.058265	46.5083	-10.3621	2.04993
 519	1	5	0.044015	46.5016	-9.8679	3.75294
 520	1	5	0.049647	42.7141	-10.7883	1.83146
 521	1	5	0.045128	44.1937	-10.6369	0.847418
 522	1	5	0.061555	43.5132	-9.22232	1.66102
 523	1	1	0.151962	43.7382	-12.8303	1.443
 524	1	2	-0.211106	44.3907	-13.0974	2.26798
 525	1	2	-0.169243	44.7474	-14.4514	2.41272
 526	1	1	0.166678	44.3728	-15.1982	1.7185
 527	1	2	0.259195	45.598	-14.8495	3.45224
 528	1	2	-0.207473	46.0674	-13.8997	4.36705
 529	1	1	0.171716	46.7116	-14.2201	5.18033
 530	1	2	-0.169975	45.711	-12.5459	4.22565
 531	1	1	0.141932	46.0879	-11.8233	4.94521
 532	1	2	0.050656	44.8752	-12.116	3.16882
 533	1	6	0.518059	41.4916	-3.45846	9.96704
 534	1	6	0.507614	39.4482	-4.43425	9.54499
 535	1	7	-0.122906	40.111	-3.34313	10.0991
 536	1	8	-0.496938	42.3516	-2.6804	10.3424
 537	1	8	-0.484992	38.2482	-4.6433	9.50579
 538	1	2	-0.048962	48.3098	-18.7483	2.51296
 539	1	6	0.0776	48.9098	-20.0926	2.6996
 540	1	8	-0.391129	48.6117	-20.8828	3.58029
 541	1	2	0.038503	48.9276	-18.1409	1.4379
 542	1	6	0.061082	49.9386	-19.078	0.882433
 543	1	7	0.459351	49.8704	-20.2198	1.68917
 544	1	8	-0.403808	50.649	-18.8646	-0.0873268
 545	1	2	-0.02278	47.3029	-18.1029	3.24199
 546	1	2	-0.06542	48.5826	-16.8449	1.03493
 547	1	2	0.157218	46.935	-16.7971	2.86038
 548	1	1	0.144625	46.8248	-18.5925	4.08519
 549	1	2	-0.259423	47.5772	-16.1694	1.76231
 550	1	3	-0.32062	45.955	-16.1668	3.59631
 551	1	1	0.165981	49.0869	-16.3809	0.189651
 552	1	1	0.168674	47.3036	-15.1597	1.47124
 553	1	1	0.207625	52.4841	-20.3067	0.936304
 554	1	2	-0.428502	52.0464	-21.285	1.12166
 555	1	2	-0.035773	52.8462	-22.4304	0.949226
 556	1	1	0.142536	53.8836	-22.3265	0.637208
 557	1	2	0.020215	52.3126	-23.7094	1.18318
 558	1	2	-0.058677	50.9679	-23.8285	1.57135
 559	1	1	0.147375	50.5463	-24.8128	1.76566
 560	1	2	-0.40884	50.1667	-22.6832	1.71858
 561	1	1	0.20403	49.131	-22.8068	2.02614
 562	1	2	0.301824	50.6897	-21.3874	1.50771
 563	1	2	-0.079086	54.4465	-26.5224	0.156691
 564	1	2	-0.121043	55.2178	-27.3541	-0.668814
 565	1	1	0.148865	55.4181	-27.0894	-1.70327
 566	1	2	0.229196	55.7233	-28.5475	-0.116727
 567	1	3	-0.312503	56.4659	-29.3867	-0.911985
 568	1	1	0.177824	54.4237	-28.3037	3.07131
 569	1	2	-0.142744	54.6581	-28.0485	2.03882
 570	1	2	-0.093344	54.1705	-26.8652	1.46771
 571	1	1	0.162888	58.4173	-28.3156	0.541727
 572	1	1	0.147794	60.4626	-29.47	1.27596
 573	1	2	-0.172056	58.563	-29.3619	0.290244
 574	1	2	-0.198933	59.7281	-30.0301	0.706622
 575	1	2	0.236899	57.5963	-30.0334	-0.473667
 576	1	2	0.029337	59.946	-31.3868	0.368824
 577	1	4	0.180684	61.245	-32.1331	0.752467
 578	1	2	-0.223565	57.8027	-31.3721	-0.827991
 579	1	2	-0.141841	58.967	-32.0433	-0.411333
 580	1	1	0.17153	57.0582	-31.8817	-1.43251
 581	1	1	0.139148	59.1144	-33.0788	-0.709183
 582	1	2	-0.185386	55.4448	-28.8927	1.22753
 583	1	1	0.155741	55.8279	-29.8254	1.63196
 584	1	4	-0.198622	62.0082	-31.4549	1.92355
 585	1	4	-0.188008	62.1742	-32.0756	-0.48994
 586	1	5	0.060726	62.4164	-30.4792	1.63256
 587	1	5	0.058265	62.8538	-32.0773	2.24375
 588	1	5	0.044015	61.3547	-31.3104	2.79321
 589	1	5	0.049647	61.7427	-32.6302	-1.33298
 590	1	5	0.045128	63.167	-32.4892	-0.272376
 591	1	5	0.061555	62.3167	-31.0376	-0.817474
 592	1	1	0.151962	62.3917	-34.6002	-0.0484748
 593	1	2	-0.211106	61.6219	-34.7054	0.709064
 594	1	2	-0.169243	61.3414	-35.9959	1.19309
 595	1	1	0.166678	61.8811	-36.8538	0.80253
 596	1	2	0.259195	60.3696	-36.1838	2.18819
 597	1	2	-0.207473	59.6611	-35.0805	2.67962
 598	1	1	0.171716	58.9073	-35.2343	3.44598
 599	1	2	-0.169975	59.9428	-33.7879	2.19976
 600	1	1	0.141932	59.3969	-32.9399	2.60702
 601	1	2	0.050656	60.9281	-33.5773	1.20866
 602	1	6	0.518059	53.3054	-25.805	2.05019
 603	1	6	0.507614	53.7785	-25.2226	-0.129854
 604	1	7	-0.122906	53.1177	-24.8725	1.03978
 605	1	8	-0.496938	52.8452	-25.7916	3.17837
 606	1	8	-0.484992	53.8162	-24.6058	-1.17987
 607	1	2	-0.048962	61.8965	-40.618	2.91609
 608	1	6	0.0776	61.9805	-42.0736	2.64005
 609	1	8	-0.391129	61.1318	-42.7464	2.07786
 610	1	2	0.038503	63.0573	-40.2289	3.55979
 611	1	6	0.061082	63.9269	-41.4217	3.72945
 612	1	7	0.459351	63.2158	-42.4756	3.15298
 613	1	8	-0.403808	65.0325	-41.4405	4.24692
 614	1	2	-0.02278	60.879	-39.7025	2.61812
 615	1	2	-0.06542	63.2725	-38.8987	3.93989
 616	1	2	0.157218	61.0787	-38.3555	2.97797
 617	1	1	0.144625	59.9697	-40.0192	2.11568
 618	1	2	-0.259423	62.2649	-37.9566	3.64012
 619	1	3	-0.32062	60.0992	-37.4359	2.68725
 620	1	1	0.165981	64.1907	-38.6126	4.44909
 621	1	1	0.168674	62.3973	-36.9172	3.92708
 622	1	1	0.207625	63.2305	-44.0909	0.989058
 623	1	2	-0.428502	63.6427	-44.5527	1.88298
 624	1	2	-0.035773	64.0827	-45.886	1.82446
 625	1	1	0.142536	64.0158	-46.4327	0.886045
 626	1	2	0.020215	64.5852	-46.5213	2.9746
 627	1	2	-0.058677	64.6538	-45.7958	4.17845
 628	1	1	0.147375	65.0253	-46.2715	5.08301
 629	1	2	-0.40884	64.222	-44.4595	4.23019
 630	1	1	0.20403	64.287	-43.918	5.17167
 631	1	2	0.301824	63.6979	-43.8203	3.08767
 632	1	2	-0.079086	65.8873	-49.8814	2.24661
 633	1	2	-0.121043	66.5609	-50.9046	1.57033
 634	1	1	0.148865	67.0896	-50.6886	0.647007
 635	1	2	0.229196	66.5367	-52.2045	2.12806
 636	1	3	-0.312503	67.1823	-53.2552	1.50838
 637	1	1	0.177824	64.634	-51.57	4.93777
 638	1	2	-0.142744	65.1636	-51.3985	4.00071
 639	1	2	-0.093344	65.2002	-50.1219	3.42005
 640	1	1	0.162888	67.1346	-53.61	-1.1014
 641	1	1	0.147794	68.82	-52.7323	-2.68676
 642	1	2	-0.172056	68.0548	-53.171	-0.727585
 643	1	2	-0.198933	69.0176	-52.6642	-1.62159
 644	1	2	0.236899	68.2289	-53.0195	0.655227
 645	1	2	0.029337	70.1651	-51.9946	-1.13378
 646	1	4	0.180684	71.0963	-51.1497	-2.03284
 647	1	2	-0.223565	69.3979	-52.4341	1.15345
 648	1	2	-0.141841	70.3613	-51.9344	0.265374
 649	1	1	0.17153	69.5117	-52.2947	2.22596
 650	1	1	0.139148	71.2205	-51.4085	0.673282
 651	1	2	-0.185386	65.842	-52.4438	3.33496
 652	1	1	0.155741	65.8463	-53.4449	3.75618
 653	1	4	-0.198622	70.7015	-51.1567	-3.53568
 654	1	4	-0.188008	72.535	-51.7308	-1.95279