pySIMM System Object

692 atoms
761 bonds
1280 angles
1976 dihedrals
240 impropers

9 atom types
11 bond types
18 angle types
9 dihedral types
4 improper types

-107.157028 107.157028 xlo xhi
-107.157028 107.157028 ylo yhi
-107.157028 107.157028 zlo zhi

Masses

   1	1.008	# ha
   2	12.01	# ca
   3	16.0	# os
   4	12.01	# c3
   5	1.008	# hc
   6	12.01	# c
   7	14.01	# n
   8	16.0	# o
   9	1.008	# hn

Pair Coeffs

   1	0.015	2.59964245953351	# ha
   2	0.086	3.3996695084235347	# ca
   3	0.17	3.0000123434657784	# os
   4	0.1094	3.3996695084235347	# c3
   5	0.0157	2.649532787749369	# hc
   6	0.086	3.3996695084235347	# c
   7	0.17	3.249998523775958	# n
   8	0.21	2.959921901149463	# o
   9	0.0157	1.069078461768407	# hn

Bond Coeffs

   1	461.1	1.3984	# ca,ca
   2	427.6	1.3789	# c,n
   3	345.9	1.4906	# c,ca
   4	300.9	1.5375	# c3,c3
   5	345.8	1.086	# ca,ha
   6	384.2	1.4121	# ca,n
   7	321.0	1.5156	# c3,ca
   8	330.6	1.0969	# c3,hc
   9	637.7	1.2183	# c,o
  10	376.6	1.3696	# ca,os
  11	403.2	1.0129	# hn,n

Angle Coeffs

   1	46.34	109.8	# c3,c3,hc
   2	74.22	123.05	# n,c,o
   3	48.33	117.55	# c,n,hn
   4	63.56	112.24	# ca,c3,ca
   5	63.48	119.89	# ca,os,ca
   6	62.86	111.51	# c3,c3,c3
   7	66.62	120.02	# ca,ca,ca
   8	64.28	120.33	# c,ca,ca
   9	63.15	112.07	# c3,c3,ca
  10	39.4	107.58	# hc,c3,hc
  11	48.18	119.88	# ca,ca,ha
  12	63.53	120.77	# c3,ca,ca
  13	63.74	127.08	# c,n,c
  14	67.68	115.25	# ca,c,n
  15	63.82	123.71	# c,n,ca
  16	68.72	122.6	# ca,c,o
  17	67.87	120.19	# ca,ca,n
  18	69.58	119.2	# ca,ca,os

Dihedral Coeffs

   1	1	3.625	2	180	# X,ca,ca,X
   2	1	1.0	2	180	# X,c,ca,X
   3	1	0.0	2	0	# X,c3,ca,X
   4	1	0.15555555555555556	3	0	# X,c3,c3,X
   5	1	0.9	2	180	# X,ca,os,X
   6	1	2.5	2	180	# X,c,n,X
   7	1	0.45	2	180	# X,ca,n,X
   8	1	0.16	3	0	# hc,c3,c3,c3
   9	2	2.5	2	180	2.0	1	0	# hn,n,c,o

Improper Coeffs

   1	1.1	-1	2	# n,X,X,hn
   2	1.1	-1	2	# ca,ca,ca,c3
   3	10.5	-1	2	# c,X,X,o
   4	1.1	-1	2	# ca,X,X,ha

Atoms

   1	1	1	0.207625	-36.1996	23.8447	81.2813
   2	1	2	-0.428502	-36.4078	22.7973	81.0886
   3	1	2	-0.035773	-37.622	22.2302	81.5139
   4	1	1	0.142536	-38.3497	22.8497	82.0337
   5	1	2	0.020215	-37.8965	20.8685	81.2738
   6	1	2	-0.058677	-36.9423	20.0894	80.59
   7	1	1	0.147375	-37.142	19.0396	80.3859
   8	1	2	-0.40884	-35.731	20.6645	80.164
   9	1	1	0.20403	-34.9988	20.064	79.6342
  10	1	2	0.301824	-35.46	22.0166	80.4147
  11	1	2	-0.079086	-40.9861	19.8174	82.9699
  12	1	2	-0.121043	-41.9937	19.7862	83.9422
  13	1	1	0.148865	-41.8806	20.3195	84.882
  14	1	2	0.229196	-43.1829	19.0942	83.6347
  15	1	3	-0.312503	-44.2475	19.1169	84.5026
  16	1	1	0.177824	-42.3819	17.9357	80.4862
  17	1	2	-0.142744	-42.2828	18.4361	81.4484
  18	1	2	-0.093344	-41.1286	19.17	81.7575
  19	1	1	0.162888	-43.8193	21.6556	83.6366
  20	1	1	0.147794	-44.9018	23.6546	84.5276
  21	1	2	-0.172056	-44.5515	21.542	84.4291
  22	1	2	-0.198933	-45.1912	22.6874	84.9301
  23	1	2	0.236899	-44.8549	20.2713	84.9512
  24	1	2	0.029337	-46.1938	22.5908	85.9224
  25	1	4	0.180684	-46.8932	23.8611	86.4671
  26	1	2	-0.223565	-45.8246	20.1631	85.9558
  27	1	2	-0.141841	-46.4888	21.307	86.4368
  28	1	1	0.17153	-46.0574	19.1826	86.3602
  29	1	1	0.139148	-47.2253	21.1836	87.2243
  30	1	2	-0.185386	-43.3168	18.4056	82.409
  31	1	1	0.155741	-44.241	17.8747	82.1997
  32	1	4	-0.198622	-46.1481	24.2607	87.7684
  33	1	4	-0.188008	-48.3766	23.5958	86.845
  34	1	5	0.060726	-46.6328	25.1104	88.2655
  35	1	5	0.058265	-45.1045	24.5267	87.5561
  36	1	5	0.044015	-46.1353	23.4277	88.4829
  37	1	5	0.049647	-48.9225	23.1344	86.0127
  38	1	5	0.045128	-48.883	24.537	87.0958
  39	1	5	0.061555	-48.468	22.9396	87.7187
  40	1	1	0.151962	-47.8026	23.7263	83.8871
  41	1	2	-0.211106	-47.4004	24.7118	84.1108
  42	1	2	-0.169243	-47.3531	25.6796	83.0921
  43	1	1	0.166678	-47.7286	25.4478	82.0997
  44	1	2	0.259195	-46.8127	26.9481	83.3523
  45	1	2	-0.207473	-46.3576	27.2568	84.639
  46	1	1	0.171716	-45.9604	28.2483	84.8362
  47	1	2	-0.169975	-46.3925	26.286	85.6564
  48	1	1	0.141932	-46.0122	26.5596	86.6351
  49	1	2	0.050656	-46.8946	24.9868	85.4022
  50	1	6	0.518059	-39.9208	19.4593	80.9375
  51	1	6	0.507614	-39.6876	20.5375	82.9619
  52	1	7	-0.122906	-39.1245	20.294	81.7144
  53	1	8	-0.496938	-39.7114	19.0563	79.8061
  54	1	8	-0.484992	-39.2498	21.2275	83.8665
  55	1	2	-0.048962	-44.8676	26.4859	79.5147
  56	1	6	0.0776	-43.8318	25.5818	78.9483
  57	1	8	-0.391129	-43.1011	24.838	79.5823
  58	1	2	0.038503	-45.4948	27.1381	78.4684
  59	1	6	0.061082	-44.8788	26.6913	77.1953
  60	1	7	0.459351	-43.9037	25.7649	77.5655
  61	1	8	-0.403808	-45.1964	27.0571	76.075
  62	1	2	-0.02278	-45.2412	26.7137	80.8459
  63	1	2	-0.06542	-46.5372	28.0467	78.6856
  64	1	2	0.157218	-46.2965	27.6226	81.0885
  65	1	1	0.144625	-44.7313	26.2057	81.6592
  66	1	2	-0.259423	-46.9336	28.286	80.0182
  67	1	3	-0.32062	-46.7234	27.8984	82.3654
  68	1	1	0.165981	-47.0197	28.5432	77.8461
  69	1	1	0.168674	-47.7393	28.9835	80.2312
  70	1	1	0.207625	-42.4289	26.8439	75.5847
  71	1	2	-0.428502	-42.3905	25.7576	75.6157
  72	1	2	-0.035773	-41.6637	25.0674	74.6298
  73	1	1	0.142536	-41.1313	25.6239	73.8609
  74	1	2	0.020215	-41.6423	23.6614	74.6177
  75	1	2	-0.058677	-42.3289	22.9564	75.6232
  76	1	1	0.147375	-42.3165	21.8681	75.6258
  77	1	2	-0.40884	-43.0466	23.6506	76.6143
  78	1	1	0.20403	-43.5763	23.0892	77.3802
  79	1	2	0.301824	-43.102	25.0604	76.615
  80	1	2	-0.079086	-40.4487	21.5102	71.884
  81	1	2	-0.121043	-40.4605	20.5117	70.8989
  82	1	1	0.148865	-41.3584	19.936	70.6926
  83	1	2	0.229196	-39.2619	20.2572	70.2054
  84	1	3	-0.312503	-39.2304	19.2528	69.2688
  85	1	1	0.177824	-37.218	22.602	71.7027
  86	1	2	-0.142744	-38.1081	22.0194	71.47
  87	1	2	-0.093344	-39.308	22.2424	72.158
  88	1	1	0.162888	-38.6367	17.5093	71.1522
  89	1	1	0.147794	-36.6752	16.0111	71.1685
  90	1	2	-0.172056	-37.9529	17.5036	70.3085
  91	1	2	-0.198933	-36.834	16.6519	70.3073
  92	1	2	0.236899	-38.1839	18.3678	69.2295
  93	1	2	0.029337	-35.9254	16.654	69.2232
  94	1	4	0.180684	-34.6434	15.7902	69.2246
  95	1	2	-0.223565	-37.3023	18.3771	68.1424
  96	1	2	-0.141841	-36.1763	17.5343	68.1444
  97	1	1	0.17153	-37.482	19.0595	67.3171
  98	1	1	0.139148	-35.4859	17.58	67.3058
  99	1	2	-0.185386	-38.0953	21.0092	70.4858
 100	1	1	0.155741	-37.1796	20.8028	69.9395
 101	1	4	-0.198622	-34.7377	14.5632	70.1746
 102	1	4	-0.188008	-33.496	16.6856	69.7648
 103	1	5	0.060726	-34.7591	14.8655	71.2288
 104	1	5	0.058265	-33.8668	13.9079	70.0432
 105	1	5	0.044015	-35.6365	13.967	69.9742
 106	1	5	0.049647	-33.7307	17.0495	70.7734
 107	1	5	0.045128	-33.3452	17.5665	69.128
 108	1	5	0.061555	-32.5504	16.1318	69.8245
 109	1	1	0.151962	-32.4181	16.1683	67.4954
 110	1	2	-0.211106	-33.2027	15.5511	67.0695
 111	1	2	-0.169243	-33.0267	15.0643	65.7614
 112	1	1	0.166678	-32.1303	15.3084	65.1989
 113	1	2	0.259195	-34.0157	14.2694	65.1648
 114	1	2	-0.207473	-35.1774	13.9513	65.8767
 115	1	1	0.171716	-35.9414	13.3426	65.4024
 116	1	2	-0.169975	-35.3592	14.4431	67.1814
 117	1	1	0.141932	-36.2781	14.2066	67.7127
 118	1	2	0.050656	-34.3784	15.2515	67.7992
 119	1	6	0.518059	-39.6226	23.1972	73.2546
 120	1	6	0.507614	-41.5215	21.9686	72.8067
 121	1	7	-0.122906	-40.9486	22.9623	73.5908
 122	1	8	-0.496938	-38.8578	24.0113	73.7418
 123	1	8	-0.484992	-42.6578	21.5315	72.8631
 124	1	2	-0.048962	-33.2468	15.2245	60.5295
 125	1	6	0.0776	-32.6499	15.0983	59.1758
 126	1	8	-0.391129	-32.0621	14.1211	58.7421
 127	1	2	0.038503	-33.7956	16.4879	60.6449
 128	1	6	0.061082	-33.5738	17.2209	59.3746
 129	1	7	0.459351	-32.8689	16.3332	58.5589
 130	1	8	-0.403808	-33.9165	18.3691	59.1409
 131	1	2	-0.02278	-33.268	14.3162	61.5962
 132	1	2	-0.06542	-34.4048	16.9185	61.8279
 133	1	2	0.157218	-33.8643	14.7293	62.8046
 134	1	1	0.144625	-32.8225	13.3303	61.5007
 135	1	2	-0.259423	-34.438	16.0213	62.9153
 136	1	3	-0.32062	-33.8809	13.8523	63.865
 137	1	1	0.165981	-34.8273	17.9188	61.8966
 138	1	1	0.168674	-34.9096	16.3321	63.8432
 139	1	1	0.207625	-31.6276	18.631	57.8901
 140	1	2	-0.428502	-31.6963	17.9173	57.0722
 141	1	2	-0.035773	-31.1316	18.2492	55.8298
 142	1	1	0.142536	-30.6275	19.206	55.7099
 143	1	2	0.020215	-31.2007	17.3481	54.7518
 144	1	2	-0.058677	-31.8643	16.1198	54.9337
 145	1	1	0.147375	-31.9183	15.4047	54.115
 146	1	2	-0.40884	-32.4323	15.7933	56.1786
 147	1	1	0.20403	-32.9096	14.8241	56.3052
 148	1	2	0.301824	-32.3488	16.682	57.2715
 149	1	2	-0.079086	-29.7731	18.7994	51.6836
 150	1	2	-0.121043	-29.4574	19.7544	50.7071
 151	1	1	0.148865	-29.8634	20.7609	50.7557
 152	1	2	0.229196	-28.5984	19.3731	49.6586
 153	1	3	-0.312503	-28.3082	20.3093	48.6921
 154	1	1	0.177824	-28.0207	16.091	50.5693
 155	1	2	-0.142744	-28.4103	17.1076	50.5959
 156	1	2	-0.093344	-29.2609	17.5178	51.6304
 157	1	1	0.162888	-28.5665	20.5127	46.1025
 158	1	1	0.147794	-26.7425	20.3148	44.4301
 159	1	2	-0.172056	-27.5467	20.3272	46.4265
 160	1	2	-0.198933	-26.5084	20.2078	45.4865
 161	1	2	0.236899	-27.2759	20.2029	47.7937
 162	1	2	0.029337	-25.1808	19.9487	45.8986
 163	1	4	0.180684	-24.0571	19.8328	44.8428
 164	1	2	-0.223565	-25.9581	19.9915	48.2255
 165	1	2	-0.141841	-24.919	19.8631	47.2864
 166	1	1	0.17153	-25.7462	19.9295	49.289
 167	1	1	0.139148	-23.9099	19.7065	47.6537
 168	1	2	-0.185386	-28.088	18.0511	49.5982
 169	1	1	0.155741	-27.4466	17.7514	48.7751
 170	1	4	-0.198622	-22.8275	19.035	45.3585
 171	1	4	-0.188008	-23.575	21.2767	44.5411
 172	1	5	0.060726	-22.2885	19.5774	46.1447
 173	1	5	0.058265	-22.1152	18.8568	44.5425
 174	1	5	0.044015	-23.1264	18.0574	45.7576
 175	1	5	0.049647	-23.2695	21.7837	45.4654
 176	1	5	0.045128	-24.3769	21.8738	44.0882
 177	1	5	0.061555	-22.7114	21.2804	43.8643
 178	1	1	0.151962	-23.9347	20.5486	42.099
 179	1	2	-0.211106	-24.4273	19.5984	42.2777
 180	1	2	-0.169243	-24.9054	18.8811	41.166
 181	1	1	0.166678	-24.7646	19.2879	40.1698
 182	1	2	0.259195	-25.5517	17.6438	41.3408
 183	1	2	-0.207473	-25.6962	17.1244	42.6332
 184	1	1	0.171716	-26.1819	16.162	42.7643
 185	1	2	-0.169975	-25.211	17.836	43.7451
 186	1	1	0.141932	-25.3323	17.4127	44.7394
 187	1	2	0.050656	-24.5772	19.089	43.5889
 188	1	6	0.518059	-29.7705	16.767	52.8075
 189	1	6	0.507614	-30.629	18.9045	52.8951
 190	1	7	-0.122906	-30.5688	17.6599	53.5128
 191	1	8	-0.496938	-29.5051	15.6103	53.0852
 192	1	8	-0.484992	-31.2284	19.8992	53.2645
 193	1	2	-0.048962	-25.2377	17.161	36.7191
 194	1	6	0.0776	-24.5014	16.6864	35.5202
 195	1	8	-0.391129	-23.7245	15.7469	35.4759
 196	1	2	0.038503	-26.0222	18.2401	36.3521
 197	1	6	0.061082	-25.8079	18.5078	34.907
 198	1	7	0.459351	-24.8989	17.5361	34.488
 199	1	8	-0.403808	-26.3377	19.3887	34.2488
 200	1	2	-0.02278	-25.2243	16.6786	38.0335
 201	1	2	-0.06542	-26.8558	18.8888	37.272
 202	1	2	0.157218	-26.0367	17.3312	38.9807
 203	1	1	0.144625	-24.6009	15.8353	38.3156
 204	1	2	-0.259423	-26.8587	18.4182	38.6031
 205	1	3	-0.32062	-26.0233	16.8985	40.2825
 206	1	1	0.165981	-27.478	19.7245	36.9576
 207	1	1	0.168674	-27.4943	18.8908	39.3473
 208	1	1	0.207625	-25.0799	15.337	32.9457
 209	1	2	-0.428502	-24.637	16.1912	32.4388
 210	1	2	-0.035773	-24.2685	16.0754	31.0874
 211	1	1	0.142536	-24.4424	15.1371	30.5644
 212	1	2	0.020215	-23.708	17.1706	30.4021
 213	1	2	-0.058677	-23.4979	18.3745	31.1015
 214	1	1	0.147375	-23.0662	19.2327	30.5902
 215	1	2	-0.40884	-23.8716	18.488	32.4529
 216	1	1	0.20403	-23.7339	19.4367	32.9661
 217	1	2	0.301824	-24.4587	17.403	33.1362
 218	1	2	-0.079086	-22.4073	17.3057	26.9522
 219	1	2	-0.121043	-21.5656	17.6214	25.874
 220	1	1	0.148865	-20.6337	18.1545	26.0394
 221	1	2	0.229196	-21.9821	17.2421	24.5769
 222	1	3	-0.312503	-21.2453	17.5353	23.4523
 223	1	1	0.177824	-25.0159	15.793	25.3491
 224	1	2	-0.142744	-24.0551	16.2879	25.4827
 225	1	2	-0.093344	-23.6144	16.6612	26.7588
 226	1	1	0.162888	-20.1526	19.4966	22.1367
 227	1	1	0.147794	-17.73	20.032	22.0433
 228	1	2	-0.172056	-19.4369	18.8796	22.672
 229	1	2	-0.198933	-18.064	19.1733	22.6208
 230	1	2	0.236899	-19.8977	17.7958	23.4278
 231	1	2	0.029337	-17.1247	18.3792	23.3156
 232	1	4	0.180684	-15.6347	18.7814	23.2767
 233	1	2	-0.223565	-18.9789	16.9808	24.1069
 234	1	2	-0.141841	-17.6035	17.2747	24.0597
 235	1	1	0.17153	-19.3344	16.1236	24.6709
 236	1	1	0.139148	-16.9222	16.6371	24.6141
 237	1	2	-0.185386	-23.2192	16.5886	24.388
 238	1	1	0.155741	-23.5278	16.326	23.3802
 239	1	4	-0.198622	-14.6836	17.6921	23.8497
 240	1	4	-0.188008	-15.4731	20.0185	24.2035
 241	1	5	0.060726	-14.8448	17.5431	24.925
 242	1	5	0.058265	-13.6352	17.9887	23.7153
 243	1	5	0.044015	-14.8218	16.7252	23.3513
 244	1	5	0.049647	-15.7616	19.7725	25.2336
 245	1	5	0.045128	-16.1126	20.8497	23.8809
 246	1	5	0.061555	-14.4332	20.369	24.2236
 247	1	1	0.151962	-14.832	21.1998	22.0321
 248	1	2	-0.211106	-14.8527	20.3499	21.3581
 249	1	2	-0.169243	-14.492	20.5648	20.0173
 250	1	1	0.166678	-14.1945	21.5532	19.6801
 251	1	2	0.259195	-14.496	19.5101	19.0981
 252	1	2	-0.207473	-14.8518	18.2211	19.5277
 253	1	1	0.171716	-14.8217	17.3902	18.8294
 254	1	2	-0.169975	-15.2288	18.0059	20.8681
 255	1	1	0.141932	-15.5177	17.0056	21.1799
 256	1	2	0.050656	-15.2243	19.0617	21.8097
 257	1	6	0.518059	-24.2759	16.5077	28.0805
 258	1	6	0.507614	-22.2612	17.5774	28.4096
 259	1	7	-0.122906	-23.4128	17.0774	29.0092
 260	1	8	-0.496938	-25.3654	15.9978	28.2779
 261	1	8	-0.484992	-21.3191	18.1363	28.9443
 262	1	2	-0.048962	-13.9202	18.6486	14.3622
 263	1	6	0.0776	-13.1492	18.4946	13.1054
 264	1	8	-0.391129	-11.9953	18.8433	12.9184
 265	1	2	0.038503	-15.1725	18.0902	14.1848
 266	1	6	0.061082	-15.2565	17.565	12.7959
 267	1	7	0.459351	-14.0056	17.8255	12.2349
 268	1	8	-0.403808	-16.2024	16.9736	12.3009
 269	1	2	-0.02278	-13.5319	19.2048	15.5841
 270	1	2	-0.06542	-16.1091	18.0533	15.2271
 271	1	2	0.157218	-14.4506	19.1776	16.6497
 272	1	1	0.144625	-12.5467	19.6443	15.708
 273	1	2	-0.259423	-15.739	18.6147	16.4712
 274	1	3	-0.32062	-14.0632	19.7819	17.822
 275	1	1	0.165981	-17.0883	17.6054	15.0691
 276	1	1	0.168674	-16.4543	18.6256	17.2889
 277	1	1	0.207625	-15.004	18.4626	9.79039
 278	1	2	-0.428502	-14.2063	17.7246	9.76646
 279	1	2	-0.035773	-13.8362	17.1413	8.53958
 280	1	1	0.142536	-14.3438	17.4327	7.62232
 281	1	2	0.020215	-12.8524	16.1366	8.50432
 282	1	2	-0.058677	-12.2068	15.7559	9.6918
 283	1	1	0.147375	-11.4563	14.9686	9.67242
 284	1	2	-0.40884	-12.5672	16.3501	10.9111
 285	1	1	0.20403	-12.0738	16.031	11.8256
 286	1	2	0.301824	-13.5882	17.3202	10.969
 287	1	2	-0.079086	-12.5853	13.7029	5.7901
 288	1	2	-0.121043	-12.7664	12.4903	5.1147
 289	1	1	0.148865	-13.198	11.6338	5.62506
 290	1	2	0.229196	-12.4098	12.4367	3.75187
 291	1	3	-0.312503	-12.6173	11.2976	3.01219
 292	1	1	0.177824	-11.3128	15.682	3.31741
 293	1	2	-0.142744	-11.7052	14.7919	3.80742
 294	1	2	-0.093344	-12.0786	14.8243	5.15899
 295	1	1	0.162888	-10.4732	10.1014	3.97068
 296	1	1	0.147794	-10.386	7.77939	4.85087
 297	1	2	-0.172056	-11.3783	9.50386	4.02288
 298	1	2	-0.198933	-11.3373	8.19054	4.52223
 299	1	2	0.236899	-12.5853	10.0381	3.55438
 300	1	2	0.029337	-12.5014	7.38984	4.56337
 301	1	4	0.180684	-12.3767	5.91844	5.02603
 302	1	2	-0.223565	-13.7552	9.26998	3.60811
 303	1	2	-0.141841	-13.7184	7.95772	4.11552
 304	1	1	0.17153	-14.6865	9.69363	3.24393
 305	1	1	0.139148	-14.6417	7.38739	4.13089
 306	1	2	-0.185386	-11.8822	13.578	3.10649
 307	1	1	0.155741	-11.6252	13.5153	2.05298
 308	1	4	-0.198622	-13.697	5.1138	4.88939
 309	1	4	-0.188008	-12.0082	5.92699	6.53559
 310	1	5	0.060726	-14.4881	5.52951	5.52618
 311	1	5	0.058265	-13.5446	4.06913	5.19014
 312	1	5	0.044015	-14.0535	5.10573	3.85155
 313	1	5	0.049647	-12.7285	6.52894	7.10454
 314	1	5	0.045128	-11.0121	6.35475	6.70379
 315	1	5	0.061555	-12.0215	4.91527	6.9601
 316	1	1	0.151962	-10.2862	4.13625	5.73394
 317	1	2	-0.211106	-10.3271	4.35527	4.67163
 318	1	2	-0.169243	-9.36309	3.76849	3.82924
 319	1	1	0.166678	-8.59318	3.12168	4.23904
 320	1	2	0.259195	-9.37142	4.0291	2.45267
 321	1	2	-0.207473	-10.3748	4.84405	1.90841
 322	1	1	0.171716	-10.3936	5.03097	0.838888
 323	1	2	-0.169975	-11.338	5.43049	2.74663
 324	1	1	0.141932	-12.0984	6.07044	2.30524
 325	1	2	0.050656	-11.3179	5.21673	4.14387
 326	1	6	0.518059	-12.0849	15.9466	6.14195
 327	1	6	0.507614	-12.9169	14.0664	7.18817
 328	1	7	-0.122906	-12.6045	15.4109	7.31173
 329	1	8	-0.496938	-11.7469	17.0981	5.93255
 330	1	8	-0.484992	-13.3882	13.3247	8.03239
 331	1	2	-0.048962	-6.28915	4.27397	-1.24447
 332	1	6	0.0776	-5.52558	3.84225	-2.44542
 333	1	8	-0.391129	-5.42601	2.6999	-2.86253
 334	1	2	0.038503	-6.15368	5.64375	-1.11624
 335	1	6	0.061082	-5.30908	6.14566	-2.22414
 336	1	7	0.459351	-4.97563	5.0145	-2.9708
 337	1	8	-0.403808	-4.98801	7.30924	-2.40828
 338	1	2	-0.02278	-7.04191	3.52711	-0.327569
 339	1	2	-0.06542	-6.74506	6.34819	-0.0640237
 340	1	2	0.157218	-7.66018	4.21389	0.738268
 341	1	1	0.144625	-7.14477	2.45127	-0.433589
 342	1	2	-0.259423	-7.49803	5.61584	0.875627
 343	1	3	-0.32062	-8.38972	3.4891	1.65519
 344	1	1	0.165981	-6.61108	7.42463	0.019767
 345	1	1	0.168674	-7.94802	6.13877	1.71429
 346	1	1	0.207625	-2.90891	3.38386	-3.65316
 347	1	2	-0.428502	-3.11229	4.16842	-4.37864
 348	1	2	-0.035773	-2.31108	4.26423	-5.53293
 349	1	1	0.142536	-1.49391	3.56106	-5.68299
 350	1	2	0.020215	-2.55964	5.26787	-6.48886
 351	1	2	-0.058677	-3.61377	6.1719	-6.2693
 352	1	1	0.147375	-3.81597	6.96103	-6.99065
 353	1	2	-0.40884	-4.41285	6.06898	-5.12183
 354	1	1	0.20403	-5.21433	6.7887	-4.97238
 355	1	2	0.301824	-4.17403	5.07227	-4.15421
 356	1	2	-0.079086	0.0150521	5.62674	-9.09128
 357	1	2	-0.121043	1.28239	5.74393	-9.67617
 358	1	1	0.148865	2.18897	5.59895	-9.09546
 359	1	2	0.229196	1.34389	6.05687	-11.0461
 360	1	3	-0.312503	2.56845	6.15001	-11.6486
 361	1	1	0.177824	-2.02163	6.29356	-11.7537
 362	1	2	-0.142744	-1.10015	6.13672	-11.1947
 363	1	2	-0.093344	-1.1375	5.80949	-9.83234
 364	1	1	0.162888	4.95405	6.2215	-12.6375
 365	1	1	0.147794	5.9642	4.57034	-14.1863
 366	1	2	-0.172056	4.38051	5.35854	-12.9624
 367	1	2	-0.198933	4.94549	4.41813	-13.8379
 368	1	2	0.236899	3.07021	5.19543	-12.501
 369	1	2	0.029337	4.20189	3.3033	-14.2849
 370	1	4	0.180684	4.84497	2.33825	-15.3013
 371	1	2	-0.223565	2.32839	4.0699	-12.9062
 372	1	2	-0.141841	2.88855	3.13344	-13.7927
 373	1	1	0.17153	1.31736	3.91534	-12.5443
 374	1	1	0.139148	2.28546	2.28245	-14.0929
 375	1	2	-0.185386	0.166539	6.26528	-11.8001
 376	1	1	0.155741	0.245911	6.52143	-12.853
 377	1	4	-0.198622	3.82713	1.37381	-15.9719
 378	1	4	-0.188008	5.86061	1.44859	-14.5343
 379	1	5	0.060726	3.40847	0.66307	-15.2484
 380	1	5	0.058265	4.31595	0.788362	-16.7614
 381	1	5	0.044015	2.99512	1.92029	-16.4329
 382	1	5	0.049647	5.35519	0.877575	-13.7448
 383	1	5	0.045128	6.63929	2.05264	-14.0519
 384	1	5	0.061555	6.34625	0.728527	-15.2054
 385	1	1	0.151962	7.54602	2.52222	-16.1511
 386	1	2	-0.211106	6.87136	3.17638	-16.6943
 387	1	2	-0.169243	7.41361	4.02315	-17.6755
 388	1	1	0.166678	8.48432	4.01237	-17.8525
 389	1	2	0.259195	6.58125	4.87549	-18.4252
 390	1	2	-0.207473	5.21213	4.91977	-18.1403
 391	1	1	0.171716	4.57607	5.60117	-18.6972
 392	1	2	-0.169975	4.67105	4.09244	-17.1409
 393	1	1	0.141932	3.60863	4.15788	-16.9194
 394	1	2	0.050656	5.48646	3.19527	-16.4145
 395	1	6	0.518059	-2.29886	5.63838	-8.92438
 396	1	6	0.507614	-0.377184	5.34361	-7.68441
 397	1	7	-0.122906	-1.76614	5.38764	-7.66534
 398	1	8	-0.496938	-3.47154	5.73304	-9.24318
 399	1	8	-0.484992	0.382118	5.14874	-6.75111
 400	1	2	-0.048962	9.77852	3.86023	-21.1113
 401	1	6	0.0776	10.4083	2.58436	-21.5204
 402	1	8	-0.391129	9.90177	1.47906	-21.4155
 403	1	2	0.038503	10.657	4.89296	-21.3741
 404	1	6	0.061082	11.8897	4.3174	-21.9685
 405	1	7	0.459351	11.6636	2.93731	-22.0229
 406	1	8	-0.403808	12.883	4.94589	-22.2977
 407	1	2	-0.02278	8.53651	4.08652	-20.5139
 408	1	2	-0.06542	10.3375	6.22176	-21.067
 409	1	2	0.157218	8.21948	5.40851	-20.1342
 410	1	1	0.144625	7.86532	3.25789	-20.3069
 411	1	2	-0.259423	9.09942	6.4709	-20.4351
 412	1	3	-0.32062	7.07354	5.68375	-19.4269
 413	1	1	0.165981	11.0392	7.02334	-21.2882
 414	1	1	0.168674	8.82521	7.48309	-20.1504
 415	1	1	0.207625	13.2432	3.26515	-24.1899
 416	1	2	-0.428502	13.35	2.29409	-23.7118
 417	1	2	-0.035773	14.2557	1.36765	-24.2519
 418	1	1	0.142536	14.8346	1.62864	-25.1353
 419	1	2	0.020215	14.4143	0.104643	-23.6587
 420	1	2	-0.058677	13.6717	-0.217822	-22.5112
 421	1	1	0.147375	13.7803	-1.1988	-22.0527
 422	1	2	-0.40884	12.7837	0.722646	-21.9596
 423	1	1	0.20403	12.2131	0.449735	-21.0749
 424	1	2	0.301824	12.5996	1.99161	-22.5552
 425	1	2	-0.079086	16.1571	-2.65537	-25.3266
 426	1	2	-0.121043	16.3417	-3.85717	-26.0242
 427	1	1	0.148865	15.5197	-4.55212	-26.1723
 428	1	2	0.229196	17.6223	-4.11658	-26.5548
 429	1	3	-0.312503	17.8706	-5.25583	-27.277
 430	1	1	0.177824	19.2917	-1.30286	-25.4656
 431	1	2	-0.142744	18.4853	-2.01711	-25.6255
 432	1	2	-0.093344	17.1959	-1.76061	-25.1415
 433	1	1	0.162888	18.5336	-7.32004	-28.6658
 434	1	1	0.147794	17.5813	-8.04185	-30.815
 435	1	2	-0.172056	17.7383	-6.74008	-29.1247
 436	1	2	-0.198933	17.1854	-7.14366	-30.3524
 437	1	2	0.236899	17.2779	-5.58865	-28.4753
 438	1	2	0.029337	16.1398	-6.40374	-30.9546
 439	1	4	0.180684	15.4655	-6.82801	-32.2847
 440	1	2	-0.223565	16.2633	-4.82206	-29.0775
 441	1	2	-0.141841	15.6938	-5.23633	-30.2951
 442	1	1	0.17153	15.9065	-3.90988	-28.6123
 443	1	1	0.139148	14.9036	-4.63595	-30.7396
 444	1	2	-0.185386	18.6885	-3.21716	-26.3374
 445	1	1	0.155741	19.6696	-3.45364	-26.7386
 446	1	4	-0.198622	13.9756	-7.13115	-31.9628
 447	1	4	-0.188008	16.0784	-8.13058	-32.87
 448	1	5	0.060726	13.9033	-7.84124	-31.1284
 449	1	5	0.058265	13.4503	-7.58033	-32.8132
 450	1	5	0.044015	13.4339	-6.22186	-31.6757
 451	1	5	0.049647	15.994	-8.96789	-32.166
 452	1	5	0.045128	17.1382	-7.98695	-33.1185
 453	1	5	0.061555	15.5671	-8.42974	-33.7934
 454	1	1	0.151962	17.2572	-4.67085	-32.4382
 455	1	2	-0.211106	16.6111	-4.74927	-33.3082
 456	1	2	-0.169243	16.8502	-3.88533	-34.3902
 457	1	1	0.166678	17.6595	-3.16247	-34.3464
 458	1	2	0.259195	16.1031	-4.00574	-35.5689
 459	1	2	-0.207473	15.0787	-4.95623	-35.6499
 460	1	1	0.171716	14.5269	-5.06688	-36.5788
 461	1	2	-0.169975	14.8333	-5.81788	-34.5648
 462	1	1	0.141932	14.0795	-6.59063	-34.6795
 463	1	2	0.050656	15.6084	-5.74499	-33.3821
 464	1	6	0.518059	16.6622	-0.575329	-24.4211
 465	1	6	0.507614	14.9306	-2.07016	-24.7225
 466	1	7	-0.122906	15.3138	-0.832228	-24.2274
 467	1	8	-0.496938	17.2812	0.433473	-24.1314
 468	1	8	-0.484992	13.817	-2.56419	-24.7251
 469	1	2	-0.048962	19.3156	-5.38206	-37.8913
 470	1	6	0.0776	19.9324	-6.71261	-38.107
 471	1	8	-0.391129	19.3824	-7.79413	-37.9794
 472	1	2	0.038503	20.2714	-4.40897	-38.1206
 473	1	6	0.061082	21.544	-5.08347	-38.494
 474	1	7	0.459351	21.2557	-6.44652	-38.4468
 475	1	8	-0.403808	22.6111	-4.54298	-38.7341
 476	1	2	-0.02278	18.0278	-5.05808	-37.456
 477	1	2	-0.06542	19.9849	-3.04849	-37.9421
 478	1	2	0.157218	17.7213	-3.69565	-37.2493
 479	1	1	0.144625	17.3049	-5.84101	-37.2475
 480	1	2	-0.259423	18.6881	-2.69754	-37.5021
 481	1	3	-0.32062	16.5138	-3.34107	-36.6961
 482	1	1	0.165981	20.7542	-2.29784	-38.1111
 483	1	1	0.168674	18.4359	-1.65663	-37.3196
 484	1	1	0.207625	22.122	-7.37298	-40.8275
 485	1	2	-0.428502	22.5684	-7.87135	-39.9711
 486	1	2	-0.035773	23.4807	-8.92055	-40.1808
 487	1	1	0.142536	23.7278	-9.20607	-41.2006
 488	1	2	0.020215	24.0538	-9.61044	-39.0917
 489	1	2	-0.058677	23.7121	-9.20302	-37.7856
 490	1	1	0.147375	24.1374	-9.7119	-36.9232
 491	1	2	-0.40884	22.8084	-8.14512	-37.5782
 492	1	1	0.20403	22.5517	-7.85463	-36.5629
 493	1	2	0.301824	22.2175	-7.47407	-38.6669
 494	1	2	-0.079086	25.9255	-12.5869	-40.2205
 495	1	2	-0.121043	26.2674	-13.6912	-41.0135
 496	1	1	0.148865	25.666	-13.9574	-41.8781
 497	1	2	0.229196	27.4025	-14.4431	-40.6432
 498	1	3	-0.312503	27.7914	-15.5534	-41.3548
 499	1	1	0.177824	28.3594	-12.6843	-37.831
 500	1	2	-0.142744	27.7905	-12.9687	-38.7152
 501	1	2	-0.093344	26.6688	-12.2273	-39.1142
 502	1	1	0.162888	26.32	-17.526	-42.2452
 503	1	1	0.147794	25.8223	-18.0133	-44.6285
 504	1	2	-0.172056	26.7004	-16.874	-43.0257
 505	1	2	-0.198933	26.4236	-17.1429	-44.377
 506	1	2	0.236899	27.4834	-15.7684	-42.6755
 507	1	2	0.029337	26.9366	-16.3197	-45.4049
 508	1	4	0.180684	26.6459	-16.7004	-46.8751
 509	1	2	-0.223565	27.9828	-14.9238	-43.6779
 510	1	2	-0.141841	27.7103	-15.194	-45.0333
 511	1	1	0.17153	28.5997	-14.0741	-43.4013
 512	1	1	0.139148	28.1218	-14.5271	-45.7846
 513	1	2	-0.185386	28.1464	-14.0913	-39.4945
 514	1	1	0.155741	29.0039	-14.6975	-39.2163
 515	1	4	-0.198622	27.4442	-15.8535	-47.9065
 516	1	4	-0.188008	25.1445	-16.4105	-47.1525
 517	1	5	0.060726	27.144	-14.7982	-47.8763
 518	1	5	0.058265	27.2616	-16.2174	-48.926
 519	1	5	0.044015	28.5249	-15.9032	-47.7274
 520	1	5	0.049647	24.9209	-15.3463	-47.004
 521	1	5	0.045128	24.4917	-16.9759	-46.4759
 522	1	5	0.061555	24.8739	-16.6654	-48.1853
 523	1	1	0.151962	25.0372	-18.9438	-47.55
 524	1	2	-0.211106	26.0809	-19.1905	-47.3857
 525	1	2	-0.169243	26.4631	-20.5421	-47.4676
 526	1	1	0.166678	25.726	-21.308	-47.6886
 527	1	2	0.259195	27.7941	-20.923	-47.2562
 528	1	2	-0.207473	28.7522	-19.94	-46.9588
 529	1	1	0.171716	29.7837	-20.224	-46.7773
 530	1	2	-0.169975	28.3685	-18.589	-46.858
 531	1	1	0.141932	29.1167	-17.8476	-46.5895
 532	1	2	0.050656	27.0288	-18.1889	-47.0684
 533	1	6	0.518059	26.0492	-11.0099	-38.5197
 534	1	6	0.507614	24.7974	-11.6307	-40.3504
 535	1	7	-0.122906	24.9419	-10.7127	-39.3124
 536	1	8	-0.496938	26.4599	-10.4116	-37.5401
 537	1	8	-0.484992	23.926	-11.6829	-41.2012
 538	1	2	-0.048962	30.681	-23.6047	-49.5295
 539	1	6	0.0776	31.14	-23.9968	-50.8865
 540	1	8	-0.391129	30.4761	-23.9631	-51.9094
 541	1	2	0.038503	31.7269	-23.7891	-48.6429
 542	1	6	0.061082	32.903	-24.2873	-49.4009
 543	1	7	0.459351	32.477	-24.3616	-50.7281
 544	1	8	-0.403808	34.0093	-24.5241	-48.942
 545	1	2	-0.02278	29.4508	-23.0827	-49.1114
 546	1	2	-0.06542	31.5971	-23.4873	-47.2809
 547	1	2	0.157218	29.304	-22.7548	-47.7492
 548	1	1	0.144625	28.6388	-22.9296	-49.8157
 549	1	2	-0.259423	30.3604	-22.9709	-46.8356
 550	1	3	-0.32062	28.1047	-22.2627	-47.3026
 551	1	1	0.165981	32.4309	-23.6465	-46.5999
 552	1	1	0.168674	30.2142	-22.7337	-45.7855
 553	1	1	0.207625	34.8329	-23.2041	-51.2846
 554	1	2	-0.428502	34.556	-23.9835	-51.9906
 555	1	2	-0.035773	35.4298	-24.2949	-53.0459
 556	1	1	0.142536	36.3649	-23.7472	-53.1422
 557	1	2	0.020215	35.1124	-25.3184	-53.9591
 558	1	2	-0.058677	33.8919	-26.0066	-53.8066
 559	1	1	0.147375	33.6256	-26.8005	-54.5017
 560	1	2	-0.40884	33.0188	-25.6915	-52.7481
 561	1	1	0.20403	32.0829	-26.2363	-52.6481
 562	1	2	0.301824	33.3448	-24.6837	-51.8169
 563	1	2	-0.079086	37.6563	-25.5847	-56.6176
 564	1	2	-0.121043	38.635	-25.1908	-57.5416
 565	1	1	0.148865	38.8495	-24.1411	-57.7205
 566	1	2	0.229196	39.3408	-26.1974	-58.2275
 567	1	3	-0.312503	40.3239	-25.8254	-59.1117
 568	1	1	0.177824	37.8852	-28.9863	-56.8085
 569	1	2	-0.142744	38.0929	-27.9405	-57.0311
 570	1	2	-0.093344	37.3968	-26.9187	-56.3691
 571	1	1	0.162888	38.3667	-26.7302	-60.7119
 572	1	1	0.147794	38.691	-27.6051	-63.0052
 573	1	2	-0.172056	39.3667	-26.7791	-61.132
 574	1	2	-0.198933	39.5549	-27.2678	-62.4372
 575	1	2	0.236899	40.4678	-26.3405	-60.3785
 576	1	2	0.029337	40.8419	-27.3209	-63.0172
 577	1	4	0.180684	40.9938	-27.8723	-64.4523
 578	1	2	-0.223565	41.7479	-26.3742	-60.945
 579	1	2	-0.141841	41.938	-26.8588	-62.2515
 580	1	1	0.17153	42.5924	-26.0167	-60.3634
 581	1	1	0.139148	42.9456	-26.8632	-62.6545
 582	1	2	-0.185386	39.076	-27.5639	-57.9715
 583	1	1	0.155741	39.6495	-28.3267	-58.4909
 584	1	4	-0.198622	42.4757	-28.0553	-64.8875
 585	1	4	-0.188008	40.3811	-26.8348	-65.4331
 586	1	5	0.060726	42.9982	-27.0925	-64.9523
 587	1	5	0.058265	42.5311	-28.5269	-65.8772
 588	1	5	0.044015	43.0282	-28.6953	-64.1885
 589	1	5	0.049647	40.896	-25.8693	-65.3452
 590	1	5	0.045128	39.3186	-26.6593	-65.2242
 591	1	5	0.061555	40.4779	-27.1655	-66.4752
 592	1	1	0.151962	38.88	-28.8229	-66.1065
 593	1	2	-0.211106	39.2737	-29.5719	-65.4266
 594	1	2	-0.169243	38.7345	-30.8718	-65.4814
 595	1	1	0.166678	37.951	-31.1147	-66.1933
 596	1	2	0.259195	39.2312	-31.878	-64.6426
 597	1	2	-0.207473	40.2416	-31.5781	-63.719
 598	1	1	0.171716	40.6197	-32.3599	-63.0669
 599	1	2	-0.169975	40.7738	-30.2794	-63.6557
 600	1	1	0.141932	41.5617	-30.0657	-62.9376
 601	1	2	0.050656	40.3177	-29.261	-64.5219
 602	1	6	0.518059	36.3481	-26.9953	-55.3167
 603	1	6	0.507614	36.7746	-24.7703	-55.7376
 604	1	7	-0.122906	36.0349	-25.6804	-54.9882
 605	1	8	-0.496938	35.8958	-28.0197	-54.8355
 606	1	8	-0.484992	36.7436	-23.5527	-55.6869
 607	1	2	-0.048962	41.608	-35.0761	-66.1429
 608	1	6	0.0776	42.8779	-35.1279	-66.9009
 609	1	8	-0.391129	43.4163	-34.1777	-67.4459
 610	1	2	0.038503	41.3138	-36.3461	-65.6859
 611	1	6	0.061082	42.3919	-37.2673	-66.1362
 612	1	7	0.459351	43.2902	-36.462	-66.8432
 613	1	8	-0.403808	42.4602	-38.4632	-65.9011
 614	1	2	-0.02278	40.7828	-33.9819	-65.868
 615	1	2	-0.06542	40.1646	-36.5961	-64.9241
 616	1	2	0.157218	39.6242	-34.2048	-65.092
 617	1	1	0.144625	41.0398	-32.9955	-66.2431
 618	1	2	-0.259423	39.3152	-35.5045	-64.6319
 619	1	3	-0.32062	38.7772	-33.1676	-64.7724
 620	1	1	0.165981	39.9466	-37.6019	-64.5706
 621	1	1	0.168674	38.4165	-35.6562	-64.0407
 622	1	1	0.207625	45.68	-35.2139	-66.8033
 623	1	2	-0.428502	45.6909	-36.1621	-67.3354
 624	1	2	-0.035773	46.8809	-36.5793	-67.9507
 625	1	1	0.142536	47.7728	-35.9598	-67.8844
 626	1	2	0.020215	46.918	-37.7816	-68.673
 627	1	2	-0.058677	45.7594	-38.5713	-68.7648
 628	1	1	0.147375	45.7823	-39.5026	-69.3269
 629	1	2	-0.40884	44.5681	-38.1495	-68.1444
 630	1	1	0.20403	43.6799	-38.7726	-68.2221
 631	1	2	0.301824	44.5102	-36.9307	-67.4312
 632	1	2	-0.079086	49.6872	-38.404	-70.9756
 633	1	2	-0.121043	50.3935	-38.4367	-72.1822
 634	1	1	0.148865	49.8868	-38.2584	-73.1268
 635	1	2	0.229196	51.7768	-38.7062	-72.1305
 636	1	3	-0.312503	52.502	-38.7924	-73.2928
 637	1	1	0.177824	52.1756	-39.0254	-68.7198
 638	1	2	-0.142744	51.6937	-38.8704	-69.6841
 639	1	2	-0.093344	50.3175	-38.6096	-69.7622
 640	1	1	0.162888	51.394	-41.192	-73.2714
 641	1	1	0.147794	50.3735	-42.3235	-75.2004
 642	1	2	-0.172056	51.4053	-40.7091	-74.2442
 643	1	2	-0.198933	50.829	-41.3484	-75.3518
 644	1	2	0.236899	51.9907	-39.4433	-74.3868
 645	1	2	0.029337	50.8514	-40.7462	-76.632