pySIMM System Object

2486 atoms
2737 bonds
4608 angles
7124 dihedrals
864 impropers

9 atom types
11 bond types
18 angle types
9 dihedral types
4 improper types

-204.984020 204.984020 xlo xhi
-204.984020 204.984020 ylo yhi
-204.984020 204.984020 zlo zhi

Masses

   1	1.008	# ha
   2	12.01	# ca
   3	16.0	# os
   4	12.01	# c3
   5	1.008	# hc
   6	12.01	# c
   7	14.01	# n
   8	16.0	# o
   9	1.008	# hn

Pair Coeffs

   1	0.015	2.59964245953351	# ha
   2	0.086	3.3996695084235347	# ca
   3	0.17	3.0000123434657784	# os
   4	0.1094	3.3996695084235347	# c3
   5	0.0157	2.649532787749369	# hc
   6	0.086	3.3996695084235347	# c
   7	0.17	3.249998523775958	# n
   8	0.21	2.959921901149463	# o
   9	0.0157	1.069078461768407	# hn

Bond Coeffs

   1	461.1	1.3984	# ca,ca
   2	427.6	1.3789	# c,n
   3	345.9	1.4906	# c,ca
   4	300.9	1.5375	# c3,c3
   5	345.8	1.086	# ca,ha
   6	384.2	1.4121	# ca,n
   7	321.0	1.5156	# c3,ca
   8	330.6	1.0969	# c3,hc
   9	637.7	1.2183	# c,o
  10	376.6	1.3696	# ca,os
  11	403.2	1.0129	# hn,n

Angle Coeffs

   1	46.34	109.8	# c3,c3,hc
   2	74.22	123.05	# n,c,o
   3	48.33	117.55	# c,n,hn
   4	63.56	112.24	# ca,c3,ca
   5	63.48	119.89	# ca,os,ca
   6	62.86	111.51	# c3,c3,c3
   7	66.62	120.02	# ca,ca,ca
   8	64.28	120.33	# c,ca,ca
   9	63.15	112.07	# c3,c3,ca
  10	39.4	107.58	# hc,c3,hc
  11	48.18	119.88	# ca,ca,ha
  12	63.53	120.77	# c3,ca,ca
  13	63.74	127.08	# c,n,c
  14	67.68	115.25	# ca,c,n
  15	63.82	123.71	# c,n,ca
  16	68.72	122.6	# ca,c,o
  17	67.87	120.19	# ca,ca,n
  18	69.58	119.2	# ca,ca,os

Dihedral Coeffs

   1	1	3.625	2	180	# X,ca,ca,X
   2	1	1.0	2	180	# X,c,ca,X
   3	1	0.0	2	0	# X,c3,ca,X
   4	1	0.15555555555555556	3	0	# X,c3,c3,X
   5	1	0.9	2	180	# X,ca,os,X
   6	1	2.5	2	180	# X,c,n,X
   7	1	0.45	2	180	# X,ca,n,X
   8	1	0.16	3	0	# hc,c3,c3,c3
   9	2	2.5	2	180	2.0	1	0	# hn,n,c,o

Improper Coeffs

   1	1.1	-1	2	# n,X,X,hn
   2	1.1	-1	2	# ca,ca,ca,c3
   3	10.5	-1	2	# c,X,X,o
   4	1.1	-1	2	# ca,X,X,ha

Atoms

   1	1	1	0.207625	6.31979	-159.815	-32.075
   2	1	2	-0.428502	7.09583	-160.132	-31.3858
   3	1	2	-0.035773	7.71998	-159.195	-30.5414
   4	1	1	0.142536	7.42025	-158.151	-30.5847
   5	1	2	0.020215	8.7309	-159.603	-29.6468
   6	1	2	-0.058677	9.10531	-160.962	-29.6142
   7	1	1	0.147375	9.88039	-161.296	-28.9278
   8	1	2	-0.40884	8.47931	-161.893	-30.4642
   9	1	1	0.20403	8.76833	-162.938	-30.4369
  10	1	2	0.301824	7.47438	-161.481	-31.35
  11	1	2	-0.079086	10.4108	-156.759	-28.0116
  12	1	2	-0.121043	11.0231	-155.506	-27.8636
  13	1	1	0.148865	11.1373	-154.834	-28.7098
  14	1	2	0.229196	11.4887	-155.14	-26.5857
  15	1	3	-0.312503	12.1148	-153.924	-26.4394
  16	1	1	0.177824	10.6336	-157.991	-24.8356
  17	1	2	-0.142744	10.7398	-157.292	-25.6637
  18	1	2	-0.093344	10.2729	-157.625	-26.9436
  19	1	1	0.162888	14.0119	-152.408	-25.4999
  20	1	1	0.147794	13.853	-150.865	-23.5814
  21	1	2	-0.172056	13.0776	-152.318	-24.9533
  22	1	2	-0.198933	12.9751	-151.439	-23.8599
  23	1	2	0.236899	11.98	-153.093	-25.3504
  24	1	2	0.029337	11.7583	-151.308	-23.1492
  25	1	4	0.180684	11.5871	-150.356	-21.9413
  26	1	2	-0.223565	10.7619	-152.966	-24.6638
  27	1	2	-0.141841	10.6556	-152.084	-23.573
  28	1	1	0.17153	9.89759	-153.54	-24.9843
  29	1	1	0.139148	9.70278	-151.994	-23.0568
  30	1	2	-0.185386	11.3567	-156.032	-25.494
  31	1	1	0.155741	11.746	-155.749	-24.5202
  32	1	4	-0.198622	12.8439	-149.488	-21.6607
  33	1	4	-0.188008	11.367	-151.241	-20.6829
  34	1	5	0.060726	12.664	-148.81	-20.8168
  35	1	5	0.058265	13.1019	-148.868	-22.5284
  36	1	5	0.044015	13.7129	-150.108	-21.406
  37	1	5	0.049647	10.4174	-151.788	-20.7373
  38	1	5	0.045128	11.366	-150.644	-19.7623
  39	1	5	0.061555	12.1716	-151.982	-20.5894
  40	1	1	0.151962	9.47126	-149.518	-20.25
  41	1	2	-0.211106	9.44324	-149.065	-21.236
  42	1	2	-0.169243	8.42158	-148.138	-21.514
  43	1	1	0.166678	7.67931	-147.892	-20.7603
  44	1	2	0.259195	8.36414	-147.501	-22.7602
  45	1	2	-0.207473	9.31847	-147.807	-23.7412
  46	1	1	0.171716	9.26769	-147.32	-24.7105
  47	1	2	-0.169975	10.3382	-148.735	-23.4667
  48	1	1	0.141932	11.0776	-148.949	-24.235
  49	1	2	0.050656	10.418	-149.382	-22.2124
  50	1	6	0.518059	9.59959	-158.859	-27.4354
  51	1	6	0.507614	9.82785	-157.412	-29.2145
  52	1	7	-0.122906	9.36687	-158.654	-28.7911
  53	1	8	-0.496938	9.32228	-159.838	-26.7648
  54	1	8	-0.484992	9.76949	-156.932	-30.3329
  55	1	2	-0.048962	9.01865	-143.373	-23.7917
  56	1	6	0.0776	10.1522	-142.426	-23.6516
  57	1	8	-0.391129	11.1751	-142.631	-23.0182
  58	1	2	0.038503	8.05484	-142.787	-24.5898
  59	1	6	0.061082	8.53234	-141.439	-24.992
  60	1	7	0.459351	9.78328	-141.294	-24.3843
  61	1	8	-0.403808	7.91843	-140.639	-25.6803
  62	1	2	-0.02278	8.83845	-144.645	-23.2361
  63	1	2	-0.06542	6.84945	-143.438	-24.8799
  64	1	2	0.157218	7.63495	-145.327	-23.5234
  65	1	1	0.144625	9.60076	-145.08	-22.5964
  66	1	2	-0.259423	6.64691	-144.723	-24.332
  67	1	3	-0.32062	7.38053	-146.573	-23.0015
  68	1	1	0.165981	6.09775	-142.955	-25.5008
  69	1	1	0.168674	5.7221	-145.259	-24.5268
  70	1	1	0.207625	11.185	-140.126	-22.3854
  71	1	2	-0.428502	11.2523	-139.6	-23.3347
  72	1	2	-0.035773	12.017	-138.423	-23.4044
  73	1	1	0.142536	12.5213	-138.06	-22.5109
  74	1	2	0.020215	12.1221	-137.708	-24.6119
  75	1	2	-0.058677	11.4611	-138.204	-25.7513
  76	1	1	0.147375	11.5271	-137.667	-26.6955
  77	1	2	-0.40884	10.7052	-139.389	-25.6792
  78	1	1	0.20403	10.192	-139.741	-26.5711
  79	1	2	0.301824	10.5801	-140.105	-24.4687
  80	1	2	-0.079086	13.7469	-134.433	-24.1542
  81	1	2	-0.121043	14.0854	-133.211	-23.5564
  82	1	1	0.148865	13.6494	-132.91	-22.608
  83	1	2	0.229196	15.0155	-132.387	-24.2176
  84	1	3	-0.312503	15.359	-131.187	-23.6409
  85	1	1	0.177824	15.6258	-134.334	-27.0029
  86	1	2	-0.142744	15.2109	-134.015	-26.0478
  87	1	2	-0.093344	14.2961	-134.825	-25.3601
  88	1	1	0.162888	17.6089	-132.617	-23.3943
  89	1	1	0.147794	19.8877	-131.697	-23.3207
  90	1	2	-0.172056	17.7543	-131.542	-23.4621
  91	1	2	-0.198933	19.0546	-131.008	-23.4133
  92	1	2	0.236899	16.6421	-130.694	-23.5936
  93	1	2	0.029337	19.2654	-129.61	-23.4819
  94	1	4	0.180684	20.6725	-128.969	-23.4474
  95	1	2	-0.223565	16.8351	-129.309	-23.6479
  96	1	2	-0.141841	18.1339	-128.772	-23.5972
  97	1	1	0.17153	15.9715	-128.656	-23.7353
  98	1	1	0.139148	18.2631	-127.694	-23.6471
  99	1	2	-0.185386	15.5653	-132.78	-25.4619
 100	1	1	0.155741	16.2631	-132.121	-25.9711
 101	1	4	-0.198622	20.9504	-128.397	-24.8651
 102	1	4	-0.188008	21.8049	-129.989	-23.1485
 103	1	5	0.060726	20.8192	-129.177	-25.6265
 104	1	5	0.058265	21.9775	-128.022	-24.9548
 105	1	5	0.044015	20.2622	-127.578	-25.1093
 106	1	5	0.049647	21.8816	-130.748	-23.9375
 107	1	5	0.045128	21.6395	-130.5	-22.1917
 108	1	5	0.061555	22.7755	-129.48	-23.0854
 109	1	1	0.151962	21.6276	-126.297	-23.5132
 110	1	2	-0.211106	21.2386	-126.595	-22.5447
 111	1	2	-0.169243	21.2714	-125.656	-21.4956
 112	1	1	0.166678	21.6749	-124.661	-21.6596
 113	1	2	0.259195	20.7899	-126.001	-20.2239
 114	1	2	-0.207473	20.2922	-127.289	-19.996
 115	1	1	0.171716	19.9323	-127.551	-19.0056
 116	1	2	-0.169975	20.2551	-128.227	-21.0431
 117	1	1	0.141932	19.8628	-129.223	-20.848
 118	1	2	0.050656	20.7193	-127.895	-22.3359
 119	1	6	0.518059	13.7366	-136.16	-25.7086
 120	1	6	0.507614	12.8197	-135.502	-23.6992
 121	1	7	-0.122906	12.8709	-136.494	-24.6727
 122	1	8	-0.496938	14.0077	-136.811	-26.7026
 123	1	8	-0.484992	12.1661	-135.49	-22.6704
 124	1	2	-0.048962	19.8743	-121.675	-18.2905
 125	1	6	0.0776	20.0887	-120.457	-17.4689
 126	1	8	-0.391129	20.9349	-120.322	-16.6002
 127	1	2	0.038503	18.8287	-121.434	-19.1615
 128	1	6	0.061082	18.3292	-120.054	-18.9308
 129	1	7	0.459351	19.1395	-119.534	-17.918
 130	1	8	-0.403808	17.4251	-119.507	-19.5422
 131	1	2	-0.02278	20.5575	-122.898	-18.2862
 132	1	2	-0.06542	18.4042	-122.4	-20.0807
 133	1	2	0.157218	20.1557	-123.887	-19.2069
 134	1	1	0.144625	21.3764	-123.078	-17.5959
 135	1	2	-0.259423	19.0788	-123.64	-20.0953
 136	1	3	-0.32062	20.8132	-125.096	-19.1913
 137	1	1	0.165981	17.5781	-122.19	-20.7568
 138	1	1	0.168674	18.7578	-124.412	-20.7899
 139	1	1	0.207625	16.8848	-118.157	-17.2892
 140	1	2	-0.428502	17.8016	-117.59	-17.1453
 141	1	2	-0.035773	17.7206	-116.258	-16.6945
 142	1	1	0.142536	16.7464	-115.821	-16.4848
 143	1	2	0.020215	18.8881	-115.49	-16.5197
 144	1	2	-0.058677	20.1342	-116.083	-16.7974
 145	1	1	0.147375	21.0504	-115.51	-16.6672
 146	1	2	-0.40884	20.2101	-117.41	-17.2514
 147	1	1	0.20403	21.187	-117.841	-17.4584
 148	1	2	0.301824	19.0476	-118.188	-17.4343
 149	1	2	-0.079086	18.3091	-112.246	-14.8638
 150	1	2	-0.121043	17.8055	-111.308	-13.9492
 151	1	1	0.148865	17.0677	-111.592	-13.2041
 152	1	2	0.229196	18.292	-109.988	-14.0165
 153	1	3	-0.312503	17.7982	-109.056	-13.1325
 154	1	1	0.177824	20.4731	-110.321	-16.6722
 155	1	2	-0.142744	19.7379	-110.582	-15.9121
 156	1	2	-0.093344	19.2468	-111.891	-15.8145
 157	1	1	0.162888	17.008	-106.58	-12.8415
 158	1	1	0.147794	18.3235	-104.726	-11.8494
 159	1	2	-0.172056	18.01	-106.764	-12.4657
 160	1	2	-0.198933	18.761	-105.72	-11.8947
 161	1	2	0.236899	18.5522	-108.052	-12.5707
 162	1	2	0.029337	20.0627	-105.951	-11.3927
 163	1	4	0.180684	20.8976	-104.783	-10.815
 164	1	2	-0.223565	19.8452	-108.298	-12.0845
 165	1	2	-0.141841	20.5952	-107.257	-11.5076
 166	1	1	0.17153	20.2647	-109.297	-12.154
 167	1	1	0.139148	21.599	-107.479	-11.1605
 168	1	2	-0.185386	19.246	-109.625	-14.9985
 169	1	1	0.155741	19.5969	-108.599	-15.0532
 170	1	4	-0.198622	21.7032	-104.175	-11.9949
 171	1	4	-0.188008	21.9391	-105.263	-9.76368
 172	1	5	0.060726	22.344	-104.935	-12.4605
 173	1	5	0.058265	22.3527	-103.357	-11.6576
 174	1	5	0.044015	21.0332	-103.792	-12.775
 175	1	5	0.049647	22.7508	-105.84	-10.2229
 176	1	5	0.045128	21.472	-105.89	-8.99387
 177	1	5	0.061555	22.4009	-104.404	-9.25962
 178	1	1	0.151962	19.2302	-105.191	-8.67594
 179	1	2	-0.211106	19.2086	-104.153	-8.99963
 180	1	2	-0.169243	18.4055	-103.233	-8.2992
 181	1	1	0.166678	17.8194	-103.553	-7.44279
 182	1	2	0.259195	18.3632	-101.888	-8.69059
 183	1	2	-0.207473	19.0977	-101.476	-9.81349
 184	1	1	0.171716	19.0435	-100.441	-10.1383
 185	1	2	-0.169975	19.9072	-102.392	-10.5104
 186	1	1	0.141932	20.4701	-102.026	-11.3629
 187	1	2	0.050656	19.9869	-103.747	-10.1072
 188	1	6	0.518059	19.5788	-113.103	-16.6102
 189	1	6	0.507614	18.0174	-113.697	-15.0233
 190	1	7	-0.122906	18.8198	-114.137	-16.0713
 191	1	8	-0.496938	20.3797	-113.155	-17.5277
 192	1	8	-0.484992	17.2456	-114.352	-14.3441
 193	1	2	-0.048962	17.2763	-97.4246	-7.24821
 194	1	6	0.0776	16.4372	-96.2166	-7.03064
 195	1	8	-0.391129	15.2186	-96.1774	-7.08116
 196	1	2	0.038503	18.6008	-97.0661	-7.08484
 197	1	6	0.061082	18.6653	-95.6181	-6.76665
 198	1	7	0.459351	17.3362	-95.1839	-6.74184
 199	1	8	-0.403808	19.6864	-94.975	-6.58084
 200	1	2	-0.02278	16.9079	-98.7434	-7.55043
 201	1	2	-0.06542	19.6344	-98.0028	-7.1975
 202	1	2	0.157218	17.9313	-99.7038	-7.69097
 203	1	1	0.144625	15.8644	-99.0181	-7.67267
 204	1	2	-0.259423	19.2861	-99.3371	-7.49674
 205	1	3	-0.32062	17.5814	-101.005	-7.97951
 206	1	1	0.165981	20.6687	-97.7008	-7.04586
 207	1	1	0.168674	20.0669	-100.089	-7.5683
 208	1	1	0.207625	18.4074	-93.5877	-4.84095
 209	1	2	-0.428502	17.5955	-93.1225	-5.39543
 210	1	2	-0.035773	17.2241	-91.806	-5.07458
 211	1	1	0.142536	17.7488	-91.2832	-4.27747
 212	1	2	0.020215	16.1791	-91.1666	-5.76684
 213	1	2	-0.058677	15.5225	-91.8685	-6.79558
 214	1	1	0.147375	14.7113	-91.3933	-7.3439
 215	1	2	-0.40884	15.9041	-93.1851	-7.11938
 216	1	1	0.20403	15.3731	-93.7084	-7.91142
 217	1	2	0.301824	16.9459	-93.8388	-6.42398
 218	1	2	-0.079086	15.2085	-87.6136	-5.52407
 219	1	2	-0.121043	14.8889	-86.3051	-5.92059
 220	1	1	0.148865	14.8374	-86.0336	-6.97127
 221	1	2	0.229196	14.6497	-85.3476	-4.91393
 222	1	3	-0.312503	14.3396	-84.0574	-5.27651
 223	1	1	0.177824	15.0836	-87.3312	-2.12301
 224	1	2	-0.142744	15.0297	-87.0336	-3.16922
 225	1	2	-0.093344	15.2776	-87.9627	-4.18868
 226	1	1	0.162888	16.8358	-83.6866	-4.43483
 227	1	1	0.147794	17.6813	-81.6983	-3.26675
 228	1	2	-0.172056	16.1579	-82.8679	-4.21156
 229	1	2	-0.198933	16.6327	-81.7237	-3.54505
 230	1	2	0.236899	14.8149	-82.9516	-4.60995
 231	1	2	0.029337	15.7717	-80.6345	-3.26557
 232	1	4	0.180684	16.2608	-79.3302	-2.58305
 233	1	2	-0.223565	13.9498	-81.8833	-4.34282
 234	1	2	-0.141841	14.4219	-80.7389	-3.67296
 235	1	1	0.17153	12.9134	-81.9479	-4.66078
 236	1	1	0.139148	13.734	-79.9206	-3.47463
 237	1	2	-0.185386	14.7107	-85.713	-3.54767
 238	1	1	0.155741	14.5048	-84.9689	-2.7836
 239	1	4	-0.198622	16.0886	-78.1875	-3.62429
 240	1	4	-0.188008	17.7671	-79.3761	-2.20857
 241	1	5	0.060726	16.5086	-78.485	-4.59401
 242	1	5	0.058265	16.6054	-77.2695	-3.32032
 243	1	5	0.044015	15.0302	-77.9436	-3.77875
 244	1	5	0.049647	18.3971	-79.5228	-3.09512
 245	1	5	0.045128	17.9707	-80.1854	-1.49562
 246	1	5	0.061555	18.082	-78.4378	-1.73442
 247	1	1	0.151962	14.9847	-81.1118	-0.850012
 248	1	2	-0.211106	14.9165	-80.0815	-0.510055
 249	1	2	-0.169243	14.2761	-79.8143	0.71568
 250	1	1	0.166678	13.8504	-80.6237	1.3014
 251	1	2	0.259195	14.1989	-78.5053	1.21084
 252	1	2	-0.207473	14.7818	-77.4601	0.475337
 253	1	1	0.171716	14.767	-76.4475	0.86636
 254	1	2	-0.169975	15.4138	-77.7237	-0.753393
 255	1	1	0.141932	15.8765	-76.8957	-1.2806
 256	1	2	0.050656	15.4847	-79.0368	-1.27535
 257	1	6	0.518059	15.6458	-89.4005	-4.10389
 258	1	6	0.507614	15.5339	-88.8231	-6.33174
 259	1	7	-0.122906	15.7904	-89.8384	-5.41543
 260	1	8	-0.496938	15.8035	-90.0361	-3.07576
 261	1	8	-0.484992	15.5779	-88.8825	-7.54828
 262	1	2	-0.048962	12.974	-75.4239	4.62594
 263	1	6	0.0776	13.1649	-74.7146	5.91757
 264	1	8	-0.391129	13.8376	-75.1085	6.85632
 265	1	2	0.038503	12.1423	-74.6593	3.82904
 266	1	6	0.061082	11.7683	-73.4319	4.57599
 267	1	7	0.459351	12.4122	-73.5413	5.81147
 268	1	8	-0.403808	11.0562	-72.5309	4.16152
 269	1	2	-0.02278	13.4829	-76.6531	4.18505
 270	1	2	-0.06542	11.7651	-75.0781	2.54729
 271	1	2	0.157218	13.1313	-77.0886	2.89115
 272	1	1	0.144625	14.1307	-77.2503	4.81991
 273	1	2	-0.259423	12.2674	-76.3126	2.08239
 274	1	3	-0.32062	13.6119	-78.2961	2.44067
 275	1	1	0.165981	11.0992	-74.4656	1.94268
 276	1	1	0.168674	11.9831	-76.6763	1.09894
 277	1	1	0.207625	14.4119	-72.5702	7.36514
 278	1	2	-0.428502	13.4383	-72.1344	7.57755
 279	1	2	-0.035773	13.3322	-71.1545	8.58122
 280	1	1	0.142536	14.2228	-70.8385	9.1211
 281	1	2	0.020215	12.0863	-70.5737	8.88291
 282	1	2	-0.058677	10.9491	-70.9964	8.17132
 283	1	1	0.147375	9.9772	-70.5578	8.38918
 284	1	2	-0.40884	11.0596	-71.9773	7.17057
 285	1	1	0.20403	10.1681	-72.2748	6.62296
 286	1	2	0.301824	12.3051	-72.5595	6.85045
 287	1	2	-0.079086	11.2417	-68.2835	11.6408
 288	1	2	-0.121043	10.5518	-67.7465	12.7377
 289	1	1	0.148865	9.68624	-68.2505	13.1584
 290	1	2	0.229196	11.0083	-66.5269	13.2735
 291	1	3	-0.312503	10.3412	-65.9852	14.3476
 292	1	1	0.177824	13.6956	-65.9539	11.1815
 293	1	2	-0.142744	12.8242	-66.4388	11.6193
 294	1	2	-0.093344	12.3434	-67.648	11.0996
 295	1	1	0.162888	11.0111	-64.7102	16.542
 296	1	1	0.147794	10.9138	-62.2475	16.8803
 297	1	2	-0.172056	10.6388	-64.0639	15.7525
 298	1	2	-0.198933	10.5876	-62.6695	15.9329
 299	1	2	0.236899	10.232	-64.6304	14.5387
 300	1	2	0.029337	10.1226	-61.8177	14.9041
 301	1	4	0.180684	10.1253	-60.2842	15.1271
 302	1	2	-0.223565	9.74051	-63.8062	13.5171
 303	1	2	-0.141841	9.68396	-62.4135	13.6967
 304	1	1	0.17153	9.41214	-64.2505	12.582
 305	1	1	0.139148	9.30327	-61.8128	12.8772
 306	1	2	-0.185386	12.1424	-65.8812	12.7211
 307	1	1	0.155741	12.4953	-64.9484	13.1518
 308	1	4	-0.198622	9.67426	-59.4965	13.8658
 309	1	4	-0.188008	11.5945	-59.8628	15.4175
 310	1	5	0.060726	10.3137	-59.722	13.0029
 311	1	5	0.058265	9.72496	-58.4136	14.0364
 312	1	5	0.044015	8.63487	-59.7338	13.6047
 313	1	5	0.049647	11.9216	-60.2058	16.4066
 314	1	5	0.045128	11.7285	-58.7751	15.3817
 315	1	5	0.061555	12.2731	-60.2945	14.6706
 316	1	1	0.151962	7.98365	-61.6924	16.2867
 317	1	2	-0.211106	8.12524	-60.7047	16.7181
 318	1	2	-0.169243	7.21141	-60.2626	17.6943
 319	1	1	0.166678	6.38874	-60.898	18.0086
 320	1	2	0.259195	7.32219	-58.9735	18.2301
 321	1	2	-0.207473	8.3702	-58.1382	17.8179
 322	1	1	0.171716	8.44794	-57.1348	18.2256
 323	1	2	-0.169975	9.2883	-58.5807	16.8519
 324	1	1	0.141932	10.062	-57.8942	16.5227
 325	1	2	0.050656	9.18023	-59.8684	16.2788
 326	1	6	0.518059	12.8346	-68.4654	9.95823
 327	1	6	0.507614	10.9949	-69.5241	10.8573
 328	1	7	-0.122906	11.9796	-69.5574	9.87628
 329	1	8	-0.496938	13.7892	-68.2028	9.24739
 330	1	8	-0.484992	10.0924	-70.3221	11.0422
 331	1	2	-0.048962	5.0841	-55.0858	19.5076
 332	1	6	0.0776	4.91664	-53.8617	20.3315
 333	1	8	-0.391129	5.21613	-53.7428	21.5083
 334	1	2	0.038503	4.64988	-54.8063	18.2241
 335	1	6	0.061082	4.19447	-53.395	18.1726
 336	1	7	0.459351	4.39511	-52.9006	19.4623
 337	1	8	-0.403808	3.77665	-52.8101	17.1859
 338	1	2	-0.02278	5.63134	-56.3321	19.8422
 339	1	2	-0.06542	4.71801	-55.7587	17.2016
 340	1	2	0.157218	5.73471	-57.2983	18.8218
 341	1	1	0.144625	6.00077	-56.532	20.8437
 342	1	2	-0.259423	5.269	-57.0183	17.5145
 343	1	3	-0.32062	6.35514	-58.497	19.0815
 344	1	1	0.165981	4.37568	-55.5156	16.1978
 345	1	1	0.168674	5.35658	-57.7747	16.7393
 346	1	1	0.207625	5.1656	-50.6905	18.1219
 347	1	2	-0.428502	4.62604	-50.4784	19.0422
 348	1	2	-0.035773	4.41007	-49.1415	19.4171
 349	1	1	0.142536	4.79474	-48.3389	18.7909
 350	1	2	0.020215	3.70926	-48.8372	20.5985
 351	1	2	-0.058677	3.22231	-49.8912	21.3938
 352	1	1	0.147375	2.67809	-49.6732	22.3107
 353	1	2	-0.40884	3.44267	-51.228	21.0163
 354	1	1	0.20403	3.07587	-52.0285	21.6547
 355	1	2	0.301824	4.1495	-51.5426	19.8366
 356	1	2	-0.079086	2.55306	-45.5284	21.7246
 357	1	2	-0.121043	1.68921	-44.5284	22.194
 358	1	1	0.148865	0.643217	-44.7404	22.3966
 359	1	2	0.229196	2.21603	-43.2376	22.3932
 360	1	3	-0.312503	1.37692	-42.2534	22.8628
 361	1	1	0.177824	5.49417	-43.8136	21.4696
 362	1	2	-0.142744	4.43894	-43.9963	21.6678
 363	1	2	-0.093344	3.88529	-45.2673	21.4664
 364	1	1	0.162888	1.70641	-40.4654	24.7497
 365	1	1	0.147794	2.2049	-38.0526	24.3983
 366	1	2	-0.172056	1.77275	-40.0609	23.744
 367	1	2	-0.198933	2.05431	-38.6986	23.5366
 368	1	2	0.236899	1.60026	-40.9164	22.6496
 369	1	2	0.029337	2.15174	-38.1666	22.2305
 370	1	4	0.180684	2.51425	-36.6748	22.0472
 371	1	2	-0.223565	1.68888	-40.4076	21.3464
 372	1	2	-0.141841	1.96429	-39.0444	21.1365
 373	1	1	0.17153	1.55233	-41.0761	20.5014
 374	1	1	0.139148	2.04161	-38.6886	20.1142
 375	1	2	-0.185386	3.58643	-42.9768	22.1401
 376	1	1	0.155741	3.99154	-41.9849	22.3177
 377	1	4	-0.198622	2.26855	-36.1569	20.6038
 378	1	4	-0.188008	4.03791	-36.55	22.3212
 379	1	5	0.060726	2.45328	-35.0762	20.5466
 380	1	5	0.058265	1.23159	-36.3316	20.2902
 381	1	5	0.044015	2.93602	-36.6404	19.8796
 382	1	5	0.049647	4.2746	-36.7916	23.3652
 383	1	5	0.045128	4.40719	-35.5393	22.1064
 384	1	5	0.061555	4.6017	-37.2451	21.6859
 385	1	1	0.151962	-0.203478	-36.7605	22.4027
 386	1	2	-0.211106	0.253176	-35.9927	23.0232
 387	1	2	-0.169243	-0.566404	-35.2004	23.8486
 388	1	1	0.166678	-1.64145	-35.3527	23.8685
 389	1	2	0.259195	-0.00263222	-34.2055	24.6574
 390	1	2	-0.207473	1.3852	-33.9923	24.6238
 391	1	1	0.171716	1.82527	-33.2065	25.2301
 392	1	2	-0.169975	2.20558	-34.7816	23.7988
 393	1	1	0.141932	3.27142	-34.5784	23.794
 394	1	2	0.050656	1.65309	-35.802	22.9897
 395	1	6	0.518059	4.51872	-46.5242	20.9882
 396	1	6	0.507614	2.29744	-46.9627	21.4221
 397	1	7	-0.122906	3.51216	-47.4819	20.9901
 398	1	8	-0.496938	5.68481	-46.6581	20.6593
 399	1	8	-0.484992	1.23258	-47.5435	21.5407
 400	1	2	-0.048962	-0.129239	-31.0676	28.1551
 401	1	6	0.0776	-0.128072	-29.6843	28.6965
 402	1	8	-0.391129	-0.550586	-28.6923	28.1256
 403	1	2	0.038503	0.447725	-31.9025	29.0943
 404	1	6	0.061082	0.839906	-31.0908	30.272
 405	1	7	0.459351	0.467601	-29.7815	29.957
 406	1	8	-0.403808	1.37364	-31.5132	31.2854
 407	1	2	-0.02278	-0.585183	-31.5563	26.9237
 408	1	2	-0.06542	0.5986	-33.2751	28.8659
 409	1	2	0.157218	-0.425825	-32.932	26.6635
 410	1	1	0.144625	-1.02847	-30.8935	26.1864
 411	1	2	-0.259423	0.152965	-33.7879	27.6297
 412	1	3	-0.32062	-0.824095	-33.4385	25.451
 413	1	1	0.165981	1.05125	-33.9127	29.6227
 414	1	1	0.168674	0.255167	-34.8481	27.4141
 415	1	1	0.207625	-1.27375	-27.7827	30.5247
 416	1	2	-0.428502	-0.327386	-27.7063	31.0556
 417	1	2	-0.035773	-0.129475	-26.6425	31.9547
 418	1	1	0.142536	-0.925399	-25.9178	32.1149
 419	1	2	0.020215	1.08356	-26.5205	32.6577
 420	1	2	-0.058677	2.10302	-27.4614	32.4248
 421	1	1	0.147375	3.04513	-27.3884	32.9646
 422	1	2	-0.40884	1.90352	-28.518	31.5211
 423	1	1	0.20403	2.69559	-29.2507	31.384
 424	1	2	0.301824	0.680996	-28.6689	30.833
 425	1	2	-0.079086	1.2957	-23.4417	34.6687
 426	1	2	-0.121043	1.18967	-22.0867	35.0156
 427	1	1	0.148865	0.791139	-21.3573	34.3161
 428	1	2	0.229196	1.62658	-21.6953	36.2962
 429	1	3	-0.312503	1.5436	-20.3659	36.6422
 430	1	1	0.177824	2.62144	-24.7671	37.5229
 431	1	2	-0.142744	2.23106	-24.0154	36.8381
 432	1	2	-0.093344	1.80789	-24.3728	35.5521
 433	1	1	0.162888	4.19293	-20.4059	36.6477
 434	1	1	0.147794	5.64174	-19.5226	38.4401
 435	1	2	-0.172056	3.74986	-19.9053	37.5038
 436	1	2	-0.198933	4.56757	-19.3957	38.5282
 437	1	2	0.236899	2.35381	-19.7971	37.5933
 438	1	2	0.029337	3.99965	-18.7579	39.6559
 439	1	4	0.180684	4.8615	-18.2482	40.8331
 440	1	2	-0.223565	1.77571	-19.1571	38.6946
 441	1	2	-0.141841	2.59073	-18.6494	39.7213
 442	1	1	0.17153	0.694187	-19.0834	38.7594
 443	1	1	0.139148	2.11683	-18.1821	40.5811
 444	1	2	-0.185386	2.12957	-22.6589	37.207
 445	1	1	0.155741	2.44101	-22.3552	38.2024
 446	1	4	-0.198622	6.33477	-17.96	40.4258
 447	1	4	-0.188008	4.90765	-19.3832	41.8911
 448	1	5	0.060726	6.38949	-17.2998	39.5515
 449	1	5	0.058265	6.8789	-18.8822	40.187
 450	1	5	0.044015	6.87297	-17.4706	41.2478
 451	1	5	0.049647	5.34459	-20.2948	41.4634
 452	1	5	0.045128	3.90056	-19.6401	42.2432
 453	1	5	0.061555	5.51833	-19.097	42.757
 454	1	1	0.151962	3.78528	-17.629	43.3934
 455	1	2	-0.211106	3.75521	-16.7992	42.6946
 456	1	2	-0.169243	3.1814	-15.589	43.1264
 457	1	1	0.166678	2.77721	-15.5001	44.1305
 458	1	2	0.259195	3.12015	-14.4873	42.26
 459	1	2	-0.207473	3.60075	-14.607	40.9512
 460	1	1	0.171716	3.52687	-13.7575	40.2789
 461	1	2	-0.169975	4.1648	-15.8178	40.5136
 462	1	1	0.141932	4.51746	-15.8961	39.488
 463	1	2	0.050656	4.25996	-16.9312	41.3779
 464	1	6	0.518059	1.79703	-25.6997	34.8852
 465	1	6	0.507614	0.936642	-24.151	33.4103
 466	1	7	-0.122906	1.26874	-25.4848	33.6182
 467	1	8	-0.496938	2.18877	-26.7459	35.3724
 468	1	8	-0.484992	0.448636	-23.6457	32.4145
 469	1	2	-0.048962	2.43357	-10.7002	45.2115
 470	1	6	0.0776	1.80238	-9.47303	45.7557
 471	1	8	-0.391129	0.78103	-8.95099	45.3392
 472	1	2	0.038503	3.57738	-10.9632	45.9407
 473	1	6	0.061082	3.72115	-9.91813	46.9874
 474	1	7	0.459351	2.63794	-9.05678	46.7957
 475	1	8	-0.403808	4.63462	-9.82929	47.7923
 476	1	2	-0.02278	2.06234	-11.4907	44.1176
 477	1	2	-0.06542	4.42299	-12.0297	45.6125
 478	1	2	0.157218	2.893	-12.5724	43.7657
 479	1	1	0.144625	1.17281	-11.2599	43.5389
 480	1	2	-0.259423	4.07424	-12.8348	44.5057
 481	1	3	-0.32062	2.54706	-13.3026	42.6506
 482	1	1	0.165981	5.33339	-12.2037	46.1825
 483	1	1	0.168674	4.73753	-13.6423	44.2108
 484	1	1	0.207625	2.86201	-8.69968	49.4783
 485	1	2	-0.428502	2.58797	-7.79764	48.9357
 486	1	2	-0.035773	2.40204	-6.59656	49.6468
 487	1	1	0.142536	2.51824	-6.58646	50.7288
 488	1	2	0.020215	2.06828	-5.40996	48.9667
 489	1	2	-0.058677	1.92178	-5.44645	47.5684
 490	1	1	0.147375	1.66334	-4.53994	47.0247
 491	1	2	-0.40884	2.10791	-6.64676	46.8631
 492	1	1	0.20403	1.98253	-6.64799	45.7827
 493	1	2	0.301824	2.4414	-7.84356	47.5319
 494	1	2	-0.079086	1.88144	-1.9591	50.2289
 495	1	2	-0.121043	2.07935	-0.572761	50.2806
 496	1	1	0.148865	2.71384	-0.0705003	49.5558
 497	1	2	0.229196	1.43378	0.154033	51.2986
 498	1	3	-0.312503	1.66761	1.50792	51.3666
 499	1	1	0.177824	-0.178664	-2.44233	52.9065
 500	1	2	-0.142744	0.439839	-1.91286	52.1832
 501	1	2	-0.093344	1.08247	-2.61005	51.1491
 502	1	1	0.162888	-1.03313	1.40153	51.1946
 503	1	1	0.147794	-2.56144	3.24691	51.7509
 504	1	2	-0.172056	-0.625795	2.33576	51.5681
 505	1	2	-0.198933	-1.495	3.39895	51.8828
 506	1	2	0.236899	0.764785	2.49126	51.7063
 507	1	2	0.029337	-0.989856	4.64436	52.3274
 508	1	4	0.180684	-1.90381	5.85935	52.6177
 509	1	2	-0.223565	1.27557	3.7242	52.1288
 510	1	2	-0.141841	0.411271	4.79055	52.4307
 511	1	1	0.17153	2.35123	3.85303	52.2035
 512	1	1	0.139148	0.839025	5.74254	52.7359
 513	1	2	-0.185386	0.632098	-0.514852	52.2558
 514	1	1	0.155741	0.17067	0.051816	53.0592
 515	1	4	-0.198622	-3.37285	5.45359	52.9194
 516	1	4	-0.188008	-1.92792	6.71966	51.3255
 517	1	5	0.060726	-3.86789	5.0301	52.0368
 518	1	5	0.058265	-3.95732	6.32997	53.2288
 519	1	5	0.044015	-3.42474	4.71583	53.7298
 520	1	5	0.049647	-0.928138	7.10528	51.0882
 521	1	5	0.045128	-2.61594	7.56948	51.4189
 522	1	5	0.061555	-2.26007	6.12017	50.4681
 523	1	1	0.151962	-1.27499	8.6145	52.9408
 524	1	2	-0.211106	-1.11849	8.02493	53.8385
 525	1	2	-0.169243	-0.634254	8.68055	54.9867
 526	1	1	0.166678	-0.417229	9.74412	54.9554
 527	1	2	0.259195	-0.414564	7.96306	56.1738
 528	1	2	-0.207473	-0.668533	6.58639	56.2025
 529	1	1	0.171716	-0.483387	6.03329	57.1184
 530	1	2	-0.169975	-1.15495	5.92958	55.0574
 531	1	1	0.141932	-1.34447	4.8595	55.1002
 532	1	2	0.050656	-1.38267	6.63375	53.854
 533	1	6	0.518059	1.07381	-4.0598	50.8046
 534	1	6	0.507614	2.40718	-2.96904	49.2734
 535	1	7	-0.122906	1.87003	-4.18725	49.6724
 536	1	8	-0.496938	0.464615	-4.93483	51.3951
 537	1	8	-0.484992	3.13381	-2.74361	48.3211
 538	1	2	-0.048962	0.425241	11.9137	58.7557
 539	1	6	0.0776	1.26077	12.9722	59.379
 540	1	8	-0.391129	2.45386	12.8896	59.6207
 541	1	2	0.038503	-0.868809	12.3875	58.6497
 542	1	6	0.061082	-0.914948	13.7649	59.2037
 543	1	7	0.459351	0.393472	14.0445	59.6085
 544	1	8	-0.403808	-1.90106	14.4828	59.2523
 545	1	2	-0.02278	0.775149	10.6329	58.3076
 546	1	2	-0.06542	-1.89011	11.611	58.0884
 547	1	2	0.157218	-0.231758	9.83626	57.7257
 548	1	1	0.144625	1.79333	10.2669	58.4012
 549	1	2	-0.259423	-1.55893	10.319	57.6248
 550	1	3	-0.32062	0.0919797	8.56825	57.3013
 551	1	1	0.165981	-2.90354	12.0016	58.0211
 552	1	1	0.168674	-2.33213	9.68535	57.199
 553	1	1	0.207625	-0.913024	15.5124	61.4734
 554	1	2	-0.428502	0.0205722	15.9591	61.1388
 555	1	2	-0.035773	0.407063	17.2054	61.6636
 556	1	1	0.142536	-0.225371	17.6933	62.4026
 557	1	2	0.020215	1.59354	17.8283	61.2319
 558	1	2	-0.058677	2.38822	17.1756	60.271
 559	1	1	0.147375	3.31544	17.6331	59.9313
 560	1	2	-0.40884	1.99503	15.9312	59.745
 561	1	1	0.20403	2.63178	15.445	59.0094
 562	1	2	0.301824	0.803418	15.3011	60.1658
 563	1	2	-0.079086	1.90702	21.2477	62.5692
 564	1	2	-0.121043	1.52247	22.5229	63.0067
 565	1	1	0.148865	0.49607	22.8655	62.9096
 566	1	2	0.229196	2.50502	23.3406	63.5956
 567	1	3	-0.312503	2.14945	24.5833	64.0558
 568	1	1	0.177824	5.22872	21.2362	63.3623
 569	1	2	-0.142744	4.2079	21.6041	63.2686
 570	1	2	-0.093344	3.20804	20.8007	62.7006
 571	1	1	0.162888	2.60319	22.994	66.2012
 572	1	1	0.147794	2.53129	23.7197	68.5415
 573	1	2	-0.172056	2.39915	24.0363	66.424
 574	1	2	-0.198933	2.35814	24.4582	67.7654
 575	1	2	0.236899	2.15453	24.9508	65.3834
 576	1	2	0.029337	2.06894	25.8022	68.0962
 577	1	4	0.180684	1.94371	26.271	69.5632
 578	1	2	-0.223565	1.85591	26.2817	65.6993
 579	1	2	-0.141841	1.8062	26.7033	67.0396
 580	1	1	0.17153	1.64533	26.9813	64.896
 581	1	1	0.139148	1.54608	27.7373	67.2522
 582	1	2	-0.185386	3.84051	22.8917	63.7158
 583	1	1	0.155741	4.58294	23.5469	64.1631
 584	1	4	-0.198622	2.80462	25.4178	70.5396
 585	1	4	-0.188008	0.46394	26.0629	69.9831
 586	1	5	0.060726	2.40851	24.4014	70.6535
 587	1	5	0.058265	2.81633	25.872	71.5389
 588	1	5	0.044015	3.84347	25.3366	70.197
 589	1	5	0.049647	-0.215693	26.6317	69.336
 590	1	5	0.045128	0.296166	26.3703	71.0234
 591	1	5	0.061555	0.181271	25.0057	69.8995
 592	1	1	0.151962	0.492354	28.6062	70.2903
 593	1	2	-0.211106	1.54197	28.7912	70.0856
 594	1	2	-0.169243	2.02202	30.1056	70.2315
 595	1	1	0.166678	1.35779	30.9047	70.5474
 596	1	2	0.259195	3.37251	30.3921	69.9981
 597	1	2	-0.207473	4.24106	29.3743	69.5861
 598	1	1	0.171716	5.28592	29.6073	69.4041
 599	1	2	-0.169975	3.76149	28.0616	69.4305
 600	1	1	0.141932	4.44934	27.2836	69.1092
 601	1	2	0.050656	2.41093	27.7414	69.6991
 602	1	6	0.518059	3.27172	19.41	62.1734
 603	1	6	0.507614	1.10375	20.1589	61.9527
 604	1	7	-0.122906	1.98073	19.0964	61.7613
 605	1	8	-0.496938	4.26358	18.7024	62.1461
 606	1	8	-0.484992	-0.0882319	20.2047	61.7032
 607	1	2	-0.048962	5.62336	33.6818	72.7133
 608	1	6	0.0776	6.27459	34.9582	73.0988
 609	1	8	-0.391129	6.40437	35.9399	72.3857
 610	1	2	0.038503	5.68429	32.8194	73.792
 611	1	6	0.061082	6.37316	33.5093	74.9131
 612	1	7	0.459351	6.69019	34.7762	74.4201
 613	1	8	-0.403808	6.57604	33.0511	76.0265
 614	1	2	-0.02278	5.01482	33.3092	71.5079
 615	1	2	-0.06542	5.14194	31.5311	73.7285
 616	1	2	0.157218	4.46106	32.017	71.4152
 617	1	1	0.144625	4.96913	33.9977	70.6692
 618	1	2	-0.259423	4.5253	31.1326	72.5232
 619	1	3	-0.32062	3.85477	31.6538	70.2324
 620	1	1	0.165981	5.19742	30.8676	74.5891
 621	1	1	0.168674	4.09569	30.1373	72.458
 622	1	1	0.207625	6.00456	37.3791	74.597
 623	1	2	-0.428502	6.87726	37.1153	75.1901
 624	1	2	-0.035773	7.52894	38.1162	75.9294
 625	1	1	0.142536	7.14486	39.1337	75.9031
 626	1	2	0.020215	8.6727	37.8137	76.6916
 627	1	2	-0.058677	9.15173	36.4898	76.6977
 628	1	1	0.147375	10.0393	36.2319	77.2717
 629	1	2	-0.40884	8.49392	35.4899	75.9595
 630	1	1	0.20403	8.87931	34.4728	75.9874
 631	1	2	0.301824	7.35026	35.7868	75.1884
 632	1	2	-0.079086	9.71479	40.6608	78.7731
 633	1	2	-0.121043	9.59793	41.7758	79.6099
 634	1	1	0.148865	8.61607	42.1285	79.9109
 635	1	2	0.229196	10.7829	42.4088	80.0513
 636	1	3	-0.312503	10.7304	43.5031	80.892
 637	1	1	0.177824	13.1059	40.4066	78.4653
 638	1	2	-0.142744	12.1386	40.7939	78.7853
 639	1	2	-0.093344	10.9455	40.1833	78.3697
 640	1	1	0.162888	9.03836	45.5164	80.7151
 641	1	1	0.147794	6.82912	45.6196	81.8278
 642	1	2	-0.172056	8.76847	44.7714	81.4578
 643	1	2	-0.198933	7.51185	44.8184	82.0928
 644	1	2	0.236899	9.64295	43.7038	81.7044
 645	1	2	0.029337	7.11619	43.7849	82.9753