

################################################################################
##################################    Init    ##################################
################################################################################
units           real
atom_style      full
pair_style      lj/cut/coul/long 12.0  12.0
kspace_style    pppm 1e-4
bond_style      harmonic
angle_style     harmonic
dihedral_style  fourier
improper_style  cvff
special_bonds   amber
pair_modify     mix arithmetic
read_data       temp.lmps
  orthogonal box = (-107.157 -107.157 -107.157) to (107.157 107.157 107.157)
  1 by 1 by 1 MPI processor grid
  reading atoms ...
  138 atoms
  reading velocities ...
  138 velocities
  scanning bonds ...
  3 = max bonds/atom
  scanning angles ...
  6 = max angles/atom
  scanning dihedrals ...
  24 = max dihedrals/atom
  scanning impropers ...
  2 = max impropers/atom
  reading bonds ...
  151 bonds
  reading angles ...
  252 angles
  reading dihedrals ...
  384 dihedrals
  reading impropers ...
  48 impropers
  4 = max # of 1-2 neighbors
  10 = max # of 1-3 neighbors
  19 = max # of 1-4 neighbors
  22 = max # of special neighbors
  special bonds CPU = 0.000329971 secs
  read_data CPU = 0.00489402 secs
################################################################################

timestep        1
fix             pysimm_md all nve/limit 0.1
run             2000
PPPM initialization ...
  using 12-bit tables for long-range coulomb (../kspace.cpp:332)
  G vector (1/distance) = 0.0374594
  grid = 6 6 6
  stencil order = 5
  estimated absolute RMS force accuracy = 0.041598
  estimated relative force accuracy = 0.000125271
  using double precision KISS FFT
  3d grid and FFT values/proc = 1331 216
Neighbor list info ...
  update every 1 steps, delay 10 steps, check yes
  max neighbors/atom: 2000, page size: 100000
  master list distance cutoff = 14
  ghost atom cutoff = 14
  binsize = 7, bins = 31 31 31
  1 neighbor lists, perpetual/occasional/extra = 1 0 0
  (1) pair lj/cut/coul/long, perpetual
      attributes: half, newton on
      pair build: half/bin/newton
      stencil: half/bin/3d/newton
      bin: standard
Per MPI rank memory allocation (min/avg/max) = 17.96 | 17.96 | 17.96 Mbytes
Step Temp E_pair E_mol TotEng Press 
       0    4.1350297    2442.0337    259.78241    2703.5047    67.553908 
    2000    556.11417    36.470443     329.1589    592.73022  -0.63028261 
Loop time of 0.643336 on 1 procs for 2000 steps with 138 atoms

Performance: 268.600 ns/day, 0.089 hours/ns, 3108.795 timesteps/s
99.9% CPU use with 1 MPI tasks x no OpenMP threads

MPI task timing breakdown:
Section |  min time  |  avg time  |  max time  |%varavg| %total
---------------------------------------------------------------
Pair    | 0.21521    | 0.21521    | 0.21521    |   0.0 | 33.45
Bond    | 0.12359    | 0.12359    | 0.12359    |   0.0 | 19.21
Kspace  | 0.28236    | 0.28236    | 0.28236    |   0.0 | 43.89
Neigh   | 0.013003   | 0.013003   | 0.013003   |   0.0 |  2.02
Comm    | 0.00082183 | 0.00082183 | 0.00082183 |   0.0 |  0.13
Output  | 2.6941e-05 | 2.6941e-05 | 2.6941e-05 |   0.0 |  0.00
Modify  | 0.0050108  | 0.0050108  | 0.0050108  |   0.0 |  0.78
Other   |            | 0.003321   |            |       |  0.52

Nlocal:    138 ave 138 max 138 min
Histogram: 1 0 0 0 0 0 0 0 0 0
Nghost:    0 ave 0 max 0 min
Histogram: 1 0 0 0 0 0 0 0 0 0
Neighs:    4529 ave 4529 max 4529 min
Histogram: 1 0 0 0 0 0 0 0 0 0

Total # of neighbors = 4529
Ave neighs/atom = 32.8188
Ave special neighs/atom = 10.6812
Neighbor list builds = 71
Dangerous builds = 0
unfix pysimm_md
min_style cg
minimize 0.001 0.001 10000 100000
WARNING: Using 'neigh_modify every 1 delay 0 check yes' setting during minimization (../min.cpp:190)
PPPM initialization ...
  using 12-bit tables for long-range coulomb (../kspace.cpp:332)
  G vector (1/distance) = 0.0374594
  grid = 6 6 6
  stencil order = 5
  estimated absolute RMS force accuracy = 0.041598
  estimated relative force accuracy = 0.000125271
  using double precision KISS FFT
  3d grid and FFT values/proc = 1331 216
Per MPI rank memory allocation (min/avg/max) = 19.08 | 19.08 | 19.08 Mbytes
Step Temp E_pair E_mol TotEng Press 
    2000    556.11417    36.470443     329.1589    592.73022  -0.63028261 
    2012    556.11417    26.924673    146.55749    400.58305   0.13931708 
Loop time of 0.035444 on 1 procs for 12 steps with 138 atoms

98.7% CPU use with 1 MPI tasks x no OpenMP threads

Minimization stats:
  Stopping criterion = linesearch alpha is zero
  Energy initial, next-to-last, final = 
           365.6293389       173.48216111       173.48216111
  Force two-norm initial, final = 497.135 81.7265
  Force max component initial, final = 121.198 15.086
  Final line search alpha, max atom move = 1.24062e-12 1.87161e-11
  Iterations, force evaluations = 12 85

MPI task timing breakdown:
Section |  min time  |  avg time  |  max time  |%varavg| %total
---------------------------------------------------------------
Pair    | 0.015975   | 0.015975   | 0.015975   |   0.0 | 45.07
Bond    | 0.0061836  | 0.0061836  | 0.0061836  |   0.0 | 17.45
Kspace  | 0.012947   | 0.012947   | 0.012947   |   0.0 | 36.53
Neigh   | 0          | 0          | 0          |   0.0 |  0.00
Comm    | 2.5272e-05 | 2.5272e-05 | 2.5272e-05 |   0.0 |  0.07
Output  | 0          | 0          | 0          |   0.0 |  0.00
Modify  | 0          | 0          | 0          |   0.0 |  0.00
Other   |            | 0.0003123  |            |       |  0.88

Nlocal:    138 ave 138 max 138 min
Histogram: 1 0 0 0 0 0 0 0 0 0
Nghost:    0 ave 0 max 0 min
Histogram: 1 0 0 0 0 0 0 0 0 0
Neighs:    4526 ave 4526 max 4526 min
Histogram: 1 0 0 0 0 0 0 0 0 0

Total # of neighbors = 4526
Ave neighs/atom = 32.7971
Ave special neighs/atom = 10.6812
Neighbor list builds = 0
Dangerous builds = 0
write_dump all custom pysimm.dump.tmp id q x y z vx vy vz
quit


################################################################################
##################################    Init    ##################################
################################################################################
units           real
atom_style      full
pair_style      lj/cut/coul/long 12.0  12.0
kspace_style    pppm 1e-4
bond_style      harmonic
angle_style     harmonic
dihedral_style  fourier
improper_style  cvff
special_bonds   amber
pair_modify     mix arithmetic
read_data       temp.lmps
  orthogonal box = (-107.157 -107.157 -107.157) to (107.157 107.157 107.157)
  1 by 1 by 1 MPI processor grid
  reading atoms ...
  207 atoms
  reading velocities ...
  207 velocities
  scanning bonds ...
  3 = max bonds/atom
  scanning angles ...
  6 = max angles/atom
  scanning dihedrals ...
  24 = max dihedrals/atom
  scanning impropers ...
  2 = max impropers/atom
  reading bonds ...
  227 bonds
  reading angles ...
  380 angles
  reading dihedrals ...
  582 dihedrals
  reading impropers ...
  72 impropers
  4 = max # of 1-2 neighbors
  10 = max # of 1-3 neighbors
  19 = max # of 1-4 neighbors
  22 = max # of special neighbors
  special bonds CPU = 0.000390053 secs
  read_data CPU = 0.005723 secs
################################################################################

timestep        1
fix             pysimm_md all nve/limit 0.1
run             2000
PPPM initialization ...
WARNING: System is not charge neutral, net charge = -1.5e-05 (../kspace.cpp:313)
  using 12-bit tables for long-range coulomb (../kspace.cpp:332)
  G vector (1/distance) = 0.0587778
  grid = 10 10 10
  stencil order = 5
  estimated absolute RMS force accuracy = 0.037915
  estimated relative force accuracy = 0.00011418
  using double precision KISS FFT
  3d grid and FFT values/proc = 3375 1000
Neighbor list info ...
  update every 1 steps, delay 10 steps, check yes
  max neighbors/atom: 2000, page size: 100000
  master list distance cutoff = 14
  ghost atom cutoff = 14
  binsize = 7, bins = 31 31 31
  1 neighbor lists, perpetual/occasional/extra = 1 0 0
  (1) pair lj/cut/coul/long, perpetual
      attributes: half, newton on
      pair build: half/bin/newton
      stencil: half/bin/3d/newton
      bin: standard
Per MPI rank memory allocation (min/avg/max) = 18.11 | 18.11 | 18.11 Mbytes
Step Temp E_pair E_mol TotEng Press 
       0    371.21785     240.9749    370.68573    839.60579    4.2405313 
    2000    482.64466    79.221696    409.02229    784.61042    3.9900016 
Loop time of 1.54338 on 1 procs for 2000 steps with 207 atoms

Performance: 111.962 ns/day, 0.214 hours/ns, 1295.854 timesteps/s
100.0% CPU use with 1 MPI tasks x no OpenMP threads

MPI task timing breakdown:
Section |  min time  |  avg time  |  max time  |%varavg| %total
---------------------------------------------------------------
Pair    | 0.39895    | 0.39895    | 0.39895    |   0.0 | 25.85
Bond    | 0.22317    | 0.22317    | 0.22317    |   0.0 | 14.46
Kspace  | 0.88541    | 0.88541    | 0.88541    |   0.0 | 57.37
Neigh   | 0.020905   | 0.020905   | 0.020905   |   0.0 |  1.35
Comm    | 0.0011716  | 0.0011716  | 0.0011716  |   0.0 |  0.08
Output  | 2.4796e-05 | 2.4796e-05 | 2.4796e-05 |   0.0 |  0.00
Modify  | 0.0085838  | 0.0085838  | 0.0085838  |   0.0 |  0.56
Other   |            | 0.00517    |            |       |  0.33

Nlocal:    207 ave 207 max 207 min
Histogram: 1 0 0 0 0 0 0 0 0 0
Nghost:    0 ave 0 max 0 min
Histogram: 1 0 0 0 0 0 0 0 0 0
Neighs:    7152 ave 7152 max 7152 min
Histogram: 1 0 0 0 0 0 0 0 0 0

Total # of neighbors = 7152
Ave neighs/atom = 34.5507
Ave special neighs/atom = 10.7633
Neighbor list builds = 62
Dangerous builds = 0
unfix pysimm_md
min_style cg
minimize 0.001 0.001 10000 100000
WARNING: Using 'neigh_modify every 1 delay 0 check yes' setting during minimization (../min.cpp:190)
PPPM initialization ...
  using 12-bit tables for long-range coulomb (../kspace.cpp:332)
  G vector (1/distance) = 0.0587778
  grid = 10 10 10
  stencil order = 5
  estimated absolute RMS force accuracy = 0.037915
  estimated relative force accuracy = 0.00011418
  using double precision KISS FFT
  3d grid and FFT values/proc = 3375 1000
Per MPI rank memory allocation (min/avg/max) = 19.24 | 19.24 | 19.24 Mbytes
Step Temp E_pair E_mol TotEng Press 
    2000    482.64466    79.221696    409.02229    784.61042    3.9900016 
    2029    482.64466    52.158062    182.97328    531.49778    1.9708667 
Loop time of 0.043191 on 1 procs for 29 steps with 207 atoms

99.5% CPU use with 1 MPI tasks x no OpenMP threads

Minimization stats:
  Stopping criterion = energy tolerance
  Energy initial, next-to-last, final = 
         488.243982316      235.325038087      235.131342104
  Force two-norm initial, final = 569.482 22.5338
  Force max component initial, final = 102.15 4.14962
  Final line search alpha, max atom move = 0.00855621 0.035505
  Iterations, force evaluations = 29 58

MPI task timing breakdown:
Section |  min time  |  avg time  |  max time  |%varavg| %total
---------------------------------------------------------------
Pair    | 0.015707   | 0.015707   | 0.015707   |   0.0 | 36.37
Bond    | 0.0061357  | 0.0061357  | 0.0061357  |   0.0 | 14.21
Kspace  | 0.020965   | 0.020965   | 0.020965   |   0.0 | 48.54
Neigh   | 0          | 0          | 0          |   0.0 |  0.00
Comm    | 2.2173e-05 | 2.2173e-05 | 2.2173e-05 |   0.0 |  0.05
Output  | 0          | 0          | 0          |   0.0 |  0.00
Modify  | 0          | 0          | 0          |   0.0 |  0.00
Other   |            | 0.000361   |            |       |  0.84

Nlocal:    207 ave 207 max 207 min
Histogram: 1 0 0 0 0 0 0 0 0 0
Nghost:    0 ave 0 max 0 min
Histogram: 1 0 0 0 0 0 0 0 0 0
Neighs:    7180 ave 7180 max 7180 min
Histogram: 1 0 0 0 0 0 0 0 0 0

Total # of neighbors = 7180
Ave neighs/atom = 34.686
Ave special neighs/atom = 10.7633
Neighbor list builds = 0
Dangerous builds = 0
write_dump all custom pysimm.dump.tmp id q x y z vx vy vz
quit


################################################################################
##################################    Init    ##################################
################################################################################
units           real
atom_style      full
pair_style      lj/cut/coul/long 12.0  12.0
kspace_style    pppm 1e-4
bond_style      harmonic
angle_style     harmonic
dihedral_style  fourier
improper_style  cvff
special_bonds   amber
pair_modify     mix arithmetic
read_data       temp.lmps
  orthogonal box = (-107.157 -107.157 -107.157) to (107.157 107.157 107.157)
  1 by 1 by 1 MPI processor grid
  reading atoms ...
  276 atoms
  reading velocities ...
  276 velocities
  scanning bonds ...
  3 = max bonds/atom
  scanning angles ...
  6 = max angles/atom
  scanning dihedrals ...
  24 = max dihedrals/atom
  scanning impropers ...
  2 = max impropers/atom
  reading bonds ...
  303 bonds
  reading angles ...
  508 angles
  reading dihedrals ...
  780 dihedrals
  reading impropers ...
  96 impropers
  4 = max # of 1-2 neighbors
  10 = max # of 1-3 neighbors
  19 = max # of 1-4 neighbors
  22 = max # of special neighbors
  special bonds CPU = 0.000406027 secs
  read_data CPU = 0.00596404 secs
################################################################################

timestep        1
fix             pysimm_md all nve/limit 0.1
run             2000
PPPM initialization ...
WARNING: System is not charge neutral, net charge = -2e-05 (../kspace.cpp:313)
  using 12-bit tables for long-range coulomb (../kspace.cpp:332)
  G vector (1/distance) = 0.0684795
  grid = 12 12 12
  stencil order = 5
  estimated absolute RMS force accuracy = 0.0366532
  estimated relative force accuracy = 0.00011038
  using double precision KISS FFT
  3d grid and FFT values/proc = 4913 1728
Neighbor list info ...
  update every 1 steps, delay 10 steps, check yes
  max neighbors/atom: 2000, page size: 100000
  master list distance cutoff = 14
  ghost atom cutoff = 14
  binsize = 7, bins = 31 31 31
  1 neighbor lists, perpetual/occasional/extra = 1 0 0
  (1) pair lj/cut/coul/long, perpetual
      attributes: half, newton on
      pair build: half/bin/newton
      stencil: half/bin/3d/newton
      bin: standard
Per MPI rank memory allocation (min/avg/max) = 18.24 | 18.24 | 18.24 Mbytes
Step Temp E_pair E_mol TotEng Press 
       0    362.57482    98.638943    349.54422    745.39399    1.6012279 
    2000    263.89956    83.280521     447.7985     747.4035  -0.83356531 
Loop time of 1.77271 on 1 procs for 2000 steps with 276 atoms

Performance: 97.478 ns/day, 0.246 hours/ns, 1128.219 timesteps/s
99.8% CPU use with 1 MPI tasks x no OpenMP threads

MPI task timing breakdown:
Section |  min time  |  avg time  |  max time  |%varavg| %total
---------------------------------------------------------------
Pair    | 0.45126    | 0.45126    | 0.45126    |   0.0 | 25.46
Bond    | 0.2415     | 0.2415     | 0.2415     |   0.0 | 13.62
Kspace  | 1.0516     | 1.0516     | 1.0516     |   0.0 | 59.32
Neigh   | 0.011945   | 0.011945   | 0.011945   |   0.0 |  0.67
Comm    | 0.00095105 | 0.00095105 | 0.00095105 |   0.0 |  0.05
Output  | 2.5034e-05 | 2.5034e-05 | 2.5034e-05 |   0.0 |  0.00
Modify  | 0.010004   | 0.010004   | 0.010004   |   0.0 |  0.56
Other   |            | 0.005386   |            |       |  0.30

Nlocal:    276 ave 276 max 276 min
Histogram: 1 0 0 0 0 0 0 0 0 0
Nghost:    0 ave 0 max 0 min
Histogram: 1 0 0 0 0 0 0 0 0 0
Neighs:    9909 ave 9909 max 9909 min
Histogram: 1 0 0 0 0 0 0 0 0 0

Total # of neighbors = 9909
Ave neighs/atom = 35.9022
Ave special neighs/atom = 10.8043
Neighbor list builds = 33
Dangerous builds = 0
unfix pysimm_md
min_style cg
minimize 0.001 0.001 10000 100000
WARNING: Using 'neigh_modify every 1 delay 0 check yes' setting during minimization (../min.cpp:190)
PPPM initialization ...
  using 12-bit tables for long-range coulomb (../kspace.cpp:332)
  G vector (1/distance) = 0.0684795
  grid = 12 12 12
  stencil order = 5
  estimated absolute RMS force accuracy = 0.0366532
  estimated relative force accuracy = 0.00011038
  using double precision KISS FFT
  3d grid and FFT values/proc = 4913 1728
Per MPI rank memory allocation (min/avg/max) = 19.37 | 19.37 | 19.37 Mbytes
Step Temp E_pair E_mol TotEng Press 
    2000    263.89956    83.280521     447.7985     747.4035  -0.83356531 
    2021    263.89956    75.626302    251.16772     543.1185   0.89130866 
Loop time of 0.109268 on 1 procs for 21 steps with 276 atoms

99.7% CPU use with 1 MPI tasks x no OpenMP threads

Minimization stats:
  Stopping criterion = linesearch alpha is zero
  Energy initial, next-to-last, final = 
         531.079019248      326.794021465      326.794021465
  Force two-norm initial, final = 562.147 39.688
  Force max component initial, final = 81.7858 6.92941
  Final line search alpha, max atom move = 5.72397e-12 3.96637e-11
  Iterations, force evaluations = 21 101

MPI task timing breakdown:
Section |  min time  |  avg time  |  max time  |%varavg| %total
---------------------------------------------------------------
Pair    | 0.038346   | 0.038346   | 0.038346   |   0.0 | 35.09
Bond    | 0.014096   | 0.014096   | 0.014096   |   0.0 | 12.90
Kspace  | 0.056203   | 0.056203   | 0.056203   |   0.0 | 51.44
Neigh   | 0          | 0          | 0          |   0.0 |  0.00
Comm    | 4.0293e-05 | 4.0293e-05 | 4.0293e-05 |   0.0 |  0.04
Output  | 0          | 0          | 0          |   0.0 |  0.00
Modify  | 0          | 0          | 0          |   0.0 |  0.00
Other   |            | 0.0005825  |            |       |  0.53

Nlocal:    276 ave 276 max 276 min
Histogram: 1 0 0 0 0 0 0 0 0 0
Nghost:    0 ave 0 max 0 min
Histogram: 1 0 0 0 0 0 0 0 0 0
Neighs:    9902 ave 9902 max 9902 min
Histogram: 1 0 0 0 0 0 0 0 0 0

Total # of neighbors = 9902
Ave neighs/atom = 35.8768
Ave special neighs/atom = 10.8043
Neighbor list builds = 0
Dangerous builds = 0
write_dump all custom pysimm.dump.tmp id q x y z vx vy vz
quit


################################################################################
##################################    Init    ##################################
################################################################################
units           real
atom_style      full
pair_style      lj/cut/coul/long 12.0  12.0
kspace_style    pppm 1e-4
bond_style      harmonic
angle_style     harmonic
dihedral_style  fourier
improper_style  cvff
special_bonds   amber
pair_modify     mix arithmetic
read_data       temp.lmps
  orthogonal box = (-107.157 -107.157 -107.157) to (107.157 107.157 107.157)
  1 by 1 by 1 MPI processor grid
  reading atoms ...
  345 atoms
  reading velocities ...
  345 velocities
  scanning bonds ...
  3 = max bonds/atom
  scanning angles ...
  6 = max angles/atom
  scanning dihedrals ...
  24 = max dihedrals/atom
  scanning impropers ...
  2 = max impropers/atom
  reading bonds ...
  379 bonds
  reading angles ...
  636 angles
  reading dihedrals ...
  978 dihedrals
  reading impropers ...
  120 impropers
  4 = max # of 1-2 neighbors
  10 = max # of 1-3 neighbors
  19 = max # of 1-4 neighbors
  22 = max # of special neighbors
  special bonds CPU = 0.000407934 secs
  read_data CPU = 0.00632715 secs
################################################################################

timestep        1
fix             pysimm_md all nve/limit 0.1
run             2000
PPPM initialization ...
WARNING: System is not charge neutral, net charge = -2.5e-05 (../kspace.cpp:313)
  using 12-bit tables for long-range coulomb (../kspace.cpp:332)
  G vector (1/distance) = 0.081886
  grid = 15 15 15
  stencil order = 5
  estimated absolute RMS force accuracy = 0.0306556
  estimated relative force accuracy = 9.23186e-05
  using double precision KISS FFT
  3d grid and FFT values/proc = 8000 3375
Neighbor list info ...
  update every 1 steps, delay 10 steps, check yes
  max neighbors/atom: 2000, page size: 100000
  master list distance cutoff = 14
  ghost atom cutoff = 14
  binsize = 7, bins = 31 31 31
  1 neighbor lists, perpetual/occasional/extra = 1 0 0
  (1) pair lj/cut/coul/long, perpetual
      attributes: half, newton on
      pair build: half/bin/newton
      stencil: half/bin/3d/newton
      bin: standard
Per MPI rank memory allocation (min/avg/max) = 18.51 | 18.51 | 18.51 Mbytes
Step Temp E_pair E_mol TotEng Press 
       0    211.78961     105.2627    415.68457    738.11606 -0.029274894 
    2000    159.92355    111.16965    463.25095    738.40599  -0.02352448 
Loop time of 2.59217 on 1 procs for 2000 steps with 345 atoms

Performance: 66.662 ns/day, 0.360 hours/ns, 771.553 timesteps/s
100.0% CPU use with 1 MPI tasks x no OpenMP threads

MPI task timing breakdown:
Section |  min time  |  avg time  |  max time  |%varavg| %total
---------------------------------------------------------------
Pair    | 0.5607     | 0.5607     | 0.5607     |   0.0 | 21.63
Bond    | 0.29303    | 0.29303    | 0.29303    |   0.0 | 11.30
Kspace  | 1.7071     | 1.7071     | 1.7071     |   0.0 | 65.86
Neigh   | 0.012384   | 0.012384   | 0.012384   |   0.0 |  0.48
Comm    | 0.001653   | 0.001653   | 0.001653   |   0.0 |  0.06
Output  | 2.0027e-05 | 2.0027e-05 | 2.0027e-05 |   0.0 |  0.00
Modify  | 0.011266   | 0.011266   | 0.011266   |   0.0 |  0.43
Other   |            | 0.005987   |            |       |  0.23

Nlocal:    345 ave 345 max 345 min
Histogram: 1 0 0 0 0 0 0 0 0 0
Nghost:    35 ave 35 max 35 min
Histogram: 1 0 0 0 0 0 0 0 0 0
Neighs:    12640 ave 12640 max 12640 min
Histogram: 1 0 0 0 0 0 0 0 0 0

Total # of neighbors = 12640
Ave neighs/atom = 36.6377
Ave special neighs/atom = 10.829
Neighbor list builds = 27
Dangerous builds = 0
unfix pysimm_md
min_style cg
minimize 0.001 0.001 10000 100000
WARNING: Using 'neigh_modify every 1 delay 0 check yes' setting during minimization (../min.cpp:190)
PPPM initialization ...
  using 12-bit tables for long-range coulomb (../kspace.cpp:332)
  G vector (1/distance) = 0.081886
  grid = 15 15 15
  stencil order = 5
  estimated absolute RMS force accuracy = 0.0306556
  estimated relative force accuracy = 9.23186e-05
  using double precision KISS FFT
  3d grid and FFT values/proc = 8000 3375
Per MPI rank memory allocation (min/avg/max) = 19.64 | 19.64 | 19.64 Mbytes
Step Temp E_pair E_mol TotEng Press 
    2000    159.92355    111.16965    463.25095    738.40599  -0.02352448 
    2028    159.92355    94.804946    310.02227    568.81262   0.85156907 
Loop time of 0.165864 on 1 procs for 28 steps with 345 atoms

99.5% CPU use with 1 MPI tasks x no OpenMP threads

Minimization stats:
  Stopping criterion = linesearch alpha is zero
  Energy initial, next-to-last, final = 
         574.420595994      404.827220497      404.827220497
  Force two-norm initial, final = 488.687 33.009
  Force max component initial, final = 66.7393 4.86594
  Final line search alpha, max atom move = 1.13172e-11 5.50688e-11
  Iterations, force evaluations = 28 113

MPI task timing breakdown:
Section |  min time  |  avg time  |  max time  |%varavg| %total
---------------------------------------------------------------
Pair    | 0.049533   | 0.049533   | 0.049533   |   0.0 | 29.86
Bond    | 0.017509   | 0.017509   | 0.017509   |   0.0 | 10.56
Kspace  | 0.097987   | 0.097987   | 0.097987   |   0.0 | 59.08
Neigh   | 0          | 0          | 0          |   0.0 |  0.00
Comm    | 8.9169e-05 | 8.9169e-05 | 8.9169e-05 |   0.0 |  0.05
Output  | 0          | 0          | 0          |   0.0 |  0.00
Modify  | 0          | 0          | 0          |   0.0 |  0.00
Other   |            | 0.0007455  |            |       |  0.45

Nlocal:    345 ave 345 max 345 min
Histogram: 1 0 0 0 0 0 0 0 0 0
Nghost:    35 ave 35 max 35 min
Histogram: 1 0 0 0 0 0 0 0 0 0
Neighs:    12655 ave 12655 max 12655 min
Histogram: 1 0 0 0 0 0 0 0 0 0

Total # of neighbors = 12655
Ave neighs/atom = 36.6812
Ave special neighs/atom = 10.829
Neighbor list builds = 0
Dangerous builds = 0
write_dump all custom pysimm.dump.tmp id q x y z vx vy vz
quit


################################################################################
##################################    Init    ##################################
################################################################################
units           real
atom_style      full
pair_style      lj/cut/coul/long 12.0  12.0
kspace_style    pppm 1e-4
bond_style      harmonic
angle_style     harmonic
dihedral_style  fourier
improper_style  cvff
special_bonds   amber
pair_modify     mix arithmetic
read_data       temp.lmps
  orthogonal box = (-107.157 -107.157 -107.157) to (107.157 107.157 107.157)
  1 by 1 by 1 MPI processor grid
  reading atoms ...
  414 atoms
  reading velocities ...
  414 velocities
  scanning bonds ...
  3 = max bonds/atom
  scanning angles ...
  6 = max angles/atom
  scanning dihedrals ...
  24 = max dihedrals/atom
  scanning impropers ...
  2 = max impropers/atom
  reading bonds ...
  455 bonds
  reading angles ...
  764 angles
  reading dihedrals ...
  1176 dihedrals
  reading impropers ...
  144 impropers
  4 = max # of 1-2 neighbors
  10 = max # of 1-3 neighbors
  19 = max # of 1-4 neighbors
  22 = max # of special neighbors
  special bonds CPU = 0.00052619 secs
  read_data CPU = 0.00738406 secs
################################################################################

timestep        1
fix             pysimm_md all nve/limit 0.1
run             2000
PPPM initialization ...
WARNING: System is not charge neutral, net charge = -3e-05 (../kspace.cpp:313)
  using 12-bit tables for long-range coulomb (../kspace.cpp:332)
  G vector (1/distance) = 0.0818841
  grid = 15 15 15
  stencil order = 5
  estimated absolute RMS force accuracy = 0.0335788
  estimated relative force accuracy = 0.000101122
  using double precision KISS FFT
  3d grid and FFT values/proc = 8000 3375
Neighbor list info ...
  update every 1 steps, delay 10 steps, check yes
  max neighbors/atom: 2000, page size: 100000
  master list distance cutoff = 14
  ghost atom cutoff = 14
  binsize = 7, bins = 31 31 31
  1 neighbor lists, perpetual/occasional/extra = 1 0 0
  (1) pair lj/cut/coul/long, perpetual
      attributes: half, newton on
      pair build: half/bin/newton
      stencil: half/bin/3d/newton
      bin: standard
Per MPI rank memory allocation (min/avg/max) = 18.52 | 18.52 | 18.52 Mbytes
Step Temp E_pair E_mol TotEng Press 
       0    133.89095     118.2097    457.46951    740.50895  -0.13047352 
    2000    119.50953    120.67349    475.79156    743.59018     -1.30226 
Loop time of 3.26619 on 1 procs for 2000 steps with 414 atoms

Performance: 52.906 ns/day, 0.454 hours/ns, 612.334 timesteps/s
99.7% CPU use with 1 MPI tasks x no OpenMP threads

MPI task timing breakdown:
Section |  min time  |  avg time  |  max time  |%varavg| %total
---------------------------------------------------------------
Pair    | 0.75039    | 0.75039    | 0.75039    |   0.0 | 22.97
Bond    | 0.3852     | 0.3852     | 0.3852     |   0.0 | 11.79
Kspace  | 2.0914     | 2.0914     | 2.0914     |   0.0 | 64.03
Neigh   | 0.014329   | 0.014329   | 0.014329   |   0.0 |  0.44
Comm    | 0.0028913  | 0.0028913  | 0.0028913  |   0.0 |  0.09
Output  | 2.0027e-05 | 2.0027e-05 | 2.0027e-05 |   0.0 |  0.00
Modify  | 0.014686   | 0.014686   | 0.014686   |   0.0 |  0.45
Other   |            | 0.007267   |            |       |  0.22

Nlocal:    414 ave 414 max 414 min
Histogram: 1 0 0 0 0 0 0 0 0 0
Nghost:    126 ave 126 max 126 min
Histogram: 1 0 0 0 0 0 0 0 0 0
Neighs:    15006 ave 15006 max 15006 min
Histogram: 1 0 0 0 0 0 0 0 0 0

Total # of neighbors = 15006
Ave neighs/atom = 36.2464
Ave special neighs/atom = 10.8454
Neighbor list builds = 23
Dangerous builds = 0
unfix pysimm_md
min_style cg
minimize 0.001 0.001 10000 100000
WARNING: Using 'neigh_modify every 1 delay 0 check yes' setting during minimization (../min.cpp:190)
PPPM initialization ...
  using 12-bit tables for long-range coulomb (../kspace.cpp:332)
  G vector (1/distance) = 0.0818841
  grid = 15 15 15
  stencil order = 5
  estimated absolute RMS force accuracy = 0.0335788
  estimated relative force accuracy = 0.000101122
  using double precision KISS FFT
  3d grid and FFT values/proc = 8000 3375
Per MPI rank memory allocation (min/avg/max) = 19.65 | 19.65 | 19.65 Mbytes
Step Temp E_pair E_mol TotEng Press 
    2000    119.50953    120.67349    475.79156    743.59018     -1.30226 
    2021    119.50953     114.8086    366.60787    628.54161 -0.044564437 
Loop time of 0.067204 on 1 procs for 21 steps with 414 atoms

101.2% CPU use with 1 MPI tasks x no OpenMP threads

Minimization stats:
  Stopping criterion = energy tolerance
  Energy initial, next-to-last, final = 
         596.465048027       481.78310475      481.416470094
  Force two-norm initial, final = 440.28 34.6537
  Force max component initial, final = 72.0444 5.43844
  Final line search alpha, max atom move = 0.00635263 0.0345484
  Iterations, force evaluations = 21 42

MPI task timing breakdown:
Section |  min time  |  avg time  |  max time  |%varavg| %total
---------------------------------------------------------------
Pair    | 0.02171    | 0.02171    | 0.02171    |   0.0 | 32.30
Bond    | 0.0077746  | 0.0077746  | 0.0077746  |   0.0 | 11.57
Kspace  | 0.03723    | 0.03723    | 0.03723    |   0.0 | 55.40
Neigh   | 0          | 0          | 0          |   0.0 |  0.00
Comm    | 4.6968e-05 | 4.6968e-05 | 4.6968e-05 |   0.0 |  0.07
Output  | 0          | 0          | 0          |   0.0 |  0.00
Modify  | 0          | 0          | 0          |   0.0 |  0.00
Other   |            | 0.0004423  |            |       |  0.66

Nlocal:    414 ave 414 max 414 min
Histogram: 1 0 0 0 0 0 0 0 0 0
Nghost:    126 ave 126 max 126 min
Histogram: 1 0 0 0 0 0 0 0 0 0
Neighs:    15000 ave 15000 max 15000 min
Histogram: 1 0 0 0 0 0 0 0 0 0

Total # of neighbors = 15000
Ave neighs/atom = 36.2319
Ave special neighs/atom = 10.8454
Neighbor list builds = 0
Dangerous builds = 0
write_dump all custom pysimm.dump.tmp id q x y z vx vy vz
quit


################################################################################
##################################    Init    ##################################
################################################################################
units           real
atom_style      full
pair_style      lj/cut/coul/long 12.0  12.0
kspace_style    pppm 1e-4
bond_style      harmonic
angle_style     harmonic
dihedral_style  fourier
improper_style  cvff
special_bonds   amber
pair_modify     mix arithmetic
read_data       temp.lmps
  orthogonal box = (-107.157 -107.157 -107.157) to (107.157 107.157 107.157)
  1 by 1 by 1 MPI processor grid
  reading atoms ...
  483 atoms
  reading velocities ...
  483 velocities
  scanning bonds ...
  3 = max bonds/atom
  scanning angles ...
  6 = max angles/atom
  scanning dihedrals ...
  24 = max dihedrals/atom
  scanning impropers ...
  2 = max impropers/atom
  reading bonds ...
  531 bonds
  reading angles ...
  892 angles
  reading dihedrals ...
  1374 dihedrals
  reading impropers ...
  168 impropers
  4 = max # of 1-2 neighbors
  10 = max # of 1-3 neighbors
  19 = max # of 1-4 neighbors
  22 = max # of special neighbors
  special bonds CPU = 0.000565052 secs
  read_data CPU = 0.008394 secs
################################################################################

timestep        1
fix             pysimm_md all nve/limit 0.1
run             2000
PPPM initialization ...
WARNING: System is not charge neutral, net charge = -3.5e-05 (../kspace.cpp:313)
  using 12-bit tables for long-range coulomb (../kspace.cpp:332)
  G vector (1/distance) = 0.0860629
  grid = 16 16 16
  stencil order = 5
  estimated absolute RMS force accuracy = 0.032783
  estimated relative force accuracy = 9.87249e-05
  using double precision KISS FFT
  3d grid and FFT values/proc = 9261 4096
Neighbor list info ...
  update every 1 steps, delay 10 steps, check yes
  max neighbors/atom: 2000, page size: 100000
  master list distance cutoff = 14
  ghost atom cutoff = 14
  binsize = 7, bins = 31 31 31
  1 neighbor lists, perpetual/occasional/extra = 1 0 0
  (1) pair lj/cut/coul/long, perpetual
      attributes: half, newton on
      pair build: half/bin/newton
      stencil: half/bin/3d/newton
      bin: standard
Per MPI rank memory allocation (min/avg/max) = 18.64 | 18.64 | 18.64 Mbytes
Step Temp E_pair E_mol TotEng Press 
       0    102.98895    145.62227    505.31398    798.90566    -1.043098 
    2000    98.168401    160.94942    499.95626    801.94918   0.91666318 
Loop time of 3.61588 on 1 procs for 2000 steps with 483 atoms

Performance: 47.789 ns/day, 0.502 hours/ns, 553.116 timesteps/s
100.0% CPU use with 1 MPI tasks x no OpenMP threads

MPI task timing breakdown:
Section |  min time  |  avg time  |  max time  |%varavg| %total
---------------------------------------------------------------
Pair    | 0.82885    | 0.82885    | 0.82885    |   0.0 | 22.92
Bond    | 0.43085    | 0.43085    | 0.43085    |   0.0 | 11.92
Kspace  | 2.3118     | 2.3118     | 2.3118     |   0.0 | 63.94
Neigh   | 0.016475   | 0.016475   | 0.016475   |   0.0 |  0.46
Comm    | 0.0036452  | 0.0036452  | 0.0036452  |   0.0 |  0.10
Output  | 3.4094e-05 | 3.4094e-05 | 3.4094e-05 |   0.0 |  0.00
Modify  | 0.016443   | 0.016443   | 0.016443   |   0.0 |  0.45
Other   |            | 0.007742   |            |       |  0.21

Nlocal:    483 ave 483 max 483 min
Histogram: 1 0 0 0 0 0 0 0 0 0
Nghost:    198 ave 198 max 198 min
Histogram: 1 0 0 0 0 0 0 0 0 0
Neighs:    18017 ave 18017 max 18017 min
Histogram: 1 0 0 0 0 0 0 0 0 0

Total # of neighbors = 18017
Ave neighs/atom = 37.3023
Ave special neighs/atom = 10.8571
Neighbor list builds = 24
Dangerous builds = 0
unfix pysimm_md
min_style cg
minimize 0.001 0.001 10000 100000
WARNING: Using 'neigh_modify every 1 delay 0 check yes' setting during minimization (../min.cpp:190)
PPPM initialization ...
  using 12-bit tables for long-range coulomb (../kspace.cpp:332)
  G vector (1/distance) = 0.0860629
  grid = 16 16 16
  stencil order = 5
  estimated absolute RMS force accuracy = 0.032783
  estimated relative force accuracy = 9.87249e-05
  using double precision KISS FFT
  3d grid and FFT values/proc = 9261 4096
Per MPI rank memory allocation (min/avg/max) = 19.76 | 19.76 | 19.76 Mbytes
Step Temp E_pair E_mol TotEng Press 
    2000    98.168401    160.94942    499.95626    801.94918   0.91666318 
    2019    98.168401    150.47368    409.97757    701.49475   0.72287129 
Loop time of 0.0794349 on 1 procs for 19 steps with 483 atoms

99.4% CPU use with 1 MPI tasks x no OpenMP threads

Minimization stats:
  Stopping criterion = energy tolerance
  Energy initial, next-to-last, final = 
         660.905682342      560.726704486      560.451253526
  Force two-norm initial, final = 372.548 38.3991
  Force max component initial, final = 71.311 4.95846
  Final line search alpha, max atom move = 0.00663748 0.0329117
  Iterations, force evaluations = 19 38

MPI task timing breakdown:
Section |  min time  |  avg time  |  max time  |%varavg| %total
---------------------------------------------------------------
Pair    | 0.025504   | 0.025504   | 0.025504   |   0.0 | 32.11
Bond    | 0.0093901  | 0.0093901  | 0.0093901  |   0.0 | 11.82
Kspace  | 0.043963   | 0.043963   | 0.043963   |   0.0 | 55.34
Neigh   | 0          | 0          | 0          |   0.0 |  0.00
Comm    | 5.4836e-05 | 5.4836e-05 | 5.4836e-05 |   0.0 |  0.07
Output  | 0          | 0          | 0          |   0.0 |  0.00
Modify  | 0          | 0          | 0          |   0.0 |  0.00
Other   |            | 0.0005236  |            |       |  0.66

Nlocal:    483 ave 483 max 483 min
Histogram: 1 0 0 0 0 0 0 0 0 0
Nghost:    198 ave 198 max 198 min
Histogram: 1 0 0 0 0 0 0 0 0 0
Neighs:    18021 ave 18021 max 18021 min
Histogram: 1 0 0 0 0 0 0 0 0 0

Total # of neighbors = 18021
Ave neighs/atom = 37.3106
Ave special neighs/atom = 10.8571
Neighbor list builds = 0
Dangerous builds = 0
write_dump all custom pysimm.dump.tmp id q x y z vx vy vz
quit


################################################################################
##################################    Init    ##################################
################################################################################
units           real
atom_style      full
pair_style      lj/cut/coul/long 12.0  12.0
kspace_style    pppm 1e-4
bond_style      harmonic
angle_style     harmonic
dihedral_style  fourier
improper_style  cvff
special_bonds   amber
pair_modify     mix arithmetic
read_data       temp.lmps
  orthogonal box = (-107.157 -107.157 -107.157) to (107.157 107.157 107.157)
  1 by 1 by 1 MPI processor grid
  reading atoms ...
  552 atoms
  reading velocities ...
  552 velocities
  scanning bonds ...
  3 = max bonds/atom
  scanning angles ...
  6 = max angles/atom
  scanning dihedrals ...
  24 = max dihedrals/atom
  scanning impropers ...
  2 = max impropers/atom
  reading bonds ...
  607 bonds
  reading angles ...
  1020 angles
  reading dihedrals ...
  1572 dihedrals
  reading impropers ...
  192 impropers
  4 = max # of 1-2 neighbors
  10 = max # of 1-3 neighbors
  19 = max # of 1-4 neighbors
  22 = max # of special neighbors
  special bonds CPU = 0.000575066 secs
  read_data CPU = 0.00833488 secs
################################################################################

timestep        1
fix             pysimm_md all nve/limit 0.1
run             2000
PPPM initialization ...
WARNING: System is not charge neutral, net charge = -4e-05 (../kspace.cpp:313)
  using 12-bit tables for long-range coulomb (../kspace.cpp:332)
  G vector (1/distance) = 0.086063
  grid = 16 16 16
  stencil order = 5
  estimated absolute RMS force accuracy = 0.0350467
  estimated relative force accuracy = 0.000105542
  using double precision KISS FFT
  3d grid and FFT values/proc = 9261 4096
Neighbor list info ...
  update every 1 steps, delay 10 steps, check yes
  max neighbors/atom: 2000, page size: 100000
  master list distance cutoff = 14
  ghost atom cutoff = 14
  binsize = 7, bins = 31 31 31
  1 neighbor lists, perpetual/occasional/extra = 1 0 0
  (1) pair lj/cut/coul/long, perpetual
      attributes: half, newton on
      pair build: half/bin/newton
      stencil: half/bin/3d/newton
      bin: standard
Per MPI rank memory allocation (min/avg/max) = 18.65 | 18.65 | 18.65 Mbytes
Step Temp E_pair E_mol TotEng Press 
       0    86.389149    209.56537    562.59582      914.049   0.75767707 
    2000    96.665147     176.8873    574.32928    909.98197   0.22671177 
Loop time of 3.93948 on 1 procs for 2000 steps with 552 atoms

Performance: 43.864 ns/day, 0.547 hours/ns, 507.681 timesteps/s
99.9% CPU use with 1 MPI tasks x no OpenMP threads

MPI task timing breakdown:
Section |  min time  |  avg time  |  max time  |%varavg| %total
---------------------------------------------------------------
Pair    | 1.0369     | 1.0369     | 1.0369     |   0.0 | 26.32
Bond    | 0.51243    | 0.51243    | 0.51243    |   0.0 | 13.01
Kspace  | 2.3363     | 2.3363     | 2.3363     |   0.0 | 59.31
Neigh   | 0.021333   | 0.021333   | 0.021333   |   0.0 |  0.54
Comm    | 0.0046775  | 0.0046775  | 0.0046775  |   0.0 |  0.12
Output  | 2.408e-05  | 2.408e-05  | 2.408e-05  |   0.0 |  0.00
Modify  | 0.019196   | 0.019196   | 0.019196   |   0.0 |  0.49
Other   |            | 0.008546   |            |       |  0.22

Nlocal:    552 ave 552 max 552 min
Histogram: 1 0 0 0 0 0 0 0 0 0
Nghost:    256 ave 256 max 256 min
Histogram: 1 0 0 0 0 0 0 0 0 0
Neighs:    20971 ave 20971 max 20971 min
Histogram: 1 0 0 0 0 0 0 0 0 0

Total # of neighbors = 20971
Ave neighs/atom = 37.9909
Ave special neighs/atom = 10.8659
Neighbor list builds = 26
Dangerous builds = 0
unfix pysimm_md
min_style cg
minimize 0.001 0.001 10000 100000
WARNING: Using 'neigh_modify every 1 delay 0 check yes' setting during minimization (../min.cpp:190)
PPPM initialization ...
  using 12-bit tables for long-range coulomb (../kspace.cpp:332)
  G vector (1/distance) = 0.086063
  grid = 16 16 16
  stencil order = 5
  estimated absolute RMS force accuracy = 0.0350467
  estimated relative force accuracy = 0.000105542
  using double precision KISS FFT
  3d grid and FFT values/proc = 9261 4096
Per MPI rank memory allocation (min/avg/max) = 19.77 | 19.77 | 19.77 Mbytes
Step Temp E_pair E_mol TotEng Press 
    2000    96.665147     176.8873    574.32928    909.98197   0.22671177 
    2014    96.665147    172.95286    476.13646     807.8547    1.6067851 
Loop time of 0.0628889 on 1 procs for 14 steps with 552 atoms

100.2% CPU use with 1 MPI tasks x no OpenMP threads

Minimization stats:
  Stopping criterion = energy tolerance
  Energy initial, next-to-last, final = 
         751.216587171      649.522895484      649.089317532
  Force two-norm initial, final = 396.046 41.187
  Force max component initial, final = 83.1278 8.1003
  Final line search alpha, max atom move = 0.00731997 0.059294
  Iterations, force evaluations = 14 28

MPI task timing breakdown:
Section |  min time  |  avg time  |  max time  |%varavg| %total
---------------------------------------------------------------
Pair    | 0.022445   | 0.022445   | 0.022445   |   0.0 | 35.69
Bond    | 0.0075092  | 0.0075092  | 0.0075092  |   0.0 | 11.94
Kspace  | 0.032512   | 0.032512   | 0.032512   |   0.0 | 51.70
Neigh   | 0          | 0          | 0          |   0.0 |  0.00
Comm    | 5.2691e-05 | 5.2691e-05 | 5.2691e-05 |   0.0 |  0.08
Output  | 0          | 0          | 0          |   0.0 |  0.00
Modify  | 0          | 0          | 0          |   0.0 |  0.00
Other   |            | 0.0003698  |            |       |  0.59

Nlocal:    552 ave 552 max 552 min
Histogram: 1 0 0 0 0 0 0 0 0 0
Nghost:    256 ave 256 max 256 min
Histogram: 1 0 0 0 0 0 0 0 0 0
Neighs:    20979 ave 20979 max 20979 min
Histogram: 1 0 0 0 0 0 0 0 0 0

Total # of neighbors = 20979
Ave neighs/atom = 38.0054
Ave special neighs/atom = 10.8659
Neighbor list builds = 0
Dangerous builds = 0
write_dump all custom pysimm.dump.tmp id q x y z vx vy vz
quit


################################################################################
##################################    Init    ##################################
################################################################################
units           real
atom_style      full
pair_style      lj/cut/coul/long 12.0  12.0
kspace_style    pppm 1e-4
bond_style      harmonic
angle_style     harmonic
dihedral_style  fourier
improper_style  cvff
special_bonds   amber
pair_modify     mix arithmetic
read_data       temp.lmps
  orthogonal box = (-107.157 -107.157 -107.157) to (107.157 107.157 107.157)
  1 by 1 by 1 MPI processor grid
  reading atoms ...
  621 atoms
  reading velocities ...
  621 velocities
  scanning bonds ...
  3 = max bonds/atom
  scanning angles ...
  6 = max angles/atom
  scanning dihedrals ...
  24 = max dihedrals/atom
  scanning impropers ...
  2 = max impropers/atom
  reading bonds ...
  683 bonds
  reading angles ...
  1148 angles
  reading dihedrals ...
  1770 dihedrals
  reading impropers ...
  216 impropers
  4 = max # of 1-2 neighbors
  10 = max # of 1-3 neighbors
  19 = max # of 1-4 neighbors
  22 = max # of special neighbors
  special bonds CPU = 0.000635862 secs
  read_data CPU = 0.00921106 secs
################################################################################

timestep        1
fix             pysimm_md all nve/limit 0.1
run             2000
PPPM initialization ...
WARNING: System is not charge neutral, net charge = -4.5e-05 (../kspace.cpp:313)
  using 12-bit tables for long-range coulomb (../kspace.cpp:332)
  G vector (1/distance) = 0.0940139
  grid = 18 18 18
  stencil order = 5
  estimated absolute RMS force accuracy = 0.0302485
  estimated relative force accuracy = 9.10924e-05
  using double precision KISS FFT
  3d grid and FFT values/proc = 12167 5832
Neighbor list info ...
  update every 1 steps, delay 10 steps, check yes
  max neighbors/atom: 2000, page size: 100000
  master list distance cutoff = 14
  ghost atom cutoff = 14
  binsize = 7, bins = 31 31 31
  1 neighbor lists, perpetual/occasional/extra = 1 0 0
  (1) pair lj/cut/coul/long, perpetual
      attributes: half, newton on
      pair build: half/bin/newton
      stencil: half/bin/3d/newton
      bin: standard
Per MPI rank memory allocation (min/avg/max) = 18.92 | 18.92 | 18.92 Mbytes
Step Temp E_pair E_mol TotEng Press 
       0    86.364108    358.67337    609.55049    1127.8336    5.3121503 
    2000     88.10147    186.08109    680.08605    1028.9877   -2.2828485 
Loop time of 5.08925 on 1 procs for 2000 steps with 621 atoms

Performance: 33.954 ns/day, 0.707 hours/ns, 392.986 timesteps/s
100.0% CPU use with 1 MPI tasks x no OpenMP threads

MPI task timing breakdown:
Section |  min time  |  avg time  |  max time  |%varavg| %total
---------------------------------------------------------------
Pair    | 1.1482     | 1.1482     | 1.1482     |   0.0 | 22.56
Bond    | 0.56791    | 0.56791    | 0.56791    |   0.0 | 11.16
Kspace  | 3.308      | 3.308      | 3.308      |   0.0 | 65.00
Neigh   | 0.029988   | 0.029988   | 0.029988   |   0.0 |  0.59
Comm    | 0.004643   | 0.004643   | 0.004643   |   0.0 |  0.09
Output  | 2.0027e-05 | 2.0027e-05 | 2.0027e-05 |   0.0 |  0.00
Modify  | 0.021523   | 0.021523   | 0.021523   |   0.0 |  0.42
Other   |            | 0.008916   |            |       |  0.18

Nlocal:    621 ave 621 max 621 min
Histogram: 1 0 0 0 0 0 0 0 0 0
Nghost:    255 ave 255 max 255 min
Histogram: 1 0 0 0 0 0 0 0 0 0
Neighs:    24128 ave 24128 max 24128 min
Histogram: 1 0 0 0 0 0 0 0 0 0

Total # of neighbors = 24128
Ave neighs/atom = 38.8535
Ave special neighs/atom = 10.8728
Neighbor list builds = 32
Dangerous builds = 0
unfix pysimm_md
min_style cg
minimize 0.001 0.001 10000 100000
WARNING: Using 'neigh_modify every 1 delay 0 check yes' setting during minimization (../min.cpp:190)
PPPM initialization ...
  using 12-bit tables for long-range coulomb (../kspace.cpp:332)
  G vector (1/distance) = 0.0940139
  grid = 18 18 18
  stencil order = 5
  estimated absolute RMS force accuracy = 0.0302485
  estimated relative force accuracy = 9.10924e-05
  using double precision KISS FFT
  3d grid and FFT values/proc = 12167 5832
Per MPI rank memory allocation (min/avg/max) = 20.04 | 20.04 | 20.04 Mbytes
Step Temp E_pair E_mol TotEng Press 
    2000     88.10147    186.08109    680.08605    1028.9877   -2.2828485 
    2014     88.10147    185.02901     547.9726    895.82213  -0.69224994 
Loop time of 0.0777788 on 1 procs for 14 steps with 621 atoms

99.0% CPU use with 1 MPI tasks x no OpenMP threads

Minimization stats:
  Stopping criterion = energy tolerance
  Energy initial, next-to-last, final = 
         866.167135626      733.692610271      733.001605833
  Force two-norm initial, final = 450.003 44.5804
  Force max component initial, final = 73.0809 8.60946
  Final line search alpha, max atom move = 0.0081233 0.0699372
  Iterations, force evaluations = 14 28

MPI task timing breakdown:
Section |  min time  |  avg time  |  max time  |%varavg| %total
---------------------------------------------------------------
Pair    | 0.025119   | 0.025119   | 0.025119   |   0.0 | 32.30
Bond    | 0.0083859  | 0.0083859  | 0.0083859  |   0.0 | 10.78
Kspace  | 0.043769   | 0.043769   | 0.043769   |   0.0 | 56.27
Neigh   | 0          | 0          | 0          |   0.0 |  0.00
Comm    | 5.2929e-05 | 5.2929e-05 | 5.2929e-05 |   0.0 |  0.07
Output  | 0          | 0          | 0          |   0.0 |  0.00
Modify  | 0          | 0          | 0          |   0.0 |  0.00
Other   |            | 0.0004523  |            |       |  0.58

Nlocal:    621 ave 621 max 621 min
Histogram: 1 0 0 0 0 0 0 0 0 0
Nghost:    255 ave 255 max 255 min
Histogram: 1 0 0 0 0 0 0 0 0 0
Neighs:    24118 ave 24118 max 24118 min
Histogram: 1 0 0 0 0 0 0 0 0 0

Total # of neighbors = 24118
Ave neighs/atom = 38.8374
Ave special neighs/atom = 10.8728
Neighbor list builds = 0
Dangerous builds = 0
write_dump all custom pysimm.dump.tmp id q x y z vx vy vz
quit


################################################################################
##################################    Init    ##################################
################################################################################
units           real
atom_style      full
pair_style      lj/cut/coul/long 12.0  12.0
kspace_style    pppm 1e-4
bond_style      harmonic
angle_style     harmonic
dihedral_style  fourier
improper_style  cvff
special_bonds   amber
pair_modify     mix arithmetic
read_data       temp.lmps
  orthogonal box = (-107.157 -107.157 -107.157) to (107.157 107.157 107.157)
  1 by 1 by 1 MPI processor grid
  reading atoms ...
  690 atoms
  reading velocities ...
  690 velocities
  scanning bonds ...
  3 = max bonds/atom
  scanning angles ...
  6 = max angles/atom
  scanning dihedrals ...
  24 = max dihedrals/atom
  scanning impropers ...
  2 = max impropers/atom
  reading bonds ...
  759 bonds
  reading angles ...
  1276 angles
  reading dihedrals ...
  1968 dihedrals
  reading impropers ...
  240 impropers
  4 = max # of 1-2 neighbors
  10 = max # of 1-3 neighbors
  19 = max # of 1-4 neighbors
  22 = max # of special neighbors
  special bonds CPU = 0.000580072 secs
  read_data CPU = 0.00910687 secs
################################################################################

timestep        1
fix             pysimm_md all nve/limit 0.1
run             2000
PPPM initialization ...
WARNING: System is not charge neutral, net charge = -5e-05 (../kspace.cpp:313)
  using 12-bit tables for long-range coulomb (../kspace.cpp:332)
  G vector (1/distance) = 0.0940131
  grid = 18 18 18
  stencil order = 5
  estimated absolute RMS force accuracy = 0.0318838
  estimated relative force accuracy = 9.60172e-05
  using double precision KISS FFT
  3d grid and FFT values/proc = 12167 5832
Neighbor list info ...
  update every 1 steps, delay 10 steps, check yes
  max neighbors/atom: 2000, page size: 100000
  master list distance cutoff = 14
  ghost atom cutoff = 14
  binsize = 7, bins = 31 31 31
  1 neighbor lists, perpetual/occasional/extra = 1 0 0
  (1) pair lj/cut/coul/long, perpetual
      attributes: half, newton on
      pair build: half/bin/newton
      stencil: half/bin/3d/newton
      bin: standard
Per MPI rank memory allocation (min/avg/max) = 18.92 | 18.92 | 18.92 Mbytes
Step Temp E_pair E_mol TotEng Press 
       0    79.689621    209.57325    706.92307    1080.1611    -2.000909 
    2000    71.938959    218.93027    709.55478    1076.2317  -0.66020481 
Loop time of 5.43142 on 1 procs for 2000 steps with 690 atoms

Performance: 31.815 ns/day, 0.754 hours/ns, 368.228 timesteps/s
99.8% CPU use with 1 MPI tasks x no OpenMP threads

MPI task timing breakdown:
Section |  min time  |  avg time  |  max time  |%varavg| %total
---------------------------------------------------------------
Pair    | 1.2834     | 1.2834     | 1.2834     |   0.0 | 23.63
Bond    | 0.62636    | 0.62636    | 0.62636    |   0.0 | 11.53
Kspace  | 3.4586     | 3.4586     | 3.4586     |   0.0 | 63.68
Neigh   | 0.025272   | 0.025272   | 0.025272   |   0.0 |  0.47
Comm    | 0.0047762  | 0.0047762  | 0.0047762  |   0.0 |  0.09
Output  | 2.8133e-05 | 2.8133e-05 | 2.8133e-05 |   0.0 |  0.00
Modify  | 0.023121   | 0.023121   | 0.023121   |   0.0 |  0.43
Other   |            | 0.009854   |            |       |  0.18

Nlocal:    690 ave 690 max 690 min
Histogram: 1 0 0 0 0 0 0 0 0 0
Nghost:    288 ave 288 max 288 min
Histogram: 1 0 0 0 0 0 0 0 0 0
Neighs:    26993 ave 26993 max 26993 min
Histogram: 1 0 0 0 0 0 0 0 0 0

Total # of neighbors = 26993
Ave neighs/atom = 39.1203
Ave special neighs/atom = 10.8783
Neighbor list builds = 24
Dangerous builds = 0
unfix pysimm_md
min_style cg
minimize 0.001 0.001 10000 100000
WARNING: Using 'neigh_modify every 1 delay 0 check yes' setting during minimization (../min.cpp:190)
PPPM initialization ...
  using 12-bit tables for long-range coulomb (../kspace.cpp:332)
  G vector (1/distance) = 0.0940131
  grid = 18 18 18
  stencil order = 5
  estimated absolute RMS force accuracy = 0.0318838
  estimated relative force accuracy = 9.60172e-05
  using double precision KISS FFT
  3d grid and FFT values/proc = 12167 5832
Per MPI rank memory allocation (min/avg/max) = 20.05 | 20.05 | 20.05 Mbytes
Step Temp E_pair E_mol TotEng Press 
    2000    71.938959    218.93027    709.55478    1076.2317  -0.66020481 
    2014    71.938959    215.84607    588.89836    952.49109    1.3921131 
Loop time of 0.0896192 on 1 procs for 14 steps with 690 atoms

100.4% CPU use with 1 MPI tasks x no OpenMP threads

Minimization stats:
  Stopping criterion = energy tolerance
  Energy initial, next-to-last, final = 
         928.485045292      805.173175995      804.744430098
  Force two-norm initial, final = 442.822 41.4105
  Force max component initial, final = 115.902 9.80275
  Final line search alpha, max atom move = 0.00632979 0.0620493
  Iterations, force evaluations = 14 28

MPI task timing breakdown:
Section |  min time  |  avg time  |  max time  |%varavg| %total
---------------------------------------------------------------
Pair    | 0.029425   | 0.029425   | 0.029425   |   0.0 | 32.83
Bond    | 0.0097744  | 0.0097744  | 0.0097744  |   0.0 | 10.91
Kspace  | 0.049852   | 0.049852   | 0.049852   |   0.0 | 55.63
Neigh   | 0          | 0          | 0          |   0.0 |  0.00
Comm    | 6.0558e-05 | 6.0558e-05 | 6.0558e-05 |   0.0 |  0.07
Output  | 0          | 0          | 0          |   0.0 |  0.00
Modify  | 0          | 0          | 0          |   0.0 |  0.00
Other   |            | 0.0005076  |            |       |  0.57

Nlocal:    690 ave 690 max 690 min
Histogram: 1 0 0 0 0 0 0 0 0 0
Nghost:    285 ave 285 max 285 min
Histogram: 1 0 0 0 0 0 0 0 0 0
Neighs:    26984 ave 26984 max 26984 min
Histogram: 1 0 0 0 0 0 0 0 0 0

Total # of neighbors = 26984
Ave neighs/atom = 39.1072
Ave special neighs/atom = 10.8783
Neighbor list builds = 0
Dangerous builds = 0
write_dump all custom pysimm.dump.tmp id q x y z vx vy vz
quit


################################################################################
##################################    Init    ##################################
################################################################################
units           real
atom_style      full
pair_style      lj/cut/coul/long 12.0  12.0
kspace_style    pppm 1e-4
bond_style      harmonic
angle_style     harmonic
dihedral_style  fourier
improper_style  cvff
special_bonds   amber
pair_modify     mix arithmetic
read_data       temp.lmps
  orthogonal box = (-135.009 -135.009 -135.009) to (135.009 135.009 135.009)
  1 by 1 by 1 MPI processor grid
  reading atoms ...
  759 atoms
  reading velocities ...
  759 velocities
  scanning bonds ...
  3 = max bonds/atom
  scanning angles ...
  6 = max angles/atom
  scanning dihedrals ...
  24 = max dihedrals/atom
  scanning impropers ...
  2 = max impropers/atom
  reading bonds ...
  835 bonds
  reading angles ...
  1404 angles
  reading dihedrals ...
  2166 dihedrals
  reading impropers ...
  264 impropers
  4 = max # of 1-2 neighbors
  10 = max # of 1-3 neighbors
  19 = max # of 1-4 neighbors
  22 = max # of special neighbors
  special bonds CPU = 0.000686884 secs
  read_data CPU = 0.00976396 secs
################################################################################

timestep        1
fix             pysimm_md all nve/limit 0.1
run             2000
PPPM initialization ...
WARNING: System is not charge neutral, net charge = -5.5e-05 (../kspace.cpp:313)
  using 12-bit tables for long-range coulomb (../kspace.cpp:332)
  G vector (1/distance) = 0.0788164
  grid = 18 18 18
  stencil order = 5
  estimated absolute RMS force accuracy = 0.0345144
  estimated relative force accuracy = 0.000103939
  using double precision KISS FFT
  3d grid and FFT values/proc = 12167 5832
Neighbor list info ...
  update every 1 steps, delay 10 steps, check yes
  max neighbors/atom: 2000, page size: 100000
  master list distance cutoff = 14
  ghost atom cutoff = 14
  binsize = 7, bins = 39 39 39
  1 neighbor lists, perpetual/occasional/extra = 1 0 0
  (1) pair lj/cut/coul/long, perpetual
      attributes: half, newton on
      pair build: half/bin/newton
      stencil: half/bin/3d/newton
      bin: standard
WARNING: Bond/angle/dihedral extent > half of periodic box length (../domain.cpp:906)
Per MPI rank memory allocation (min/avg/max) = 19.08 | 19.08 | 19.08 Mbytes
Step Temp E_pair E_mol TotEng Press 
       0      65.7641    215.81597    622720.42    623084.83   -1494.1089 
    2000    1475.3582    297.03477    2467.4334    6097.9721    -7.166345 
Loop time of 5.64457 on 1 procs for 2000 steps with 759 atoms

Performance: 30.613 ns/day, 0.784 hours/ns, 354.323 timesteps/s
99.7% CPU use with 1 MPI tasks x no OpenMP threads

MPI task timing breakdown:
Section |  min time  |  avg time  |  max time  |%varavg| %total
---------------------------------------------------------------
Pair    | 1.3424     | 1.3424     | 1.3424     |   0.0 | 23.78
Bond    | 0.65678    | 0.65678    | 0.65678    |   0.0 | 11.64
Kspace  | 3.4355     | 3.4355     | 3.4355     |   0.0 | 60.86
Neigh   | 0.17709    | 0.17709    | 0.17709    |   0.0 |  3.14
Comm    | 0.0029559  | 0.0029559  | 0.0029559  |   0.0 |  0.05
Output  | 2.5034e-05 | 2.5034e-05 | 2.5034e-05 |   0.0 |  0.00
Modify  | 0.024738   | 0.024738   | 0.024738   |   0.0 |  0.44
Other   |            | 0.005064   |            |       |  0.09

Nlocal:    759 ave 759 max 759 min
Histogram: 1 0 0 0 0 0 0 0 0 0
Nghost:    0 ave 0 max 0 min
Histogram: 1 0 0 0 0 0 0 0 0 0
Neighs:    29771 ave 29771 max 29771 min
Histogram: 1 0 0 0 0 0 0 0 0 0

Total # of neighbors = 29771
Ave neighs/atom = 39.224
Ave special neighs/atom = 10.8827
Neighbor list builds = 170
Dangerous builds = 0
unfix pysimm_md
min_style cg
minimize 0.001 0.001 10000 100000
WARNING: Using 'neigh_modify every 1 delay 0 check yes' setting during minimization (../min.cpp:190)
PPPM initialization ...
  using 12-bit tables for long-range coulomb (../kspace.cpp:332)
  G vector (1/distance) = 0.0788164
  grid = 18 18 18
  stencil order = 5
  estimated absolute RMS force accuracy = 0.0345144
  estimated relative force accuracy = 0.000103939
  using double precision KISS FFT
  3d grid and FFT values/proc = 12167 5832
Per MPI rank memory allocation (min/avg/max) = 20.2 | 20.2 | 20.2 Mbytes
Step Temp E_pair E_mol TotEng Press 
    2000    1475.3582    297.03477    2467.4334    6097.9721    -7.166345 
    2083    1475.3582    248.86659    773.14396    4355.5145     5.627049 
Loop time of 0.50328 on 1 procs for 83 steps with 759 atoms

100.1% CPU use with 1 MPI tasks x no OpenMP threads

Minimization stats:
  Stopping criterion = energy tolerance
  Energy initial, next-to-last, final = 
          2764.4681288      1022.31455372      1022.01054566
  Force two-norm initial, final = 1212.32 61.8377
  Force max component initial, final = 130.661 8.91349
  Final line search alpha, max atom move = 0.00378424 0.0337308
  Iterations, force evaluations = 83 165

MPI task timing breakdown:
Section |  min time  |  avg time  |  max time  |%varavg| %total
---------------------------------------------------------------
Pair    | 0.17354    | 0.17354    | 0.17354    |   0.0 | 34.48
Bond    | 0.05748    | 0.05748    | 0.05748    |   0.0 | 11.42
Kspace  | 0.26495    | 0.26495    | 0.26495    |   0.0 | 52.64
Neigh   | 0.0042567  | 0.0042567  | 0.0042567  |   0.0 |  0.85
Comm    | 0.00012565 | 0.00012565 | 0.00012565 |   0.0 |  0.02
Output  | 0          | 0          | 0          |   0.0 |  0.00
Modify  | 0          | 0          | 0          |   0.0 |  0.00
Other   |            | 0.002926   |            |       |  0.58

Nlocal:    759 ave 759 max 759 min
Histogram: 1 0 0 0 0 0 0 0 0 0
Nghost:    0 ave 0 max 0 min
Histogram: 1 0 0 0 0 0 0 0 0 0
Neighs:    30044 ave 30044 max 30044 min
Histogram: 1 0 0 0 0 0 0 0 0 0

Total # of neighbors = 30044
Ave neighs/atom = 39.5837
Ave special neighs/atom = 10.8827
Neighbor list builds = 4
Dangerous builds = 0
write_dump all custom pysimm.dump.tmp id q x y z vx vy vz
quit


################################################################################
##################################    Init    ##################################
################################################################################
units           real
atom_style      full
pair_style      lj/cut/coul/long 12.0  12.0
kspace_style    pppm 1e-4
bond_style      harmonic
angle_style     harmonic
dihedral_style  fourier
improper_style  cvff
special_bonds   amber
pair_modify     mix arithmetic
read_data       temp.lmps
  orthogonal box = (-139.368 -139.368 -139.368) to (139.368 139.368 139.368)
  1 by 1 by 1 MPI processor grid
  reading atoms ...
  828 atoms
  reading velocities ...
  828 velocities
  scanning bonds ...
  3 = max bonds/atom
  scanning angles ...
  6 = max angles/atom
  scanning dihedrals ...
  24 = max dihedrals/atom
  scanning impropers ...
  2 = max impropers/atom
  reading bonds ...
  911 bonds
  reading angles ...
  1532 angles
  reading dihedrals ...
  2364 dihedrals
  reading impropers ...
  288 impropers
  4 = max # of 1-2 neighbors
  10 = max # of 1-3 neighbors
  19 = max # of 1-4 neighbors
  22 = max # of special neighbors
  special bonds CPU = 0.000710011 secs
  read_data CPU = 0.0100789 secs
################################################################################

timestep        1
fix             pysimm_md all nve/limit 0.1
run             2000
PPPM initialization ...
WARNING: System is not charge neutral, net charge = -6e-05 (../kspace.cpp:313)
  using 12-bit tables for long-range coulomb (../kspace.cpp:332)
  G vector (1/distance) = 0.0768578
  grid = 18 18 18
  stencil order = 5
  estimated absolute RMS force accuracy = 0.0359143
  estimated relative force accuracy = 0.000108155
  using double precision KISS FFT
  3d grid and FFT values/proc = 12167 5832
Neighbor list info ...
  update every 1 steps, delay 10 steps, check yes
  max neighbors/atom: 2000, page size: 100000
  master list distance cutoff = 14
  ghost atom cutoff = 14
  binsize = 7, bins = 40 40 40
  1 neighbor lists, perpetual/occasional/extra = 1 0 0
  (1) pair lj/cut/coul/long, perpetual
      attributes: half, newton on
      pair build: half/bin/newton
      stencil: half/bin/3d/newton
      bin: standard
Per MPI rank memory allocation (min/avg/max) = 19.11 | 19.11 | 19.11 Mbytes
Step Temp E_pair E_mol TotEng Press 
       0    1352.6054    251.29095    91954.619    95540.258    -204.4637 
    2000    1249.3051    324.05182    2256.5995    5660.3508  0.081923323 
Loop time of 5.88697 on 1 procs for 2000 steps with 828 atoms

Performance: 29.353 ns/day, 0.818 hours/ns, 339.733 timesteps/s
99.9% CPU use with 1 MPI tasks x no OpenMP threads

MPI task timing breakdown:
Section |  min time  |  avg time  |  max time  |%varavg| %total
---------------------------------------------------------------
Pair    | 1.5631     | 1.5631     | 1.5631     |   0.0 | 26.55
Bond    | 0.7252     | 0.7252     | 0.7252     |   0.0 | 12.32
Kspace  | 3.3765     | 3.3765     | 3.3765     |   0.0 | 57.36
Neigh   | 0.18654    | 0.18654    | 0.18654    |   0.0 |  3.17
Comm    | 0.0030713  | 0.0030713  | 0.0030713  |   0.0 |  0.05
Output  | 3.9101e-05 | 3.9101e-05 | 3.9101e-05 |   0.0 |  0.00
Modify  | 0.026826   | 0.026826   | 0.026826   |   0.0 |  0.46
Other   |            | 0.005698   |            |       |  0.10

Nlocal:    828 ave 828 max 828 min
Histogram: 1 0 0 0 0 0 0 0 0 0
Nghost:    0 ave 0 max 0 min
Histogram: 1 0 0 0 0 0 0 0 0 0
Neighs:    32101 ave 32101 max 32101 min
Histogram: 1 0 0 0 0 0 0 0 0 0

Total # of neighbors = 32101
Ave neighs/atom = 38.7693
Ave special neighs/atom = 10.8865
Neighbor list builds = 161
Dangerous builds = 0
unfix pysimm_md
min_style cg
minimize 0.001 0.001 10000 100000
WARNING: Using 'neigh_modify every 1 delay 0 check yes' setting during minimization (../min.cpp:190)
PPPM initialization ...
  using 12-bit tables for long-range coulomb (../kspace.cpp:332)
  G vector (1/distance) = 0.0768578
  grid = 18 18 18
  stencil order = 5
  estimated absolute RMS force accuracy = 0.0359143
  estimated relative force accuracy = 0.000108155
  using double precision KISS FFT
  3d grid and FFT values/proc = 12167 5832
Per MPI rank memory allocation (min/avg/max) = 20.23 | 20.23 | 20.23 Mbytes
Step Temp E_pair E_mol TotEng Press 
    2000    1249.3051    324.05182    2256.5995    5660.3508  0.081923323 
    2035    1249.3051     277.0395    840.19451    4196.9335    5.2016002 
Loop time of 0.253823 on 1 procs for 35 steps with 828 atoms

100.1% CPU use with 1 MPI tasks x no OpenMP threads

Minimization stats:
  Stopping criterion = energy tolerance
  Energy initial, next-to-last, final = 
         2580.65133642      1118.07185787      1117.23401377
  Force two-norm initial, final = 1354.71 67.5885
  Force max component initial, final = 156.291 10.0094
  Final line search alpha, max atom move = 0.00330624 0.0330936
  Iterations, force evaluations = 35 70

MPI task timing breakdown:
Section |  min time  |  avg time  |  max time  |%varavg| %total
---------------------------------------------------------------
Pair    | 0.089105   | 0.089105   | 0.089105   |   0.0 | 35.11
Bond    | 0.029777   | 0.029777   | 0.029777   |   0.0 | 11.73
Kspace  | 0.13213    | 0.13213    | 0.13213    |   0.0 | 52.05
Neigh   | 0.0012519  | 0.0012519  | 0.0012519  |   0.0 |  0.49
Comm    | 4.7684e-05 | 4.7684e-05 | 4.7684e-05 |   0.0 |  0.02
Output  | 0          | 0          | 0          |   0.0 |  0.00
Modify  | 0          | 0          | 0          |   0.0 |  0.00
Other   |            | 0.001516   |            |       |  0.60

Nlocal:    828 ave 828 max 828 min
Histogram: 1 0 0 0 0 0 0 0 0 0
Nghost:    0 ave 0 max 0 min
Histogram: 1 0 0 0 0 0 0 0 0 0
Neighs:    32236 ave 32236 max 32236 min
Histogram: 1 0 0 0 0 0 0 0 0 0

Total # of neighbors = 32236
Ave neighs/atom = 38.9324
Ave special neighs/atom = 10.8865
Neighbor list builds = 1
Dangerous builds = 0
write_dump all custom pysimm.dump.tmp id q x y z vx vy vz
quit


################################################################################
##################################    Init    ##################################
################################################################################
units           real
atom_style      full
pair_style      lj/cut/coul/long 12.0  12.0
kspace_style    pppm 1e-4
bond_style      harmonic
angle_style     harmonic
dihedral_style  fourier
improper_style  cvff
special_bonds   amber
pair_modify     mix arithmetic
read_data       temp.lmps
  orthogonal box = (-143.469 -143.469 -143.469) to (143.469 143.469 143.469)
  1 by 1 by 1 MPI processor grid
  reading atoms ...
  897 atoms
  reading velocities ...
  897 velocities
  scanning bonds ...
  3 = max bonds/atom
  scanning angles ...
  6 = max angles/atom
  scanning dihedrals ...
  24 = max dihedrals/atom
  scanning impropers ...
  2 = max impropers/atom
  reading bonds ...
  987 bonds
  reading angles ...
  1660 angles
  reading dihedrals ...
  2562 dihedrals
  reading impropers ...
  312 impropers
  4 = max # of 1-2 neighbors
  10 = max # of 1-3 neighbors
  19 = max # of 1-4 neighbors
  22 = max # of special neighbors
  special bonds CPU = 0.000864983 secs
  read_data CPU = 0.011183 secs
################################################################################

timestep        1
fix             pysimm_md all nve/limit 0.1
run             2000
PPPM initialization ...
WARNING: System is not charge neutral, net charge = -6.5e-05 (../kspace.cpp:313)
  using 12-bit tables for long-range coulomb (../kspace.cpp:332)
  G vector (1/distance) = 0.0816206
  grid = 20 20 20
  stencil order = 5
  estimated absolute RMS force accuracy = 0.0321037
  estimated relative force accuracy = 9.66793e-05
  using double precision KISS FFT
  3d grid and FFT values/proc = 15625 8000
Neighbor list info ...
  update every 1 steps, delay 10 steps, check yes
  max neighbors/atom: 2000, page size: 100000
  master list distance cutoff = 14
  ghost atom cutoff = 14
  binsize = 7, bins = 41 41 41
  1 neighbor lists, perpetual/occasional/extra = 1 0 0
  (1) pair lj/cut/coul/long, perpetual
      attributes: half, newton on
      pair build: half/bin/newton
      stencil: half/bin/3d/newton
      bin: standard
WARNING: Bond/angle/dihedral extent > half of periodic box length (../domain.cpp:906)
Per MPI rank memory allocation (min/avg/max) = 19.46 | 19.46 | 19.46 Mbytes
Step Temp E_pair E_mol TotEng Press 
       0    1153.4135    278.45062    820409.53    823768.52     -1629.18 
    2000    1670.2377     375.3733    2583.6084    7419.8624   0.39682884 
Loop time of 6.85168 on 1 procs for 2000 steps with 897 atoms

Performance: 25.220 ns/day, 0.952 hours/ns, 291.899 timesteps/s
99.9% CPU use with 1 MPI tasks x no OpenMP threads

MPI task timing breakdown:
Section |  min time  |  avg time  |  max time  |%varavg| %total
---------------------------------------------------------------
Pair    | 1.8414     | 1.8414     | 1.8414     |   0.0 | 26.87
Bond    | 0.78222    | 0.78222    | 0.78222    |   0.0 | 11.42
Kspace  | 3.9479     | 3.9479     | 3.9479     |   0.0 | 57.62
Neigh   | 0.24182    | 0.24182    | 0.24182    |   0.0 |  3.53
Comm    | 0.0035269  | 0.0035269  | 0.0035269  |   0.0 |  0.05
Output  | 2.1219e-05 | 2.1219e-05 | 2.1219e-05 |   0.0 |  0.00
Modify  | 0.029283   | 0.029283   | 0.029283   |   0.0 |  0.43
Other   |            | 0.005494   |            |       |  0.08

Nlocal:    897 ave 897 max 897 min
Histogram: 1 0 0 0 0 0 0 0 0 0
Nghost:    0 ave 0 max 0 min
Histogram: 1 0 0 0 0 0 0 0 0 0
Neighs:    46800 ave 46800 max 46800 min
Histogram: 1 0 0 0 0 0 0 0 0 0

Total # of neighbors = 46800
Ave neighs/atom = 52.1739
Ave special neighs/atom = 10.8896
Neighbor list builds = 172
Dangerous builds = 0
unfix pysimm_md
min_style cg
minimize 0.001 0.001 10000 100000
WARNING: Using 'neigh_modify every 1 delay 0 check yes' setting during minimization (../min.cpp:190)
PPPM initialization ...
  using 12-bit tables for long-range coulomb (../kspace.cpp:332)
  G vector (1/distance) = 0.0816206
  grid = 20 20 20
  stencil order = 5
  estimated absolute RMS force accuracy = 0.0321037
  estimated relative force accuracy = 9.66793e-05
  using double precision KISS FFT
  3d grid and FFT values/proc = 15625 8000
Per MPI rank memory allocation (min/avg/max) = 20.58 | 20.58 | 20.58 Mbytes
Step Temp E_pair E_mol TotEng Press 
    2000    1670.2377     375.3733    2583.6084    7419.8624   0.39682884 
    2054    1670.2377    281.54948    937.73275    5680.1629    8.0455954 
Loop time of 0.428454 on 1 procs for 54 steps with 897 atoms

99.9% CPU use with 1 MPI tasks x no OpenMP threads

Minimization stats:
  Stopping criterion = energy tolerance
  Energy initial, next-to-last, final = 
         2958.98174594      1219.93501724      1219.28223236
  Force two-norm initial, final = 1385.84 69.1544
  Force max component initial, final = 164.246 7.52137
  Final line search alpha, max atom move = 0.00245682 0.0184787
  Iterations, force evaluations = 54 108

MPI task timing breakdown:
Section |  min time  |  avg time  |  max time  |%varavg| %total
---------------------------------------------------------------
Pair    | 0.16593    | 0.16593    | 0.16593    |   0.0 | 38.73
Bond    | 0.043788   | 0.043788   | 0.043788   |   0.0 | 10.22
Kspace  | 0.21352    | 0.21352    | 0.21352    |   0.0 | 49.84
Neigh   | 0.0029762  | 0.0029762  | 0.0029762  |   0.0 |  0.69
Comm    | 7.1049e-05 | 7.1049e-05 | 7.1049e-05 |   0.0 |  0.02
Output  | 0          | 0          | 0          |   0.0 |  0.00
Modify  | 0          | 0          | 0          |   0.0 |  0.00
Other   |            | 0.002163   |            |       |  0.50

Nlocal:    897 ave 897 max 897 min
Histogram: 1 0 0 0 0 0 0 0 0 0
Nghost:    0 ave 0 max 0 min
Histogram: 1 0 0 0 0 0 0 0 0 0
Neighs:    46957 ave 46957 max 46957 min
Histogram: 1 0 0 0 0 0 0 0 0 0

Total # of neighbors = 46957
Ave neighs/atom = 52.3489
Ave special neighs/atom = 10.8896
Neighbor list builds = 2
Dangerous builds = 0
write_dump all custom pysimm.dump.tmp id q x y z vx vy vz
quit


################################################################################
##################################    Init    ##################################
################################################################################
units           real
atom_style      full
pair_style      lj/cut/coul/long 12.0  12.0
kspace_style    pppm 1e-4
bond_style      harmonic
angle_style     harmonic
dihedral_style  fourier
improper_style  cvff
special_bonds   amber
pair_modify     mix arithmetic
read_data       temp.lmps
  orthogonal box = (-147.348 -147.348 -147.348) to (147.348 147.348 147.348)
  1 by 1 by 1 MPI processor grid
  reading atoms ...
  966 atoms
  reading velocities ...
  966 velocities
  scanning bonds ...
  3 = max bonds/atom
  scanning angles ...
  6 = max angles/atom
  scanning dihedrals ...
  24 = max dihedrals/atom
  scanning impropers ...
  2 = max impropers/atom
  reading bonds ...
  1063 bonds
  reading angles ...
  1788 angles
  reading dihedrals ...
  2760 dihedrals
  reading impropers ...
  336 impropers
  4 = max # of 1-2 neighbors
  10 = max # of 1-3 neighbors
  19 = max # of 1-4 neighbors
  22 = max # of special neighbors
  special bonds CPU = 0.000823975 secs
  read_data CPU = 0.011153 secs
################################################################################

timestep        1
fix             pysimm_md all nve/limit 0.1
run             2000
PPPM initialization ...
WARNING: System is not charge neutral, net charge = -7e-05 (../kspace.cpp:313)
  using 12-bit tables for long-range coulomb (../kspace.cpp:332)
  G vector (1/distance) = 0.0799349
  grid = 20 20 20
  stencil order = 5
  estimated absolute RMS force accuracy = 0.0332886
  estimated relative force accuracy = 0.000100247
  using double precision KISS FFT
  3d grid and FFT values/proc = 15625 8000
Neighbor list info ...
  update every 1 steps, delay 10 steps, check yes
  max neighbors/atom: 2000, page size: 100000
  master list distance cutoff = 14
  ghost atom cutoff = 14
  binsize = 7, bins = 43 43 43
  1 neighbor lists, perpetual/occasional/extra = 1 0 0
  (1) pair lj/cut/coul/long, perpetual
      attributes: half, newton on
      pair build: half/bin/newton
      stencil: half/bin/3d/newton
      bin: standard
Per MPI rank memory allocation (min/avg/max) = 19.52 | 19.52 | 19.52 Mbytes
Step Temp E_pair E_mol TotEng Press 
       0     1551.105    283.57996    207593.62    212338.92   -383.79194 
    2000     1254.391    394.22232    2784.2958    6786.7507    3.7742303 
Loop time of 7.74712 on 1 procs for 2000 steps with 966 atoms

Performance: 22.305 ns/day, 1.076 hours/ns, 258.160 timesteps/s
100.0% CPU use with 1 MPI tasks x no OpenMP threads

MPI task timing breakdown:
Section |  min time  |  avg time  |  max time  |%varavg| %total
---------------------------------------------------------------
Pair    | 2.3038     | 2.3038     | 2.3038     |   0.0 | 29.74
Bond    | 0.8579     | 0.8579     | 0.8579     |   0.0 | 11.07
Kspace  | 4.2568     | 4.2568     | 4.2568     |   0.0 | 54.95
Neigh   | 0.28744    | 0.28744    | 0.28744    |   0.0 |  3.71
Comm    | 0.003314   | 0.003314   | 0.003314   |   0.0 |  0.04
Output  | 2.5034e-05 | 2.5034e-05 | 2.5034e-05 |   0.0 |  0.00
Modify  | 0.031487   | 0.031487   | 0.031487   |   0.0 |  0.41
Other   |            | 0.006349   |            |       |  0.08

Nlocal:    966 ave 966 max 966 min
Histogram: 1 0 0 0 0 0 0 0 0 0
Nghost:    0 ave 0 max 0 min
Histogram: 1 0 0 0 0 0 0 0 0 0
Neighs:    57805 ave 57805 max 57805 min
Histogram: 1 0 0 0 0 0 0 0 0 0

Total # of neighbors = 57805
Ave neighs/atom = 59.8395
Ave special neighs/atom = 10.8923
Neighbor list builds = 162
Dangerous builds = 0
unfix pysimm_md
min_style cg
minimize 0.001 0.001 10000 100000
WARNING: Using 'neigh_modify every 1 delay 0 check yes' setting during minimization (../min.cpp:190)
PPPM initialization ...
  using 12-bit tables for long-range coulomb (../kspace.cpp:332)
  G vector (1/distance) = 0.0799349
  grid = 20 20 20
  stencil order = 5
  estimated absolute RMS force accuracy = 0.0332886
  estimated relative force accuracy = 0.000100247
  using double precision KISS FFT
  3d grid and FFT values/proc = 15625 8000
Per MPI rank memory allocation (min/avg/max) = 20.64 | 20.64 | 20.64 Mbytes
Step Temp E_pair E_mol TotEng Press 
    2000     1254.391    394.22232    2784.2958    6786.7507    3.7742303 
    2040     1254.391    290.85305    969.90099    4868.9867    6.8798345 
Loop time of 0.382425 on 1 procs for 40 steps with 966 atoms

100.4% CPU use with 1 MPI tasks x no OpenMP threads

Minimization stats:
  Stopping criterion = energy tolerance
  Energy initial, next-to-last, final = 
         3178.51809109      1261.38740606      1260.75404236
  Force two-norm initial, final = 1566.7 74.7902
  Force max component initial, final = 177.654 8.31082
  Final line search alpha, max atom move = 0.00337467 0.0280462
  Iterations, force evaluations = 40 80

MPI task timing breakdown:
Section |  min time  |  avg time  |  max time  |%varavg| %total
---------------------------------------------------------------
Pair    | 0.16495    | 0.16495    | 0.16495    |   0.0 | 43.13
Bond    | 0.037992   | 0.037992   | 0.037992   |   0.0 |  9.93
Kspace  | 0.17574    | 0.17574    | 0.17574    |   0.0 | 45.95
Neigh   | 0.0018868  | 0.0018868  | 0.0018868  |   0.0 |  0.49
Comm    | 4.1485e-05 | 4.1485e-05 | 4.1485e-05 |   0.0 |  0.01
Output  | 0          | 0          | 0          |   0.0 |  0.00
Modify  | 0          | 0          | 0          |   0.0 |  0.00
Other   |            | 0.001811   |            |       |  0.47

Nlocal:    966 ave 966 max 966 min
Histogram: 1 0 0 0 0 0 0 0 0 0
Nghost:    0 ave 0 max 0 min
Histogram: 1 0 0 0 0 0 0 0 0 0
Neighs:    57863 ave 57863 max 57863 min
Histogram: 1 0 0 0 0 0 0 0 0 0

Total # of neighbors = 57863
Ave neighs/atom = 59.8996
Ave special neighs/atom = 10.8923
Neighbor list builds = 1
Dangerous builds = 0
write_dump all custom pysimm.dump.tmp id q x y z vx vy vz
quit


################################################################################
##################################    Init    ##################################
################################################################################
units           real
atom_style      full
pair_style      lj/cut/coul/long 12.0  12.0
kspace_style    pppm 1e-4
bond_style      harmonic
angle_style     harmonic
dihedral_style  fourier
improper_style  cvff
special_bonds   amber
pair_modify     mix arithmetic
read_data       temp.lmps
  orthogonal box = (-151.034 -151.034 -151.034) to (151.034 151.034 151.034)
  1 by 1 by 1 MPI processor grid
  reading atoms ...
  1035 atoms
  reading velocities ...
  1035 velocities
  scanning bonds ...
  3 = max bonds/atom
  scanning angles ...
  6 = max angles/atom
  scanning dihedrals ...
  24 = max dihedrals/atom
  scanning impropers ...
  2 = max impropers/atom
  reading bonds ...
  1139 bonds
  reading angles ...
  1916 angles
  reading dihedrals ...
  2958 dihedrals
  reading impropers ...
  360 impropers
  4 = max # of 1-2 neighbors
  10 = max # of 1-3 neighbors
  19 = max # of 1-4 neighbors
  22 = max # of special neighbors
  special bonds CPU = 0.000952959 secs
  read_data CPU = 0.012795 secs
################################################################################

timestep        1
fix             pysimm_md all nve/limit 0.1
run             2000
PPPM initialization ...
WARNING: System is not charge neutral, net charge = -7.5e-05 (../kspace.cpp:313)
  using 12-bit tables for long-range coulomb (../kspace.cpp:332)
  G vector (1/distance) = 0.0783946
  grid = 20 20 20
  stencil order = 5
  estimated absolute RMS force accuracy = 0.0343901
  estimated relative force accuracy = 0.000103565
[...]
  using double precision KISS FFT
  3d grid and FFT values/proc = 42875 27000
Per MPI rank memory allocation (min/avg/max) = 25.21 | 25.21 | 25.21 Mbytes
Step Temp E_pair E_mol TotEng Press 
    2000    416.90404    1067.2822    5225.9177    10322.071  -0.75879281 
    2038    416.90404    939.27396    3033.8309    8001.9764    1.8108301 
Loop time of 1.21528 on 1 procs for 38 steps with 3243 atoms

100.0% CPU use with 1 MPI tasks x no OpenMP threads

Minimization stats:
  Stopping criterion = energy tolerance
  Energy initial, next-to-last, final = 
         6293.19993556      3976.41056872      3973.10482379
  Force two-norm initial, final = 1696.95 94.4246
  Force max component initial, final = 200.137 9.88479
  Final line search alpha, max atom move = 0.00286518 0.0283217
  Iterations, force evaluations = 38 75

MPI task timing breakdown:
Section |  min time  |  avg time  |  max time  |%varavg| %total
---------------------------------------------------------------
Pair    | 0.5167     | 0.5167     | 0.5167     |   0.0 | 42.52
Bond    | 0.11707    | 0.11707    | 0.11707    |   0.0 |  9.63
Kspace  | 0.56258    | 0.56258    | 0.56258    |   0.0 | 46.29
Neigh   | 0.013069   | 0.013069   | 0.013069   |   0.0 |  1.08
Comm    | 0.00014734 | 0.00014734 | 0.00014734 |   0.0 |  0.01
Output  | 0          | 0          | 0          |   0.0 |  0.00
Modify  | 0          | 0          | 0          |   0.0 |  0.00
Other   |            | 0.005711   |            |       |  0.47

Nlocal:    3243 ave 3243 max 3243 min
Histogram: 1 0 0 0 0 0 0 0 0 0
Nghost:    0 ave 0 max 0 min
Histogram: 1 0 0 0 0 0 0 0 0 0
Neighs:    200015 ave 200015 max 200015 min
Histogram: 1 0 0 0 0 0 0 0 0 0

Total # of neighbors = 200015
Ave neighs/atom = 61.6759
Ave special neighs/atom = 10.9171
Neighbor list builds = 2
Dangerous builds = 0
write_dump all custom pysimm.dump.tmp id q x y z vx vy vz
quit


################################################################################
##################################    Init    ##################################
################################################################################
units           real
atom_style      full
pair_style      lj/cut/coul/long 12.0  12.0
kspace_style    pppm 1e-4
bond_style      harmonic
angle_style     harmonic
dihedral_style  fourier
improper_style  cvff
special_bonds   amber
pair_modify     mix arithmetic
read_data       temp.lmps
  orthogonal box = (-226.15 -226.15 -226.15) to (226.15 226.15 226.15)
  1 by 1 by 1 MPI processor grid
  reading atoms ...
  3312 atoms
  reading velocities ...
  3312 velocities
  scanning bonds ...
  3 = max bonds/atom
  scanning angles ...
  6 = max angles/atom
  scanning dihedrals ...
  24 = max dihedrals/atom
  scanning impropers ...
  2 = max impropers/atom
  reading bonds ...
  3647 bonds
  reading angles ...
  6140 angles
  reading dihedrals ...
  9492 dihedrals
  reading impropers ...
  1152 impropers
  4 = max # of 1-2 neighbors
  10 = max # of 1-3 neighbors
  19 = max # of 1-4 neighbors
  22 = max # of special neighbors
  special bonds CPU = 0.00266504 secs
  read_data CPU = 0.032764 secs
################################################################################

timestep        1
fix             pysimm_md all nve/limit 0.1
run             2000
PPPM initialization ...
WARNING: System is not charge neutral, net charge = -0.00024 (../kspace.cpp:313)
  using 12-bit tables for long-range coulomb (../kspace.cpp:332)
  G vector (1/distance) = 0.0785044
  grid = 30 30 30
  stencil order = 5
  estimated absolute RMS force accuracy = 0.0334928
  estimated relative force accuracy = 0.000100863
  using double precision KISS FFT
  3d grid and FFT values/proc = 42875 27000
Neighbor list info ...
  update every 1 steps, delay 10 steps, check yes
  max neighbors/atom: 2000, page size: 100000
  master list distance cutoff = 14
  ghost atom cutoff = 14
  binsize = 7, bins = 65 65 65
  1 neighbor lists, perpetual/occasional/extra = 1 0 0
  (1) pair lj/cut/coul/long, perpetual
      attributes: half, newton on
      pair build: half/bin/newton
      stencil: half/bin/3d/newton
      bin: standard
Per MPI rank memory allocation (min/avg/max) = 24.09 | 24.09 | 24.09 Mbytes
Step Temp E_pair E_mol TotEng Press 
       0    408.30151    942.45434    542089.77    547061.94   -274.48643 
    2000    449.99713    982.23197    5312.7623    10736.224  -0.16595321 
Loop time of 28.7943 on 1 procs for 2000 steps with 3312 atoms

Performance: 6.001 ns/day, 3.999 hours/ns, 69.458 timesteps/s
99.9% CPU use with 1 MPI tasks x no OpenMP threads

MPI task timing breakdown:
Section |  min time  |  avg time  |  max time  |%varavg| %total
---------------------------------------------------------------
Pair    | 9.558      | 9.558      | 9.558      |   0.0 | 33.19
Bond    | 2.904      | 2.904      | 2.904      |   0.0 | 10.09
Kspace  | 14.986     | 14.986     | 14.986     |   0.0 | 52.05
Neigh   | 1.2125     | 1.2125     | 1.2125     |   0.0 |  4.21
Comm    | 0.011236   | 0.011236   | 0.011236   |   0.0 |  0.04
Output  | 3.6001e-05 | 3.6001e-05 | 3.6001e-05 |   0.0 |  0.00
Modify  | 0.10483    | 0.10483    | 0.10483    |   0.0 |  0.36
Other   |            | 0.01738    |            |       |  0.06

Nlocal:    3312 ave 3312 max 3312 min
Histogram: 1 0 0 0 0 0 0 0 0 0
Nghost:    0 ave 0 max 0 min
Histogram: 1 0 0 0 0 0 0 0 0 0
Neighs:    238713 ave 238713 max 238713 min
Histogram: 1 0 0 0 0 0 0 0 0 0

Total # of neighbors = 238713
Ave neighs/atom = 72.0752
Ave special neighs/atom = 10.9173
Neighbor list builds = 172
Dangerous builds = 0
unfix pysimm_md
min_style cg
minimize 0.001 0.001 10000 100000
WARNING: Using 'neigh_modify every 1 delay 0 check yes' setting during minimization (../min.cpp:190)
PPPM initialization ...
  using 12-bit tables for long-range coulomb (../kspace.cpp:332)
  G vector (1/distance) = 0.0785044
  grid = 30 30 30
  stencil order = 5
  estimated absolute RMS force accuracy = 0.0334928
  estimated relative force accuracy = 0.000100863
  using double precision KISS FFT
  3d grid and FFT values/proc = 42875 27000
Per MPI rank memory allocation (min/avg/max) = 25.22 | 25.22 | 25.22 Mbytes
Step Temp E_pair E_mol TotEng Press 
    2000    449.99713    982.23197    5312.7623    10736.224  -0.16595321 
    2027    449.99713    877.90433    3246.2174    8565.3513    2.0939372 
Loop time of 0.970816 on 1 procs for 27 steps with 3312 atoms

100.0% CPU use with 1 MPI tasks x no OpenMP threads

Minimization stats:
  Stopping criterion = energy tolerance
  Energy initial, next-to-last, final = 
         6294.99424984      4126.02637565      4124.12170674
  Force two-norm initial, final = 1647.21 92.7532
  Force max component initial, final = 150.83 9.69707
  Final line search alpha, max atom move = 0.0115949 0.112437
  Iterations, force evaluations = 27 53

MPI task timing breakdown:
Section |  min time  |  avg time  |  max time  |%varavg| %total
---------------------------------------------------------------
Pair    | 0.45111    | 0.45111    | 0.45111    |   0.0 | 46.47
Bond    | 0.087394   | 0.087394   | 0.087394   |   0.0 |  9.00
Kspace  | 0.42001    | 0.42001    | 0.42001    |   0.0 | 43.26
Neigh   | 0.0077801  | 0.0077801  | 0.0077801  |   0.0 |  0.80
Comm    | 9.8944e-05 | 9.8944e-05 | 9.8944e-05 |   0.0 |  0.01
Output  | 0          | 0          | 0          |   0.0 |  0.00
Modify  | 0          | 0          | 0          |   0.0 |  0.00
Other   |            | 0.004421   |            |       |  0.46

Nlocal:    3312 ave 3312 max 3312 min
Histogram: 1 0 0 0 0 0 0 0 0 0
Nghost:    0 ave 0 max 0 min
Histogram: 1 0 0 0 0 0 0 0 0 0
Neighs:    238659 ave 238659 max 238659 min
Histogram: 1 0 0 0 0 0 0 0 0 0

Total # of neighbors = 238659
Ave neighs/atom = 72.0589
Ave special neighs/atom = 10.9173
Neighbor list builds = 1
Dangerous builds = 0
write_dump all custom pysimm.dump.tmp id q x y z vx vy vz
quit


################################################################################
##################################    Init    ##################################
################################################################################
units           real
atom_style      full
pair_style      lj/cut/coul/long 12.0  12.0
kspace_style    pppm 1e-4
bond_style      harmonic
angle_style     harmonic
dihedral_style  fourier
improper_style  cvff
special_bonds   amber
pair_modify     mix arithmetic
read_data       temp.lmps
  orthogonal box = (-227.743 -227.743 -227.743) to (227.743 227.743 227.743)
  1 by 1 by 1 MPI processor grid
  reading atoms ...
  3381 atoms
  reading velocities ...
  3381 velocities
  scanning bonds ...
  3 = max bonds/atom
  scanning angles ...
  6 = max angles/atom
  scanning dihedrals ...
  24 = max dihedrals/atom
  scanning impropers ...
  2 = max impropers/atom
  reading bonds ...
  3723 bonds
  reading angles ...
  6268 angles
  reading dihedrals ...
  9690 dihedrals
  reading impropers ...
  1176 impropers
  4 = max # of 1-2 neighbors
  10 = max # of 1-3 neighbors
  19 = max # of 1-4 neighbors
  22 = max # of special neighbors
  special bonds CPU = 0.00248098 secs
  read_data CPU = 0.0322311 secs
################################################################################

timestep        1
fix             pysimm_md all nve/limit 0.1
run             2000
PPPM initialization ...
WARNING: System is not charge neutral, net charge = -0.000245 (../kspace.cpp:313)
  using 12-bit tables for long-range coulomb (../kspace.cpp:332)
  G vector (1/distance) = 0.07807
  grid = 30 30 30
  stencil order = 5
  estimated absolute RMS force accuracy = 0.033815
  estimated relative force accuracy = 0.000101833
  using double precision KISS FFT
  3d grid and FFT values/proc = 42875 27000
Neighbor list info ...
  update every 1 steps, delay 10 steps, check yes
  max neighbors/atom: 2000, page size: 100000
  master list distance cutoff = 14
  ghost atom cutoff = 14
  binsize = 7, bins = 66 66 66
  1 neighbor lists, perpetual/occasional/extra = 1 0 0
  (1) pair lj/cut/coul/long, perpetual
      attributes: half, newton on
      pair build: half/bin/newton
      stencil: half/bin/3d/newton
      bin: standard
Per MPI rank memory allocation (min/avg/max) = 24.16 | 24.16 | 24.16 Mbytes
Step Temp E_pair E_mol TotEng Press 
       0    440.89464    880.05312    286513.87       291836   -141.98858 
    2000    399.08339    1001.3863    5309.8708    10332.077    0.4690104 
Loop time of 29.2316 on 1 procs for 2000 steps with 3381 atoms

Performance: 5.911 ns/day, 4.060 hours/ns, 68.419 timesteps/s
99.8% CPU use with 1 MPI tasks x no OpenMP threads

MPI task timing breakdown:
Section |  min time  |  avg time  |  max time  |%varavg| %total
---------------------------------------------------------------
Pair    | 9.7899     | 9.7899     | 9.7899     |   0.0 | 33.49
Bond    | 2.9579     | 2.9579     | 2.9579     |   0.0 | 10.12
Kspace  | 15.141     | 15.141     | 15.141     |   0.0 | 51.80
Neigh   | 1.2072     | 1.2072     | 1.2072     |   0.0 |  4.13
Comm    | 0.011073   | 0.011073   | 0.011073   |   0.0 |  0.04
Output  | 3.314e-05  | 3.314e-05  | 3.314e-05  |   0.0 |  0.00
Modify  | 0.10632    | 0.10632    | 0.10632    |   0.0 |  0.36
Other   |            | 0.01848    |            |       |  0.06

Nlocal:    3381 ave 3381 max 3381 min
Histogram: 1 0 0 0 0 0 0 0 0 0
Nghost:    0 ave 0 max 0 min
Histogram: 1 0 0 0 0 0 0 0 0 0
Neighs:    219583 ave 219583 max 219583 min
Histogram: 1 0 0 0 0 0 0 0 0 0

Total # of neighbors = 219583
Ave neighs/atom = 64.9462
Ave special neighs/atom = 10.9175
Neighbor list builds = 166
Dangerous builds = 0
unfix pysimm_md
min_style cg
minimize 0.001 0.001 10000 100000
WARNING: Using 'neigh_modify every 1 delay 0 check yes' setting during minimization (../min.cpp:190)
PPPM initialization ...
  using 12-bit tables for long-range coulomb (../kspace.cpp:332)
  G vector (1/distance) = 0.07807
  grid = 30 30 30
  stencil order = 5
  estimated absolute RMS force accuracy = 0.033815
  estimated relative force accuracy = 0.000101833
  using double precision KISS FFT
  3d grid and FFT values/proc = 42875 27000
Per MPI rank memory allocation (min/avg/max) = 25.28 | 25.28 | 25.28 Mbytes
Step Temp E_pair E_mol TotEng Press 
    2000    399.08339    1001.3863    5309.8708    10332.077    0.4690104 
    2030    399.08339      890.207    3101.2113    8012.2385    1.8531481 
Loop time of 1.04965 on 1 procs for 30 steps with 3381 atoms

100.0% CPU use with 1 MPI tasks x no OpenMP threads

Minimization stats:
  Stopping criterion = energy tolerance
  Energy initial, next-to-last, final = 
         6311.25712361       3995.0559007      3991.41825652
  Force two-norm initial, final = 1731.1 108.79
  Force max component initial, final = 195.768 14.3562
  Final line search alpha, max atom move = 0.00332861 0.0477861
  Iterations, force evaluations = 30 60

MPI task timing breakdown:
Section |  min time  |  avg time  |  max time  |%varavg| %total
---------------------------------------------------------------
Pair    | 0.46021    | 0.46021    | 0.46021    |   0.0 | 43.84
Bond    | 0.099927   | 0.099927   | 0.099927   |   0.0 |  9.52
Kspace  | 0.47756    | 0.47756    | 0.47756    |   0.0 | 45.50
Neigh   | 0.007062   | 0.007062   | 0.007062   |   0.0 |  0.67
Comm    | 0.00010753 | 0.00010753 | 0.00010753 |   0.0 |  0.01
Output  | 0          | 0          | 0          |   0.0 |  0.00
Modify  | 0          | 0          | 0          |   0.0 |  0.00
Other   |            | 0.004788   |            |       |  0.46

Nlocal:    3381 ave 3381 max 3381 min
Histogram: 1 0 0 0 0 0 0 0 0 0
Nghost:    0 ave 0 max 0 min
Histogram: 1 0 0 0 0 0 0 0 0 0
Neighs:    219604 ave 219604 max 219604 min
Histogram: 1 0 0 0 0 0 0 0 0 0

Total # of neighbors = 219604
Ave neighs/atom = 64.9524
Ave special neighs/atom = 10.9175
Neighbor list builds = 1
Dangerous builds = 0
write_dump all custom pysimm.dump.tmp id q x y z vx vy vz
quit


################################################################################
##################################    Init    ##################################
################################################################################
units           real
atom_style      full
pair_style      lj/cut/coul/long 12.0  12.0
kspace_style    pppm 1e-4
bond_style      harmonic
angle_style     harmonic
dihedral_style  fourier
improper_style  cvff
special_bonds   amber
pair_modify     mix arithmetic
read_data       temp.lmps
  orthogonal box = (-229.313 -229.313 -229.313) to (229.313 229.313 229.313)
  1 by 1 by 1 MPI processor grid
  reading atoms ...
  3450 atoms
  reading velocities ...
  3450 velocities
  scanning bonds ...
  3 = max bonds/atom
  scanning angles ...
  6 = max angles/atom
  scanning dihedrals ...
  24 = max dihedrals/atom
  scanning impropers ...
  2 = max impropers/atom
  reading bonds ...
  3799 bonds
  reading angles ...
  6396 angles
  reading dihedrals ...
  9888 dihedrals
  reading impropers ...
  1200 impropers
  4 = max # of 1-2 neighbors
  10 = max # of 1-3 neighbors
  19 = max # of 1-4 neighbors
  22 = max # of special neighbors
  special bonds CPU = 0.00270605 secs
  read_data CPU = 0.032517 secs
################################################################################

timestep        1
fix             pysimm_md all nve/limit 0.1
run             2000
PPPM initialization ...
WARNING: System is not charge neutral, net charge = -0.00025 (../kspace.cpp:313)
  using 12-bit tables for long-range coulomb (../kspace.cpp:332)
  G vector (1/distance) = 0.0776462
  grid = 30 30 30
  stencil order = 5
  estimated absolute RMS force accuracy = 0.0341307
  estimated relative force accuracy = 0.000102784
  using double precision KISS FFT
  3d grid and FFT values/proc = 42875 27000
Neighbor list info ...
  update every 1 steps, delay 10 steps, check yes
  max neighbors/atom: 2000, page size: 100000
  master list distance cutoff = 14
  ghost atom cutoff = 14
  binsize = 7, bins = 66 66 66
  1 neighbor lists, perpetual/occasional/extra = 1 0 0
  (1) pair lj/cut/coul/long, perpetual
      attributes: half, newton on
      pair build: half/bin/newton
      stencil: half/bin/3d/newton
      bin: standard
Per MPI rank memory allocation (min/avg/max) = 24.17 | 24.17 | 24.17 Mbytes
Step Temp E_pair E_mol TotEng Press 
       0    391.18153    892.30119    767442.32    772356.29   -371.70233 
    2000    523.60786    1014.2151    6028.0339    12425.364   0.65894526 
Loop time of 29.875 on 1 procs for 2000 steps with 3450 atoms

Performance: 5.784 ns/day, 4.149 hours/ns, 66.946 timesteps/s
100.0% CPU use with 1 MPI tasks x no OpenMP threads

MPI task timing breakdown:
Section |  min time  |  avg time  |  max time  |%varavg| %total
---------------------------------------------------------------
Pair    | 10.079     | 10.079     | 10.079     |   0.0 | 33.74
Bond    | 3.0546     | 3.0546     | 3.0546     |   0.0 | 10.22
Kspace  | 15.317     | 15.317     | 15.317     |   0.0 | 51.27
Neigh   | 1.283      | 1.283      | 1.283      |   0.0 |  4.29
Comm    | 0.011901   | 0.011901   | 0.011901   |   0.0 |  0.04
Output  | 3.6955e-05 | 3.6955e-05 | 3.6955e-05 |   0.0 |  0.00
Modify  | 0.11079    | 0.11079    | 0.11079    |   0.0 |  0.37
Other   |            | 0.01845    |            |       |  0.06

Nlocal:    3450 ave 3450 max 3450 min
Histogram: 1 0 0 0 0 0 0 0 0 0
Nghost:    0 ave 0 max 0 min
Histogram: 1 0 0 0 0 0 0 0 0 0
Neighs:    225780 ave 225780 max 225780 min
Histogram: 1 0 0 0 0 0 0 0 0 0

Total # of neighbors = 225780
Ave neighs/atom = 65.4435
Ave special neighs/atom = 10.9177
Neighbor list builds = 173
Dangerous builds = 0
unfix pysimm_md
min_style cg
minimize 0.001 0.001 10000 100000
WARNING: Using 'neigh_modify every 1 delay 0 check yes' setting during minimization (../min.cpp:190)
PPPM initialization ...
  using 12-bit tables for long-range coulomb (../kspace.cpp:332)
  G vector (1/distance) = 0.0776462
  grid = 30 30 30
  stencil order = 5
  estimated absolute RMS force accuracy = 0.0341307
  estimated relative force accuracy = 0.000102784
  using double precision KISS FFT
  3d grid and FFT values/proc = 42875 27000
Per MPI rank memory allocation (min/avg/max) = 25.29 | 25.29 | 25.29 Mbytes
Step Temp E_pair E_mol TotEng Press 
    2000    523.60786    1014.2151    6028.0339    12425.364   0.65894526 
    2032    523.60786    888.66027    3279.0903    9550.8655    2.4054684 
Loop time of 1.13828 on 1 procs for 32 steps with 3450 atoms

99.9% CPU use with 1 MPI tasks x no OpenMP threads

Minimization stats:
  Stopping criterion = energy tolerance
  Energy initial, next-to-last, final = 
         7042.24900345      4168.77794836       4167.7505324
  Force two-norm initial, final = 1902.64 114.121
  Force max component initial, final = 174.393 10.5145
  Final line search alpha, max atom move = 0.00249267 0.0262091
  Iterations, force evaluations = 32 63

MPI task timing breakdown:
Section |  min time  |  avg time  |  max time  |%varavg| %total
---------------------------------------------------------------
Pair    | 0.50594    | 0.50594    | 0.50594    |   0.0 | 44.45
Bond    | 0.10825    | 0.10825    | 0.10825    |   0.0 |  9.51
Kspace  | 0.51086    | 0.51086    | 0.51086    |   0.0 | 44.88
Neigh   | 0.0078702  | 0.0078702  | 0.0078702  |   0.0 |  0.69
Comm    | 0.00010538 | 0.00010538 | 0.00010538 |   0.0 |  0.01
Output  | 0          | 0          | 0          |   0.0 |  0.00
Modify  | 0          | 0          | 0          |   0.0 |  0.00
Other   |            | 0.005258   |            |       |  0.46

Nlocal:    3450 ave 3450 max 3450 min
Histogram: 1 0 0 0 0 0 0 0 0 0
Nghost:    0 ave 0 max 0 min
Histogram: 1 0 0 0 0 0 0 0 0 0
Neighs:    225766 ave 225766 max 225766 min
Histogram: 1 0 0 0 0 0 0 0 0 0

Total # of neighbors = 225766
Ave neighs/atom = 65.4394
Ave special neighs/atom = 10.9177
Neighbor list builds = 1
Dangerous builds = 0
write_dump all custom pysimm.dump.tmp id q x y z vx vy vz
quit
