

################################################################################
##################################    Init    ##################################
################################################################################
units           real
atom_style      full
pair_style      lj/cut/coul/long 12.0  12.0
kspace_style    pppm 1e-4
bond_style      harmonic
angle_style     harmonic
dihedral_style  fourier
improper_style  cvff
special_bonds   amber
pair_modify     mix arithmetic
read_data       temp.lmps
  orthogonal box = (-91.1269 -91.1269 -91.1269) to (91.1269 91.1269 91.1269)
  1 by 1 by 1 MPI processor grid
  reading atoms ...
  482 atoms
  reading velocities ...
  482 velocities
  scanning bonds ...
  3 = max bonds/atom
  scanning angles ...
  6 = max angles/atom
  scanning dihedrals ...
  27 = max dihedrals/atom
  scanning impropers ...
  2 = max impropers/atom
  reading bonds ...
  531 bonds
  reading angles ...
  920 angles
  reading dihedrals ...
  1406 dihedrals
  reading impropers ...
  120 impropers
  4 = max # of 1-2 neighbors
  11 = max # of 1-3 neighbors
  20 = max # of 1-4 neighbors
  22 = max # of special neighbors
  special bonds CPU = 0.106432 secs
  read_data CPU = 0.113579 secs
################################################################################

min_style cg
minimize 1e-06 1e-06 1000000 10000000
WARNING: Using 'neigh_modify every 1 delay 0 check yes' setting during minimization (../min.cpp:190)
PPPM initialization ...
WARNING: System is not charge neutral, net charge = -4e-05 (../kspace.cpp:313)
  using 12-bit tables for long-range coulomb (../kspace.cpp:332)
  G vector (1/distance) = 0.113417
  grid = 20 20 20
  stencil order = 5
  estimated absolute RMS force accuracy = 0.0332391
  estimated relative force accuracy = 0.000100098
  using double precision KISS FFT
  3d grid and FFT values/proc = 15625 8000
Neighbor list info ...
  update every 1 steps, delay 0 steps, check yes
  max neighbors/atom: 2000, page size: 100000
  master list distance cutoff = 14
  ghost atom cutoff = 14
  binsize = 7, bins = 27 27 27
  1 neighbor lists, perpetual/occasional/extra = 1 0 0
  (1) pair lj/cut/coul/long, perpetual
      attributes: half, newton on
      pair build: half/bin/newton
      stencil: half/bin/3d/newton
      bin: standard
Per MPI rank memory allocation (min/avg/max) = 21.22 | 21.22 | 21.22 Mbytes
Step Temp E_pair E_mol TotEng Press 
       0    336.25872    117.61506    476.39126    1076.1239    2.5716776 
      18    336.25872    117.54968     333.0106    932.67782    6.4096951 
Loop time of 0.257503 on 1 procs for 18 steps with 482 atoms

99.4% CPU use with 1 MPI tasks x no OpenMP threads

Minimization stats:
  Stopping criterion = linesearch alpha is zero
  Energy initial, next-to-last, final = 
         594.006313805      450.560284394      450.560284394
  Force two-norm initial, final = 623.856 20.6387
  Force max component initial, final = 258.409 4.80693
  Final line search alpha, max atom move = 2.46966e-11 1.18715e-10
  Iterations, force evaluations = 18 91

MPI task timing breakdown:
Section |  min time  |  avg time  |  max time  |%varavg| %total
---------------------------------------------------------------
Pair    | 0.06758    | 0.06758    | 0.06758    |   0.0 | 26.24
Bond    | 0.021446   | 0.021446   | 0.021446   |   0.0 |  8.33
Kspace  | 0.16751    | 0.16751    | 0.16751    |   0.0 | 65.05
Neigh   | 0          | 0          | 0          |   0.0 |  0.00
Comm    | 4.1008e-05 | 4.1008e-05 | 4.1008e-05 |   0.0 |  0.02
Output  | 0          | 0          | 0          |   0.0 |  0.00
Modify  | 0          | 0          | 0          |   0.0 |  0.00
Other   |            | 0.000926   |            |       |  0.36

Nlocal:    482 ave 482 max 482 min
Histogram: 1 0 0 0 0 0 0 0 0 0
Nghost:    0 ave 0 max 0 min
Histogram: 1 0 0 0 0 0 0 0 0 0
Neighs:    19021 ave 19021 max 19021 min
Histogram: 1 0 0 0 0 0 0 0 0 0

Total # of neighbors = 19021
Ave neighs/atom = 39.4627
Ave special neighs/atom = 11.0664
Neighbor list builds = 0
Dangerous builds = 0
write_dump all custom pysimm.dump.tmp id q x y z vx vy vz
quit


################################################################################
##################################    Init    ##################################
################################################################################
units           real
atom_style      full
pair_style      lj/cut/coul/long 12.0  12.0
kspace_style    pppm 1e-4
bond_style      harmonic
angle_style     harmonic
dihedral_style  fourier
improper_style  cvff
special_bonds   amber
pair_modify     mix arithmetic
read_data       temp.lmps
  orthogonal box = (-114.813 -114.813 -114.813) to (114.813 114.813 114.813)
  1 by 1 by 1 MPI processor grid
  reading atoms ...
  530 atoms
  reading velocities ...
  530 velocities
  scanning bonds ...
  3 = max bonds/atom
  scanning angles ...
  6 = max angles/atom
  scanning dihedrals ...
  27 = max dihedrals/atom
  scanning impropers ...
  2 = max impropers/atom
  reading bonds ...
  584 bonds
  reading angles ...
  1012 angles
  reading dihedrals ...
  1547 dihedrals
  reading impropers ...
  132 impropers
  4 = max # of 1-2 neighbors
  11 = max # of 1-3 neighbors
  20 = max # of 1-4 neighbors
  22 = max # of special neighbors
  special bonds CPU = 0.000617981 secs
  read_data CPU = 0.00832796 secs
################################################################################

min_style cg
minimize 1e-06 1e-06 1000000 10000000
WARNING: Using 'neigh_modify every 1 delay 0 check yes' setting during minimization (../min.cpp:190)
PPPM initialization ...
WARNING: System is not charge neutral, net charge = -4.4e-05 (../kspace.cpp:313)
  using 12-bit tables for long-range coulomb (../kspace.cpp:332)
  G vector (1/distance) = 0.109759
  grid = 24 24 24
  stencil order = 5
  estimated absolute RMS force accuracy = 0.0277311
  estimated relative force accuracy = 8.35115e-05
  using double precision KISS FFT
  3d grid and FFT values/proc = 24389 13824
Neighbor list info ...
  update every 1 steps, delay 0 steps, check yes
  max neighbors/atom: 2000, page size: 100000
  master list distance cutoff = 14
  ghost atom cutoff = 14
  binsize = 7, bins = 33 33 33
  1 neighbor lists, perpetual/occasional/extra = 1 0 0
  (1) pair lj/cut/coul/long, perpetual
      attributes: half, newton on
      pair build: half/bin/newton
      stencil: half/bin/3d/newton
      bin: standard
Per MPI rank memory allocation (min/avg/max) = 22.14 | 22.14 | 22.14 Mbytes
Step Temp E_pair E_mol TotEng Press 
       0    1658.6459    110.81422    651.40948     3377.657    8.2180579 
      25    1658.6459    113.20488    498.46995    3227.1082    10.218384 
Loop time of 0.469381 on 1 procs for 25 steps with 530 atoms

100.1% CPU use with 1 MPI tasks x no OpenMP threads

Minimization stats:
  Stopping criterion = linesearch alpha is zero
  Energy initial, next-to-last, final = 
         762.223700778      611.674827744      611.674827744
  Force two-norm initial, final = 623.981 30.5357
  Force max component initial, final = 278.1 10.1247
  Final line search alpha, max atom move = 9.38212e-12 9.49912e-11
  Iterations, force evaluations = 25 105

MPI task timing breakdown:
Section |  min time  |  avg time  |  max time  |%varavg| %total
---------------------------------------------------------------
Pair    | 0.091893   | 0.091893   | 0.091893   |   0.0 | 19.58
Bond    | 0.027303   | 0.027303   | 0.027303   |   0.0 |  5.82
Kspace  | 0.34891    | 0.34891    | 0.34891    |   0.0 | 74.33
Neigh   | 0          | 0          | 0          |   0.0 |  0.00
Comm    | 4.3631e-05 | 4.3631e-05 | 4.3631e-05 |   0.0 |  0.01
Output  | 0          | 0          | 0          |   0.0 |  0.00
Modify  | 0          | 0          | 0          |   0.0 |  0.00
Other   |            | 0.001236   |            |       |  0.26

Nlocal:    530 ave 530 max 530 min
Histogram: 1 0 0 0 0 0 0 0 0 0
Nghost:    0 ave 0 max 0 min
Histogram: 1 0 0 0 0 0 0 0 0 0
Neighs:    23425 ave 23425 max 23425 min
Histogram: 1 0 0 0 0 0 0 0 0 0

Total # of neighbors = 23425
Ave neighs/atom = 44.1981
Ave special neighs/atom = 11.0717
Neighbor list builds = 0
Dangerous builds = 0
write_dump all custom pysimm.dump.tmp id q x y z vx vy vz
quit


################################################################################
##################################    Init    ##################################
################################################################################
units           real
atom_style      full
pair_style      lj/cut/coul/long 12.0  12.0
kspace_style    pppm 1e-4
bond_style      harmonic
angle_style     harmonic
dihedral_style  fourier
improper_style  cvff
special_bonds   amber
pair_modify     mix arithmetic
read_data       temp.lmps
  orthogonal box = (-118.519 -118.519 -118.519) to (118.519 118.519 118.519)
  1 by 1 by 1 MPI processor grid
  reading atoms ...
  578 atoms
  reading velocities ...
  578 velocities
  scanning bonds ...
  3 = max bonds/atom
  scanning angles ...
  6 = max angles/atom
  scanning dihedrals ...
  27 = max dihedrals/atom
  scanning impropers ...
  2 = max impropers/atom
  reading bonds ...
  637 bonds
  reading angles ...
  1104 angles
  reading dihedrals ...
  1688 dihedrals
  reading impropers ...
  144 impropers
  4 = max # of 1-2 neighbors
  11 = max # of 1-3 neighbors
  20 = max # of 1-4 neighbors
  22 = max # of special neighbors
  special bonds CPU = 0.000692844 secs
  read_data CPU = 0.00889802 secs
################################################################################

min_style cg
minimize 1e-06 1e-06 1000000 10000000
WARNING: Using 'neigh_modify every 1 delay 0 check yes' setting during minimization (../min.cpp:190)
PPPM initialization ...
WARNING: System is not charge neutral, net charge = -4.8e-05 (../kspace.cpp:313)
  using 12-bit tables for long-range coulomb (../kspace.cpp:332)
  G vector (1/distance) = 0.107401
  grid = 24 24 24
  stencil order = 5
  estimated absolute RMS force accuracy = 0.0297347
  estimated relative force accuracy = 8.9545e-05
  using double precision KISS FFT
  3d grid and FFT values/proc = 24389 13824
Neighbor list info ...
  update every 1 steps, delay 0 steps, check yes
  max neighbors/atom: 2000, page size: 100000
  master list distance cutoff = 14
  ghost atom cutoff = 14
  binsize = 7, bins = 34 34 34
  1 neighbor lists, perpetual/occasional/extra = 1 0 0
  (1) pair lj/cut/coul/long, perpetual
      attributes: half, newton on
      pair build: half/bin/newton
      stencil: half/bin/3d/newton
      bin: standard
Per MPI rank memory allocation (min/avg/max) = 22.17 | 22.17 | 22.17 Mbytes
Step Temp E_pair E_mol TotEng Press 
       0    1589.3207     141.7883    765.12124    3640.4257    5.9020997 
      39    1589.3207     135.8912    586.06076    3455.4681    7.2045455 
Loop time of 0.617716 on 1 procs for 39 steps with 578 atoms

100.0% CPU use with 1 MPI tasks x no OpenMP threads

Minimization stats:
  Stopping criterion = linesearch alpha is zero
  Energy initial, next-to-last, final = 
         906.909536969      721.951952961      721.951952961
  Force two-norm initial, final = 627.737 46.2974
  Force max component initial, final = 264.592 9.11861
  Final line search alpha, max atom move = 4.3368e-12 3.95456e-11
  Iterations, force evaluations = 39 133

MPI task timing breakdown:
Section |  min time  |  avg time  |  max time  |%varavg| %total
---------------------------------------------------------------
Pair    | 0.13002    | 0.13002    | 0.13002    |   0.0 | 21.05
Bond    | 0.037585   | 0.037585   | 0.037585   |   0.0 |  6.08
Kspace  | 0.44729    | 0.44729    | 0.44729    |   0.0 | 72.41
Neigh   | 0.00096512 | 0.00096512 | 0.00096512 |   0.0 |  0.16
Comm    | 9.1314e-05 | 9.1314e-05 | 9.1314e-05 |   0.0 |  0.01
Output  | 0          | 0          | 0          |   0.0 |  0.00
Modify  | 0          | 0          | 0          |   0.0 |  0.00
Other   |            | 0.001756   |            |       |  0.28

Nlocal:    578 ave 578 max 578 min
Histogram: 1 0 0 0 0 0 0 0 0 0
Nghost:    0 ave 0 max 0 min
Histogram: 1 0 0 0 0 0 0 0 0 0
Neighs:    26002 ave 26002 max 26002 min
Histogram: 1 0 0 0 0 0 0 0 0 0

Total # of neighbors = 26002
Ave neighs/atom = 44.9862
Ave special neighs/atom = 11.0761
Neighbor list builds = 1
Dangerous builds = 0
write_dump all custom pysimm.dump.tmp id q x y z vx vy vz
quit


################################################################################
##################################    Init    ##################################
################################################################################
units           real
atom_style      full
pair_style      lj/cut/coul/long 12.0  12.0
kspace_style    pppm 1e-4
bond_style      harmonic
angle_style     harmonic
dihedral_style  fourier
improper_style  cvff
special_bonds   amber
pair_modify     mix arithmetic
read_data       temp.lmps
  orthogonal box = (-122.007 -122.007 -122.007) to (122.007 122.007 122.007)
  1 by 1 by 1 MPI processor grid
  reading atoms ...
  626 atoms
  reading velocities ...
  626 velocities
  scanning bonds ...
  3 = max bonds/atom
  scanning angles ...
  6 = max angles/atom
  scanning dihedrals ...
  27 = max dihedrals/atom
  scanning impropers ...
  2 = max impropers/atom
  reading bonds ...
  690 bonds
  reading angles ...
  1196 angles
  reading dihedrals ...
  1829 dihedrals
  reading impropers ...
  156 impropers
  4 = max # of 1-2 neighbors
  11 = max # of 1-3 neighbors
  20 = max # of 1-4 neighbors
  22 = max # of special neighbors
  special bonds CPU = 0.000674009 secs
  read_data CPU = 0.00914192 secs
################################################################################

min_style cg
minimize 1e-06 1e-06 1000000 10000000
WARNING: Using 'neigh_modify every 1 delay 0 check yes' setting during minimization (../min.cpp:190)
PPPM initialization ...
WARNING: System is not charge neutral, net charge = -5.2e-05 (../kspace.cpp:313)
  using 12-bit tables for long-range coulomb (../kspace.cpp:332)
  G vector (1/distance) = 0.105267
  grid = 24 24 24
  stencil order = 5
  estimated absolute RMS force accuracy = 0.0316361
  estimated relative force accuracy = 9.52712e-05
  using double precision KISS FFT
  3d grid and FFT values/proc = 24389 13824
Neighbor list info ...
  update every 1 steps, delay 0 steps, check yes
  max neighbors/atom: 2000, page size: 100000
  master list distance cutoff = 14
  ghost atom cutoff = 14
  binsize = 7, bins = 35 35 35
  1 neighbor lists, perpetual/occasional/extra = 1 0 0
  (1) pair lj/cut/coul/long, perpetual
      attributes: half, newton on
      pair build: half/bin/newton
      stencil: half/bin/3d/newton
      bin: standard
Per MPI rank memory allocation (min/avg/max) = 22.19 | 22.19 | 22.19 Mbytes
Step Temp E_pair E_mol TotEng Press 
       0    1292.3343    151.45713    811.39645    3370.4806    5.5060131 
      50    1292.3343    142.61638    607.39973    3157.6431    6.7875881 
Loop time of 0.731636 on 1 procs for 50 steps with 626 atoms

100.0% CPU use with 1 MPI tasks x no OpenMP threads

Minimization stats:
  Stopping criterion = linesearch alpha is zero
  Energy initial, next-to-last, final = 
         962.853581348      750.016111167      750.016111167
  Force two-norm initial, final = 630.781 56.6779
  Force max component initial, final = 296.058 7.53439
  Final line search alpha, max atom move = 2.79413e-12 2.10521e-11
  Iterations, force evaluations = 50 155

MPI task timing breakdown:
Section |  min time  |  avg time  |  max time  |%varavg| %total
---------------------------------------------------------------
Pair    | 0.16106    | 0.16106    | 0.16106    |   0.0 | 22.01
Bond    | 0.047341   | 0.047341   | 0.047341   |   0.0 |  6.47
Kspace  | 0.51881    | 0.51881    | 0.51881    |   0.0 | 70.91
Neigh   | 0.002099   | 0.002099   | 0.002099   |   0.0 |  0.29
Comm    | 9.0122e-05 | 9.0122e-05 | 9.0122e-05 |   0.0 |  0.01
Output  | 0          | 0          | 0          |   0.0 |  0.00
Modify  | 0          | 0          | 0          |   0.0 |  0.00
Other   |            | 0.002242   |            |       |  0.31

Nlocal:    626 ave 626 max 626 min
Histogram: 1 0 0 0 0 0 0 0 0 0
Nghost:    0 ave 0 max 0 min
Histogram: 1 0 0 0 0 0 0 0 0 0
Neighs:    28224 ave 28224 max 28224 min
Histogram: 1 0 0 0 0 0 0 0 0 0

Total # of neighbors = 28224
Ave neighs/atom = 45.0863
Ave special neighs/atom = 11.0799
Neighbor list builds = 2
Dangerous builds = 0
write_dump all custom pysimm.dump.tmp id q x y z vx vy vz
quit


################################################################################
##################################    Init    ##################################
################################################################################
units           real
atom_style      full
pair_style      lj/cut/coul/long 12.0  12.0
kspace_style    pppm 1e-4
bond_style      harmonic
angle_style     harmonic
dihedral_style  fourier
improper_style  cvff
special_bonds   amber
pair_modify     mix arithmetic
read_data       temp.lmps
  orthogonal box = (-125.306 -125.306 -125.306) to (125.306 125.306 125.306)
  1 by 1 by 1 MPI processor grid
  reading atoms ...
  674 atoms
  reading velocities ...
  674 velocities
  scanning bonds ...
  3 = max bonds/atom
  scanning angles ...
  6 = max angles/atom
  scanning dihedrals ...
  27 = max dihedrals/atom
  scanning impropers ...
  2 = max impropers/atom
  reading bonds ...
  743 bonds
  reading angles ...
  1288 angles
  reading dihedrals ...
  1970 dihedrals
  reading impropers ...
  168 impropers
  4 = max # of 1-2 neighbors
  11 = max # of 1-3 neighbors
  20 = max # of 1-4 neighbors
  22 = max # of special neighbors
  special bonds CPU = 0.000709772 secs
  read_data CPU = 0.0107241 secs
################################################################################

min_style cg
minimize 1e-06 1e-06 1000000 10000000
WARNING: Using 'neigh_modify every 1 delay 0 check yes' setting during minimization (../min.cpp:190)
PPPM initialization ...
WARNING: System is not charge neutral, net charge = -5.6e-05 (../kspace.cpp:313)
  using 12-bit tables for long-range coulomb (../kspace.cpp:332)
  G vector (1/distance) = 0.103324
  grid = 24 24 24
  stencil order = 5
  estimated absolute RMS force accuracy = 0.0334469
  estimated relative force accuracy = 0.000100724
  using double precision KISS FFT
  3d grid and FFT values/proc = 24389 13824
Neighbor list info ...
  update every 1 steps, delay 0 steps, check yes
  max neighbors/atom: 2000, page size: 100000
  master list distance cutoff = 14
  ghost atom cutoff = 14
  binsize = 7, bins = 36 36 36
  1 neighbor lists, perpetual/occasional/extra = 1 0 0
  (1) pair lj/cut/coul/long, perpetual
      attributes: half, newton on
      pair build: half/bin/newton
      stencil: half/bin/3d/newton
      bin: standard
Per MPI rank memory allocation (min/avg/max) = 22.22 | 22.22 | 22.22 Mbytes
Step Temp E_pair E_mol TotEng Press 
       0    1146.4594    149.41934    898.18263    3347.4972    4.2702963 
      49    1146.4594    158.19596    658.54661    3116.6378    6.1419304 
Loop time of 0.757813 on 1 procs for 49 steps with 674 atoms

100.0% CPU use with 1 MPI tasks x no OpenMP threads

Minimization stats:
  Stopping criterion = linesearch alpha is zero
  Energy initial, next-to-last, final = 
         1047.60197306       816.74256742       816.74256742
  Force two-norm initial, final = 627.112 50.7701
  Force max component initial, final = 312.095 9.53595
  Final line search alpha, max atom move = 2.87955e-12 2.74593e-11
  Iterations, force evaluations = 49 154

MPI task timing breakdown:
Section |  min time  |  avg time  |  max time  |%varavg| %total
---------------------------------------------------------------
Pair    | 0.19475    | 0.19475    | 0.19475    |   0.0 | 25.70
Bond    | 0.050576   | 0.050576   | 0.050576   |   0.0 |  6.67
Kspace  | 0.50865    | 0.50865    | 0.50865    |   0.0 | 67.12
Neigh   | 0.0013049  | 0.0013049  | 0.0013049  |   0.0 |  0.17
Comm    | 7.081e-05  | 7.081e-05  | 7.081e-05  |   0.0 |  0.01
Output  | 0          | 0          | 0          |   0.0 |  0.00
Modify  | 0          | 0          | 0          |   0.0 |  0.00
Other   |            | 0.002455   |            |       |  0.32

Nlocal:    674 ave 674 max 674 min
Histogram: 1 0 0 0 0 0 0 0 0 0
Nghost:    0 ave 0 max 0 min
Histogram: 1 0 0 0 0 0 0 0 0 0
Neighs:    34713 ave 34713 max 34713 min
Histogram: 1 0 0 0 0 0 0 0 0 0

Total # of neighbors = 34713
Ave neighs/atom = 51.503
Ave special neighs/atom = 11.0831
Neighbor list builds = 1
Dangerous builds = 0
write_dump all custom pysimm.dump.tmp id q x y z vx vy vz
quit


################################################################################
##################################    Init    ##################################
################################################################################
units           real
atom_style      full
pair_style      lj/cut/coul/long 12.0  12.0
kspace_style    pppm 1e-4
bond_style      harmonic
angle_style     harmonic
dihedral_style  fourier
improper_style  cvff
special_bonds   amber
pair_modify     mix arithmetic
read_data       temp.lmps
  orthogonal box = (-128.44 -128.44 -128.44) to (128.44 128.44 128.44)
  1 by 1 by 1 MPI processor grid
  reading atoms ...
  722 atoms
  reading velocities ...
  722 velocities
  scanning bonds ...
  3 = max bonds/atom
  scanning angles ...
  6 = max angles/atom
  scanning dihedrals ...
  27 = max dihedrals/atom
  scanning impropers ...
  2 = max impropers/atom
  reading bonds ...
  796 bonds
  reading angles ...
  1380 angles
  reading dihedrals ...
  2111 dihedrals
  reading impropers ...
  180 impropers
  4 = max # of 1-2 neighbors
  11 = max # of 1-3 neighbors
  20 = max # of 1-4 neighbors
  22 = max # of special neighbors
  special bonds CPU = 0.000728846 secs
  read_data CPU = 0.00960803 secs
################################################################################

min_style cg
minimize 1e-06 1e-06 1000000 10000000
WARNING: Using 'neigh_modify every 1 delay 0 check yes' setting during minimization (../min.cpp:190)
PPPM initialization ...
WARNING: System is not charge neutral, net charge = -6e-05 (../kspace.cpp:313)
  using 12-bit tables for long-range coulomb (../kspace.cpp:332)
  G vector (1/distance) = 0.101537
  grid = 24 24 24
  stencil order = 5
  estimated absolute RMS force accuracy = 0.0351684
  estimated relative force accuracy = 0.000105909
  using double precision KISS FFT
  3d grid and FFT values/proc = 24389 13824
Neighbor list info ...
  update every 1 steps, delay 0 steps, check yes
  max neighbors/atom: 2000, page size: 100000
  master list distance cutoff = 14
  ghost atom cutoff = 14
  binsize = 7, bins = 37 37 37
  1 neighbor lists, perpetual/occasional/extra = 1 0 0
  (1) pair lj/cut/coul/long, perpetual
      attributes: half, newton on
      pair build: half/bin/newton
      stencil: half/bin/3d/newton
      bin: standard
Per MPI rank memory allocation (min/avg/max) = 22.24 | 22.24 | 22.24 Mbytes
Step Temp E_pair E_mol TotEng Press 
       0    1180.7564    181.76296    895.39847    3614.8006    6.1944037 
      16    1180.7564    185.61512    738.58112    3461.8354    7.7655012 
Loop time of 0.475287 on 1 procs for 16 steps with 722 atoms

99.9% CPU use with 1 MPI tasks x no OpenMP threads

Minimization stats:
  Stopping criterion = linesearch alpha is zero
  Energy initial, next-to-last, final = 
         1077.16142532      924.196240497      924.196240497
  Force two-norm initial, final = 626.833 49.7752
  Force max component initial, final = 305.945 9.90608
  Final line search alpha, max atom move = 3.87221e-12 3.83584e-11
  Iterations, force evaluations = 16 89

MPI task timing breakdown:
Section |  min time  |  avg time  |  max time  |%varavg| %total
---------------------------------------------------------------
Pair    | 0.13607    | 0.13607    | 0.13607    |   0.0 | 28.63
Bond    | 0.031562   | 0.031562   | 0.031562   |   0.0 |  6.64
Kspace  | 0.30624    | 0.30624    | 0.30624    |   0.0 | 64.43
Neigh   | 0          | 0          | 0          |   0.0 |  0.00
Comm    | 6.3419e-05 | 6.3419e-05 | 6.3419e-05 |   0.0 |  0.01
Output  | 0          | 0          | 0          |   0.0 |  0.00
Modify  | 0          | 0          | 0          |   0.0 |  0.00
Other   |            | 0.001356   |            |       |  0.29

Nlocal:    722 ave 722 max 722 min
Histogram: 1 0 0 0 0 0 0 0 0 0
Nghost:    0 ave 0 max 0 min
Histogram: 1 0 0 0 0 0 0 0 0 0
Neighs:    41842 ave 41842 max 41842 min
Histogram: 1 0 0 0 0 0 0 0 0 0

Total # of neighbors = 41842
Ave neighs/atom = 57.9529
Ave special neighs/atom = 11.0859
Neighbor list builds = 0
Dangerous builds = 0
write_dump all custom pysimm.dump.tmp id q x y z vx vy vz
quit


################################################################################
##################################    Init    ##################################
################################################################################
units           real
atom_style      full
pair_style      lj/cut/coul/long 12.0  12.0
kspace_style    pppm 1e-4
bond_style      harmonic
angle_style     harmonic
dihedral_style  fourier
improper_style  cvff
special_bonds   amber
pair_modify     mix arithmetic
read_data       temp.lmps
  orthogonal box = (-131.428 -131.428 -131.428) to (131.428 131.428 131.428)
  1 by 1 by 1 MPI processor grid
  reading atoms ...
  770 atoms
  reading velocities ...
  770 velocities
  scanning bonds ...
  3 = max bonds/atom
  scanning angles ...
  6 = max angles/atom
  scanning dihedrals ...
  27 = max dihedrals/atom
  scanning impropers ...
  2 = max impropers/atom
  reading bonds ...
  849 bonds
  reading angles ...
  1472 angles
  reading dihedrals ...
  2252 dihedrals
  reading impropers ...
  192 impropers
  4 = max # of 1-2 neighbors
  11 = max # of 1-3 neighbors
  20 = max # of 1-4 neighbors
  22 = max # of special neighbors
  special bonds CPU = 0.000769854 secs
  read_data CPU = 0.0110941 secs
################################################################################

min_style cg
minimize 1e-06 1e-06 1000000 10000000
WARNING: Using 'neigh_modify every 1 delay 0 check yes' setting during minimization (../min.cpp:190)
PPPM initialization ...
WARNING: System is not charge neutral, net charge = -6.4e-05 (../kspace.cpp:313)
  using 12-bit tables for long-range coulomb (../kspace.cpp:332)
  G vector (1/distance) = 0.0998869
  grid = 24 24 24
  stencil order = 5
  estimated absolute RMS force accuracy = 0.0368118
  estimated relative force accuracy = 0.000110858
  using double precision KISS FFT
  3d grid and FFT values/proc = 24389 13824
Neighbor list info ...
  update every 1 steps, delay 0 steps, check yes
  max neighbors/atom: 2000, page size: 100000
  master list distance cutoff = 14
  ghost atom cutoff = 14
  binsize = 7, bins = 38 38 38
  1 neighbor lists, perpetual/occasional/extra = 1 0 0
  (1) pair lj/cut/coul/long, perpetual
      attributes: half, newton on
      pair build: half/bin/newton
      stencil: half/bin/3d/newton
      bin: standard
Per MPI rank memory allocation (min/avg/max) = 22.27 | 22.27 | 22.27 Mbytes
Step Temp E_pair E_mol TotEng Press 
       0    946.47232    195.06326    1037.9206    3402.5283    5.4417016 
      38    946.47232    191.64636    836.36351    3197.5544    6.0527069 
Loop time of 0.808249 on 1 procs for 38 steps with 770 atoms

100.0% CPU use with 1 MPI tasks x no OpenMP threads

Minimization stats:
  Stopping criterion = linesearch alpha is zero
  Energy initial, next-to-last, final = 
         1232.98382358      1028.00987389      1028.00987389
  Force two-norm initial, final = 628.752 58.2555
  Force max component initial, final = 306.888 13.4797
  Final line search alpha, max atom move = 2.36204e-12 3.18396e-11
  Iterations, force evaluations = 38 146

MPI task timing breakdown:
Section |  min time  |  avg time  |  max time  |%varavg| %total
---------------------------------------------------------------
Pair    | 0.2439     | 0.2439     | 0.2439     |   0.0 | 30.18
Bond    | 0.054665   | 0.054665   | 0.054665   |   0.0 |  6.76
Kspace  | 0.50556    | 0.50556    | 0.50556    |   0.0 | 62.55
Neigh   | 0.0016561  | 0.0016561  | 0.0016561  |   0.0 |  0.20
Comm    | 7.1049e-05 | 7.1049e-05 | 7.1049e-05 |   0.0 |  0.01
Output  | 0          | 0          | 0          |   0.0 |  0.00
Modify  | 0          | 0          | 0          |   0.0 |  0.00
Other   |            | 0.002392   |            |       |  0.30

Nlocal:    770 ave 770 max 770 min
Histogram: 1 0 0 0 0 0 0 0 0 0
Nghost:    0 ave 0 max 0 min
Histogram: 1 0 0 0 0 0 0 0 0 0
Neighs:    46890 ave 46890 max 46890 min
Histogram: 1 0 0 0 0 0 0 0 0 0

Total # of neighbors = 46890
Ave neighs/atom = 60.8961
Ave special neighs/atom = 11.0883
Neighbor list builds = 1
Dangerous builds = 0
write_dump all custom pysimm.dump.tmp id q x y z vx vy vz
quit


################################################################################
##################################    Init    ##################################
################################################################################
units           real
atom_style      full
pair_style      lj/cut/coul/long 12.0  12.0
kspace_style    pppm 1e-4
bond_style      harmonic
angle_style     harmonic
dihedral_style  fourier
improper_style  cvff
special_bonds   amber
pair_modify     mix arithmetic
read_data       temp.lmps
  orthogonal box = (-134.286 -134.286 -134.286) to (134.286 134.286 134.286)
  1 by 1 by 1 MPI processor grid
  reading atoms ...
  818 atoms
  reading velocities ...
  818 velocities
  scanning bonds ...
  3 = max bonds/atom
  scanning angles ...
  6 = max angles/atom
  scanning dihedrals ...
  27 = max dihedrals/atom
  scanning impropers ...
  2 = max impropers/atom
  reading bonds ...
  902 bonds
  reading angles ...
  1564 angles
  reading dihedrals ...
  2393 dihedrals
  reading impropers ...
  204 impropers
  4 = max # of 1-2 neighbors
  11 = max # of 1-3 neighbors
  20 = max # of 1-4 neighbors
  22 = max # of special neighbors
  special bonds CPU = 0.000810862 secs
  read_data CPU = 0.0123601 secs
################################################################################

min_style cg
minimize 1e-06 1e-06 1000000 10000000
WARNING: Using 'neigh_modify every 1 delay 0 check yes' setting during minimization (../min.cpp:190)
PPPM initialization ...
WARNING: System is not charge neutral, net charge = -6.8e-05 (../kspace.cpp:313)
  using 12-bit tables for long-range coulomb (../kspace.cpp:332)
  G vector (1/distance) = 0.101271
  grid = 25 25 25
  stencil order = 5
  estimated absolute RMS force accuracy = 0.0352998
  estimated relative force accuracy = 0.000106304
  using double precision KISS FFT
  3d grid and FFT values/proc = 27000 15625
Neighbor list info ...
  update every 1 steps, delay 0 steps, check yes
  max neighbors/atom: 2000, page size: 100000
  master list distance cutoff = 14
  ghost atom cutoff = 14
  binsize = 7, bins = 39 39 39
  1 neighbor lists, perpetual/occasional/extra = 1 0 0
  (1) pair lj/cut/coul/long, perpetual
      attributes: half, newton on
      pair build: half/bin/newton
      stencil: half/bin/3d/newton
      bin: standard
Per MPI rank memory allocation (min/avg/max) = 22.55 | 22.55 | 22.55 Mbytes
Step Temp E_pair E_mol TotEng Press 
       0    834.99222    197.46801    904.97727    3135.9201    4.0344869 
      29    834.99222    202.81393    714.60248    2950.8912    6.1542689 
Loop time of 0.668425 on 1 procs for 29 steps with 818 atoms

99.9% CPU use with 1 MPI tasks x no OpenMP threads

Minimization stats:
  Stopping criterion = linesearch alpha is zero
  Energy initial, next-to-last, final = 
         1102.44528592      917.416404007      917.416404007
  Force two-norm initial, final = 629.034 52.2298
  Force max component initial, final = 264.072 9.64965
  Final line search alpha, max atom move = 2.57858e-12 2.48824e-11
  Iterations, force evaluations = 29 115

MPI task timing breakdown:
Section |  min time  |  avg time  |  max time  |%varavg| %total
---------------------------------------------------------------
Pair    | 0.19736    | 0.19736    | 0.19736    |   0.0 | 29.53
Bond    | 0.045811   | 0.045811   | 0.045811   |   0.0 |  6.85
Kspace  | 0.42324    | 0.42324    | 0.42324    |   0.0 | 63.32
Neigh   | 0          | 0          | 0          |   0.0 |  0.00
Comm    | 5.3644e-05 | 5.3644e-05 | 5.3644e-05 |   0.0 |  0.01
Output  | 0          | 0          | 0          |   0.0 |  0.00
Modify  | 0          | 0          | 0          |   0.0 |  0.00
Other   |            | 0.001956   |            |       |  0.29

Nlocal:    818 ave 818 max 818 min
Histogram: 1 0 0 0 0 0 0 0 0 0
Nghost:    0 ave 0 max 0 min
Histogram: 1 0 0 0 0 0 0 0 0 0
Neighs:    49095 ave 49095 max 49095 min
Histogram: 1 0 0 0 0 0 0 0 0 0

Total # of neighbors = 49095
Ave neighs/atom = 60.0183
Ave special neighs/atom = 11.0905
Neighbor list builds = 0
Dangerous builds = 0
write_dump all custom pysimm.dump.tmp id q x y z vx vy vz
quit


################################################################################
##################################    Init    ##################################
################################################################################
units           real
atom_style      full
pair_style      lj/cut/coul/long 12.0  12.0
kspace_style    pppm 1e-4
bond_style      harmonic
angle_style     harmonic
dihedral_style  fourier
improper_style  cvff
special_bonds   amber
pair_modify     mix arithmetic
read_data       temp.lmps
  orthogonal box = (-137.027 -137.027 -137.027) to (137.027 137.027 137.027)
  1 by 1 by 1 MPI processor grid
  reading atoms ...
  866 atoms
  reading velocities ...
  866 velocities
  scanning bonds ...
  3 = max bonds/atom
  scanning angles ...
  6 = max angles/atom
  scanning dihedrals ...
  27 = max dihedrals/atom
  scanning impropers ...
  2 = max impropers/atom
  reading bonds ...
  955 bonds
  reading angles ...
  1656 angles
  reading dihedrals ...
  2534 dihedrals
  reading impropers ...
  216 impropers
  4 = max # of 1-2 neighbors
  11 = max # of 1-3 neighbors
  20 = max # of 1-4 neighbors
  22 = max # of special neighbors
  special bonds CPU = 0.000782013 secs
  read_data CPU = 0.0128939 secs
################################################################################

min_style cg
minimize 1e-06 1e-06 1000000 10000000
WARNING: Using 'neigh_modify every 1 delay 0 check yes' setting during minimization (../min.cpp:190)
PPPM initialization ...
WARNING: System is not charge neutral, net charge = -7.2e-05 (../kspace.cpp:313)
  using 12-bit tables for long-range coulomb (../kspace.cpp:332)
  G vector (1/distance) = 0.0998227
  grid = 25 25 25
  stencil order = 5
  estimated absolute RMS force accuracy = 0.0367494
  estimated relative force accuracy = 0.00011067
  using double precision KISS FFT
  3d grid and FFT values/proc = 27000 15625
Neighbor list info ...
  update every 1 steps, delay 0 steps, check yes
  max neighbors/atom: 2000, page size: 100000
  master list distance cutoff = 14
  ghost atom cutoff = 14
  binsize = 7, bins = 40 40 40
  1 neighbor lists, perpetual/occasional/extra = 1 0 0
  (1) pair lj/cut/coul/long, perpetual
      attributes: half, newton on
      pair build: half/bin/newton
      stencil: half/bin/3d/newton
      bin: standard
Per MPI rank memory allocation (min/avg/max) = 22.58 | 22.58 | 22.58 Mbytes
Step Temp E_pair E_mol TotEng Press 
       0    780.84684    236.78193    988.51587    3238.6338    4.3485963 
      36    780.84684    215.92267    809.67688    3038.9356    4.5440699 
Loop time of 0.880709 on 1 procs for 36 steps with 866 atoms

99.9% CPU use with 1 MPI tasks x no OpenMP threads

Minimization stats:
  Stopping criterion = linesearch alpha is zero
  Energy initial, next-to-last, final = 
         1225.29779302      1025.59955251      1025.59955251
  Force two-norm initial, final = 627.074 39.4081
  Force max component initial, final = 277.185 8.1042
  Final line search alpha, max atom move = 6.1733e-12 5.00296e-11
  Iterations, force evaluations = 36 148

MPI task timing breakdown:
Section |  min time  |  avg time  |  max time  |%varavg| %total
---------------------------------------------------------------
Pair    | 0.27212    | 0.27212    | 0.27212    |   0.0 | 30.90
Bond    | 0.062459   | 0.062459   | 0.062459   |   0.0 |  7.09
Kspace  | 0.54144    | 0.54144    | 0.54144    |   0.0 | 61.48
Neigh   | 0.0019629  | 0.0019629  | 0.0019629  |   0.0 |  0.22
Comm    | 9.1553e-05 | 9.1553e-05 | 9.1553e-05 |   0.0 |  0.01
Output  | 0          | 0          | 0          |   0.0 |  0.00
Modify  | 0          | 0          | 0          |   0.0 |  0.00
Other   |            | 0.002635   |            |       |  0.30

Nlocal:    866 ave 866 max 866 min
Histogram: 1 0 0 0 0 0 0 0 0 0
Nghost:    0 ave 0 max 0 min
Histogram: 1 0 0 0 0 0 0 0 0 0
Neighs:    52925 ave 52925 max 52925 min
Histogram: 1 0 0 0 0 0 0 0 0 0

Total # of neighbors = 52925
Ave neighs/atom = 61.1143
Ave special neighs/atom = 11.0924
Neighbor list builds = 1
Dangerous builds = 0
write_dump all custom pysimm.dump.tmp id q x y z vx vy vz
quit


################################################################################
##################################    Init    ##################################
################################################################################
units           real
atom_style      full
pair_style      lj/cut/coul/long 12.0  12.0
kspace_style    pppm 1e-4
bond_style      harmonic
angle_style     harmonic
dihedral_style  fourier
improper_style  cvff
special_bonds   amber
pair_modify     mix arithmetic
read_data       temp.lmps
  orthogonal box = (-139.663 -139.663 -139.663) to (139.663 139.663 139.663)
  1 by 1 by 1 MPI processor grid
  reading atoms ...
  914 atoms
  reading velocities ...
  914 velocities
  scanning bonds ...
  3 = max bonds/atom
  scanning angles ...
  6 = max angles/atom
  scanning dihedrals ...
  27 = max dihedrals/atom
  scanning impropers ...
  2 = max impropers/atom
  reading bonds ...
  1008 bonds
  reading angles ...
  1748 angles
  reading dihedrals ...
  2675 dihedrals
  reading impropers ...
  228 impropers
  4 = max # of 1-2 neighbors
  11 = max # of 1-3 neighbors
  20 = max # of 1-4 neighbors
  22 = max # of special neighbors
  special bonds CPU = 0.000859976 secs
  read_data CPU = 0.011678 secs
################################################################################

min_style cg
minimize 1e-06 1e-06 1000000 10000000
WARNING: Using 'neigh_modify every 1 delay 0 check yes' setting during minimization (../min.cpp:190)
PPPM initialization ...
WARNING: System is not charge neutral, net charge = -7.6e-05 (../kspace.cpp:313)
  using 12-bit tables for long-range coulomb (../kspace.cpp:332)
  G vector (1/distance) = 0.103998
  grid = 27 27 27
  stencil order = 5
  estimated absolute RMS force accuracy = 0.0324612
  estimated relative force accuracy = 9.77559e-05
  using double precision KISS FFT
  3d grid and FFT values/proc = 32768 19683
Neighbor list info ...
  update every 1 steps, delay 0 steps, check yes
  max neighbors/atom: 2000, page size: 100000
  master list distance cutoff = 14
  ghost atom cutoff = 14
  binsize = 7, bins = 40 40 40
  1 neighbor lists, perpetual/occasional/extra = 1 0 0
  (1) pair lj/cut/coul/long, perpetual
      attributes: half, newton on
      pair build: half/bin/newton
      stencil: half/bin/3d/newton
      bin: standard
Per MPI rank memory allocation (min/avg/max) = 23.15 | 23.15 | 23.15 Mbytes
Step Temp E_pair E_mol TotEng Press 
       0    834.62565    266.10566    1114.8375    3652.3598    4.1366283 
      25    834.62565    266.17822     942.7948    3480.3897    5.6290519 
Loop time of 0.801803 on 1 procs for 25 steps with 914 atoms

100.0% CPU use with 1 MPI tasks x no OpenMP threads

Minimization stats:
  Stopping criterion = linesearch alpha is zero
  Energy initial, next-to-last, final = 
         1380.94312414      1208.97301352      1208.97301352
  Force two-norm initial, final = 628.916 44.8673
  Force max component initial, final = 266.108 10.1794
  Final line search alpha, max atom move = 3.47123e-12 3.53352e-11
  Iterations, force evaluations = 25 107

MPI task timing breakdown:
Section |  min time  |  avg time  |  max time  |%varavg| %total
---------------------------------------------------------------
Pair    | 0.19678    | 0.19678    | 0.19678    |   0.0 | 24.54
Bond    | 0.047725   | 0.047725   | 0.047725   |   0.0 |  5.95
Kspace  | 0.5553     | 0.5553     | 0.5553     |   0.0 | 69.26
Neigh   | 0          | 0          | 0          |   0.0 |  0.00
Comm    | 7.2479e-05 | 7.2479e-05 | 7.2479e-05 |   0.0 |  0.01
Output  | 0          | 0          | 0          |   0.0 |  0.00
Modify  | 0          | 0          | 0          |   0.0 |  0.00
Other   |            | 0.001924   |            |       |  0.24

Nlocal:    914 ave 914 max 914 min
Histogram: 1 0 0 0 0 0 0 0 0 0
Nghost:    0 ave 0 max 0 min
Histogram: 1 0 0 0 0 0 0 0 0 0
Neighs:    53344 ave 53344 max 53344 min
Histogram: 1 0 0 0 0 0 0 0 0 0

Total # of neighbors = 53344
Ave neighs/atom = 58.3632
Ave special neighs/atom = 11.0941
Neighbor list builds = 0
Dangerous builds = 0
write_dump all custom pysimm.dump.tmp id q x y z vx vy vz
quit


################################################################################
##################################    Init    ##################################
################################################################################
units           real
atom_style      full
pair_style      lj/cut/coul/long 12.0  12.0
kspace_style    pppm 1e-4
bond_style      harmonic
angle_style     harmonic
dihedral_style  fourier
improper_style  cvff
special_bonds   amber
pair_modify     mix arithmetic
read_data       temp.lmps
  orthogonal box = (-142.203 -142.203 -142.203) to (142.203 142.203 142.203)
  1 by 1 by 1 MPI processor grid
  reading atoms ...
  962 atoms
  reading velocities ...
  962 velocities
  scanning bonds ...
  3 = max bonds/atom
  scanning angles ...
  6 = max angles/atom
  scanning dihedrals ...
  27 = max dihedrals/atom
  scanning impropers ...
  2 = max impropers/atom
  reading bonds ...
  1061 bonds
  reading angles ...
  1840 angles
  reading dihedrals ...
  2816 dihedrals
  reading impropers ...
  240 impropers
  4 = max # of 1-2 neighbors
  11 = max # of 1-3 neighbors
  20 = max # of 1-4 neighbors
  22 = max # of special neighbors
  special bonds CPU = 0.000887871 secs
  read_data CPU = 0.0114679 secs
################################################################################

min_style cg
minimize 1e-06 1e-06 1000000 10000000
WARNING: Using 'neigh_modify every 1 delay 0 check yes' setting during minimization (../min.cpp:190)
PPPM initialization ...
WARNING: System is not charge neutral, net charge = -8e-05 (../kspace.cpp:313)
  using 12-bit tables for long-range coulomb (../kspace.cpp:332)
  G vector (1/distance) = 0.102693
  grid = 27 27 27
  stencil order = 5
  estimated absolute RMS force accuracy = 0.0337081
  estimated relative force accuracy = 0.000101511
  using double precision KISS FFT
  3d grid and FFT values/proc = 32768 19683
Neighbor list info ...
  update every 1 steps, delay 0 steps, check yes
  max neighbors/atom: 2000, page size: 100000
  master list distance cutoff = 14
  ghost atom cutoff = 14
  binsize = 7, bins = 41 41 41
  1 neighbor lists, perpetual/occasional/extra = 1 0 0
  (1) pair lj/cut/coul/long, perpetual
      attributes: half, newton on
      pair build: half/bin/newton
      stencil: half/bin/3d/newton
      bin: standard
Per MPI rank memory allocation (min/avg/max) = 23.17 | 23.17 | 23.17 Mbytes
Step Temp E_pair E_mol TotEng Press 
       0     833.6364    249.50193    1181.0065    3818.5087     4.636327 
      26     833.6364    237.61627    999.74493    3625.3614    5.4639653 
Loop time of 0.862145 on 1 procs for 26 steps with 962 atoms

100.0% CPU use with 1 MPI tasks x no OpenMP threads

Minimization stats:
  Stopping criterion = linesearch alpha is zero
  Energy initial, next-to-last, final = 
         1430.50847847      1237.36119241      1237.36119241
  Force two-norm initial, final = 628.026 56.5126
  Force max component initial, final = 289.954 9.61927
  Final line search alpha, max atom move = 3.90746e-12 3.75869e-11
  Iterations, force evaluations = 26 107

MPI task timing breakdown:
Section |  min time  |  avg time  |  max time  |%varavg| %total
---------------------------------------------------------------
Pair    | 0.24378    | 0.24378    | 0.24378    |   0.0 | 28.28
Bond    | 0.050539   | 0.050539   | 0.050539   |   0.0 |  5.86
Kspace  | 0.56529    | 0.56529    | 0.56529    |   0.0 | 65.57
Neigh   | 0          | 0          | 0          |   0.0 |  0.00
Comm    | 0.00011134 | 0.00011134 | 0.00011134 |   0.0 |  0.01
Output  | 0          | 0          | 0          |   0.0 |  0.00
Modify  | 0          | 0          | 0          |   0.0 |  0.00
Other   |            | 0.002424   |            |       |  0.28

Nlocal:    962 ave 962 max 962 min
Histogram: 1 0 0 0 0 0 0 0 0 0
Nghost:    0 ave 0 max 0 min
Histogram: 1 0 0 0 0 0 0 0 0 0
Neighs:    64425 ave 64425 max 64425 min
Histogram: 1 0 0 0 0 0 0 0 0 0

Total # of neighbors = 64425
Ave neighs/atom = 66.9699
Ave special neighs/atom = 11.0956
Neighbor list builds = 0
Dangerous builds = 0
write_dump all custom pysimm.dump.tmp id q x y z vx vy vz
quit


################################################################################
##################################    Init    ##################################
################################################################################
units           real
atom_style      full
pair_style      lj/cut/coul/long 12.0  12.0
kspace_style    pppm 1e-4
bond_style      harmonic
angle_style     harmonic
dihedral_style  fourier
improper_style  cvff
special_bonds   amber
pair_modify     mix arithmetic
read_data       temp.lmps
  orthogonal box = (-144.655 -144.655 -144.655) to (144.655 144.655 144.655)
  1 by 1 by 1 MPI processor grid
  reading atoms ...
  1010 atoms
  reading velocities ...
  1010 velocities
  scanning bonds ...
  3 = max bonds/atom
  scanning angles ...
  6 = max angles/atom
  scanning dihedrals ...
  27 = max dihedrals/atom
  scanning impropers ...
  2 = max impropers/atom
  reading bonds ...
  1114 bonds
  reading angles ...
  1932 angles
  reading dihedrals ...
  2957 dihedrals
  reading impropers ...
  252 impropers
  4 = max # of 1-2 neighbors
  11 = max # of 1-3 neighbors
  20 = max # of 1-4 neighbors
  22 = max # of special neighbors
  special bonds CPU = 0.00106311 secs
  read_data CPU = 0.0143728 secs
################################################################################

min_style cg
minimize 1e-06 1e-06 1000000 10000000
WARNING: Using 'neigh_modify every 1 delay 0 check yes' setting during minimization (../min.cpp:190)
PPPM initialization ...
WARNING: System is not charge neutral, net charge = -8.4e-05 (../kspace.cpp:313)
  using 12-bit tables for long-range coulomb (../kspace.cpp:332)
  G vector (1/distance) = 0.101457
  grid = 27 27 27
  stencil order = 5
  estimated absolute RMS force accuracy = 0.0349104
  estimated relative force accuracy = 0.000105132
  using double precision KISS FFT
  3d grid and FFT values/proc = 32768 19683
Neighbor list info ...
  update every 1 steps, delay 0 steps, check yes
  max neighbors/atom: 2000, page size: 100000
  master list distance cutoff = 14
  ghost atom cutoff = 14
  binsize = 7, bins = 42 42 42
  1 neighbor lists, perpetual/occasional/extra = 1 0 0
  (1) pair lj/cut/coul/long, perpetual
      attributes: half, newton on
      pair build: half/bin/newton
      stencil: half/bin/3d/newton
      bin: standard
Per MPI rank memory allocation (min/avg/max) = 23.21 | 23.21 | 23.21 Mbytes
Step Temp E_pair E_mol TotEng Press 
       0    722.72773    251.55695     1242.883    3668.1429    3.4928583 
      26    722.72773    251.81379    1057.3424    3482.8591    5.1639998 
Loop time of 0.926976 on 1 procs for 26 steps with 1010 atoms

100.0% CPU use with 1 MPI tasks x no OpenMP threads

Minimization stats:
  Stopping criterion = linesearch alpha is zero
  Energy initial, next-to-last, final = 
         1494.43997517      1309.15620213      1309.15620213
  Force two-norm initial, final = 629.686 54.4115
  Force max component initial, final = 300.712 9.17763
  Final line search alpha, max atom move = 2.90931e-12 2.67006e-11
  Iterations, force evaluations = 26 109

MPI task timing breakdown:
Section |  min time  |  avg time  |  max time  |%varavg| %total
---------------------------------------------------------------
Pair    | 0.26899    | 0.26899    | 0.26899    |   0.0 | 29.02
Bond    | 0.056366   | 0.056366   | 0.056366   |   0.0 |  6.08
Kspace  | 0.59906    | 0.59906    | 0.59906    |   0.0 | 64.63
Neigh   | 0          | 0          | 0          |   0.0 |  0.00
Comm    | 0.00011945 | 0.00011945 | 0.00011945 |   0.0 |  0.01
Output  | 0          | 0          | 0          |   0.0 |  0.00
Modify  | 0          | 0          | 0          |   0.0 |  0.00
Other   |            | 0.002431   |            |       |  0.26

Nlocal:    1010 ave 1010 max 1010 min
Histogram: 1 0 0 0 0 0 0 0 0 0
Nghost:    0 ave 0 max 0 min
Histogram: 1 0 0 0 0 0 0 0 0 0
Neighs:    66811 ave 66811 max 66811 min
Histogram: 1 0 0 0 0 0 0 0 0 0

Total # of neighbors = 66811
Ave neighs/atom = 66.1495
Ave special neighs/atom = 11.097
Neighbor list builds = 0
Dangerous builds = 0
write_dump all custom pysimm.dump.tmp id q x y z vx vy vz
quit


################################################################################
##################################    Init    ##################################
################################################################################
units           real
atom_style      full
pair_style      lj/cut/coul/long 12.0  12.0
kspace_style    pppm 1e-4
bond_style      harmonic
angle_style     harmonic
dihedral_style  fourier
improper_style  cvff
special_bonds   amber
pair_modify     mix arithmetic
read_data       temp.lmps
  orthogonal box = (-147.027 -147.027 -147.027) to (147.027 147.027 147.027)
  1 by 1 by 1 MPI processor grid
  reading atoms ...
  1058 atoms
  reading velocities ...
  1058 velocities
  scanning bonds ...
  3 = max bonds/atom
  scanning angles ...
  6 = max angles/atom
  scanning dihedrals ...
  27 = max dihedrals/atom
  scanning impropers ...
  2 = max impropers/atom
  reading bonds ...
  1167 bonds
  reading angles ...
  2024 angles
  reading dihedrals ...
  3098 dihedrals
  reading impropers ...
  264 impropers
  4 = max # of 1-2 neighbors
  11 = max # of 1-3 neighbors
  20 = max # of 1-4 neighbors
  22 = max # of special neighbors
  special bonds CPU = 0.000966072 secs
  read_data CPU = 0.012455 secs
################################################################################

min_style cg
minimize 1e-06 1e-06 1000000 10000000
WARNING: Using 'neigh_modify every 1 delay 0 check yes' setting during minimization (../min.cpp:190)
PPPM initialization ...
WARNING: System is not charge neutral, net charge = -8.8e-05 (../kspace.cpp:313)
  using 12-bit tables for long-range coulomb (../kspace.cpp:332)
  G vector (1/distance) = 0.100289
  grid = 27 27 27
  stencil order = 5
  estimated absolute RMS force accuracy = 0.0360743
  estimated relative force accuracy = 0.000108637
  using double precision KISS FFT
  3d grid and FFT values/proc = 32768 19683
Neighbor list info ...
  update every 1 steps, delay 0 steps, check yes
  max neighbors/atom: 2000, page size: 100000
  master list distance cutoff = 14
  ghost atom cutoff = 14
  binsize = 7, bins = 43 43 43
  1 neighbor lists, perpetual/occasional/extra = 1 0 0
  (1) pair lj/cut/coul/long, perpetual
      attributes: half, newton on
      pair build: half/bin/newton
      stencil: half/bin/3d/newton
      bin: standard
Per MPI rank memory allocation (min/avg/max) = 23.24 | 23.24 | 23.24 Mbytes
Step Temp E_pair E_mol TotEng Press 
       0    762.58825    292.57173    1129.0182    3824.2891    4.0392145 
      34    762.58825    287.47201    928.42628    3618.5974    4.7279167 
Loop time of 1.00872 on 1 procs for 34 steps with 1058 atoms

100.0% CPU use with 1 MPI tasks x no OpenMP threads

Minimization stats:
  Stopping criterion = linesearch alpha is zero
  Energy initial, next-to-last, final = 
          1421.5899664      1215.89828501      1215.89828501
  Force two-norm initial, final = 626.895 66.7596
  Force max component initial, final = 267.006 10.6488
  Final line search alpha, max atom move = 1.97269e-12 2.10067e-11
  Iterations, force evaluations = 34 127

MPI task timing breakdown:
Section |  min time  |  avg time  |  max time  |%varavg| %total
---------------------------------------------------------------
Pair    | 0.27455    | 0.27455    | 0.27455    |   0.0 | 27.22
Bond    | 0.065697   | 0.065697   | 0.065697   |   0.0 |  6.51
Kspace  | 0.66558    | 0.66558    | 0.66558    |   0.0 | 65.98
Neigh   | 0          | 0          | 0          |   0.0 |  0.00
Comm    | 6.628e-05  | 6.628e-05  | 6.628e-05  |   0.0 |  0.01
Output  | 0          | 0          | 0          |   0.0 |  0.00
Modify  | 0          | 0          | 0          |   0.0 |  0.00
Other   |            | 0.00282    |            |       |  0.28

Nlocal:    1058 ave 1058 max 1058 min
Histogram: 1 0 0 0 0 0 0 0 0 0
Nghost:    0 ave 0 max 0 min
Histogram: 1 0 0 0 0 0 0 0 0 0
Neighs:    64773 ave 64773 max 64773 min
Histogram: 1 0 0 0 0 0 0 0 0 0

Total # of neighbors = 64773
Ave neighs/atom = 61.2221
Ave special neighs/atom = 11.0983
Neighbor list builds = 0
Dangerous builds = 0
write_dump all custom pysimm.dump.tmp id q x y z vx vy vz
quit


################################################################################
##################################    Init    ##################################
################################################################################
units           real
atom_style      full
pair_style      lj/cut/coul/long 12.0  12.0
kspace_style    pppm 1e-4
bond_style      harmonic
angle_style     harmonic
dihedral_style  fourier
improper_style  cvff
special_bonds   amber
pair_modify     mix arithmetic
read_data       temp.lmps
  orthogonal box = (-149.324 -149.324 -149.324) to (149.324 149.324 149.324)
  1 by 1 by 1 MPI processor grid
  reading atoms ...
  1106 atoms
  reading velocities ...
  1106 velocities
  scanning bonds ...
  3 = max bonds/atom
  scanning angles ...
  6 = max angles/atom
  scanning dihedrals ...
  27 = max dihedrals/atom
  scanning impropers ...
  2 = max impropers/atom
  reading bonds ...
  1220 bonds
  reading angles ...
  2116 angles
  reading dihedrals ...
  3239 dihedrals
  reading impropers ...
  276 impropers
  4 = max # of 1-2 neighbors
  11 = max # of 1-3 neighbors
  20 = max # of 1-4 neighbors
  22 = max # of special neighbors
  special bonds CPU = 0.000993013 secs
  read_data CPU = 0.015866 secs
################################################################################

min_style cg
minimize 1e-06 1e-06 1000000 10000000
WARNING: Using 'neigh_modify every 1 delay 0 check yes' setting during minimization (../min.cpp:190)
PPPM initialization ...
WARNING: System is not charge neutral, net charge = -9.2e-05 (../kspace.cpp:313)
  using 12-bit tables for long-range coulomb (../kspace.cpp:332)
  G vector (1/distance) = 0.106817
  grid = 30 30 30
  stencil order = 5
  estimated absolute RMS force accuracy = 0.0296618
  estimated relative force accuracy = 8.93255e-05
  using double precision KISS FFT
  3d grid and FFT values/proc = 42875 27000
Neighbor list info ...
  update every 1 steps, delay 0 steps, check yes
  max neighbors/atom: 2000, page size: 100000
  master list distance cutoff = 14
  ghost atom cutoff = 14
  binsize = 7, bins = 43 43 43
  1 neighbor lists, perpetual/occasional/extra = 1 0 0
  (1) pair lj/cut/coul/long, perpetual
      attributes: half, newton on
      pair build: half/bin/newton
      stencil: half/bin/3d/newton
      bin: standard
Per MPI rank memory allocation (min/avg/max) = 24.25 | 24.25 | 24.25 Mbytes
Step Temp E_pair E_mol TotEng Press 
       0    675.50331    308.69131    1188.8526    3722.5134    3.1351533 
      42    675.50331    323.51988    972.06612    3520.5555    4.7399256 
Loop time of 1.30992 on 1 procs for 42 steps with 1106 atoms

100.1% CPU use with 1 MPI tasks x no OpenMP threads

Minimization stats:
  Stopping criterion = linesearch alpha is zero
  Energy initial, next-to-last, final = 
         1497.54386165      1295.58599656      1295.58599656
  Force two-norm initial, final = 627.891 57.8129
  Force max component initial, final = 296.977 11.2028
  Final line search alpha, max atom move = 3.72689e-12 4.17517e-11
  Iterations, force evaluations = 42 139

MPI task timing breakdown:
Section |  min time  |  avg time  |  max time  |%varavg| %total
---------------------------------------------------------------
Pair    | 0.30733    | 0.30733    | 0.30733    |   0.0 | 23.46
Bond    | 0.075297   | 0.075297   | 0.075297   |   0.0 |  5.75
Kspace  | 0.92136    | 0.92136    | 0.92136    |   0.0 | 70.34
Neigh   | 0.002373   | 0.002373   | 0.002373   |   0.0 |  0.18
Comm    | 0.00013447 | 0.00013447 | 0.00013447 |   0.0 |  0.01
Output  | 0          | 0          | 0          |   0.0 |  0.00
Modify  | 0          | 0          | 0          |   0.0 |  0.00
Other   |            | 0.003428   |            |       |  0.26

Nlocal:    1106 ave 1106 max 1106 min
Histogram: 1 0 0 0 0 0 0 0 0 0
Nghost:    0 ave 0 max 0 min
Histogram: 1 0 0 0 0 0 0 0 0 0
Neighs:    63086 ave 63086 max 63086 min
Histogram: 1 0 0 0 0 0 0 0 0 0

Total # of neighbors = 63086
Ave neighs/atom = 57.0398
Ave special neighs/atom = 11.0995
Neighbor list builds = 1
Dangerous builds = 0
write_dump all custom pysimm.dump.tmp id q x y z vx vy vz
quit


################################################################################
##################################    Init    ##################################
################################################################################
units           real
atom_style      full
pair_style      lj/cut/coul/long 12.0  12.0
kspace_style    pppm 1e-4
bond_style      harmonic
angle_style     harmonic
dihedral_style  fourier
improper_style  cvff
special_bonds   amber
pair_modify     mix arithmetic
read_data       temp.lmps
  orthogonal box = (-151.553 -151.553 -151.553) to (151.553 151.553 151.553)
  1 by 1 by 1 MPI processor grid
  reading atoms ...
  1154 atoms
  reading velocities ...
  1154 velocities
  scanning bonds ...
  3 = max bonds/atom
  scanning angles ...
  6 = max angles/atom
  scanning dihedrals ...
  27 = max dihedrals/atom
  scanning impropers ...
  2 = max impropers/atom
  reading bonds ...
  1273 bonds
  reading angles ...
  2208 angles
  reading dihedrals ...
  3380 dihedrals
  reading impropers ...
  288 impropers
  4 = max # of 1-2 neighbors
  11 = max # of 1-3 neighbors
  20 = max # of 1-4 neighbors
  22 = max # of special neighbors
  special bonds CPU = 0.00102401 secs
  read_data CPU = 0.013371 secs
################################################################################

min_style cg
minimize 1e-06 1e-06 1000000 10000000
WARNING: Using 'neigh_modify every 1 delay 0 check yes' setting during minimization (../min.cpp:190)
PPPM initialization ...
WARNING: System is not charge neutral, net charge = -9.6e-05 (../kspace.cpp:313)
  using 12-bit tables for long-range coulomb (../kspace.cpp:332)
  G vector (1/distance) = 0.105727
  grid = 30 30 30
  stencil order = 5
  estimated absolute RMS force accuracy = 0.0306399
  estimated relative force accuracy = 9.2271e-05
  using double precision KISS FFT
  3d grid and FFT values/proc = 42875 27000
Neighbor list info ...
  update every 1 steps, delay 0 steps, check yes
  max neighbors/atom: 2000, page size: 100000
  master list distance cutoff = 14
  ghost atom cutoff = 14
  binsize = 7, bins = 44 44 44
  1 neighbor lists, perpetual/occasional/extra = 1 0 0
  (1) pair lj/cut/coul/long, perpetual
      attributes: half, newton on
      pair build: half/bin/newton
      stencil: half/bin/3d/newton
      bin: standard
Per MPI rank memory allocation (min/avg/max) = 24.28 | 24.28 | 24.28 Mbytes
Step Temp E_pair E_mol TotEng Press 
       0    673.49272    319.07667    1231.9197     3865.706    3.0517029 
      26    673.49272    326.14175    1029.5453    3670.3966    4.7496177 
Loop time of 1.04209 on 1 procs for 26 steps with 1154 atoms

100.1% CPU use with 1 MPI tasks x no OpenMP threads

Minimization stats:
  Stopping criterion = linesearch alpha is zero
  Energy initial, next-to-last, final = 
         1550.99635603      1355.68703202      1355.68703202
  Force two-norm initial, final = 630.643 63.6416
  Force max component initial, final = 242.672 11.0011
  Final line search alpha, max atom move = 2.08114e-12 2.28948e-11
  Iterations, force evaluations = 26 110

MPI task timing breakdown:
Section |  min time  |  avg time  |  max time  |%varavg| %total
---------------------------------------------------------------
Pair    | 0.2655     | 0.2655     | 0.2655     |   0.0 | 25.48
Bond    | 0.062409   | 0.062409   | 0.062409   |   0.0 |  5.99
Kspace  | 0.71167    | 0.71167    | 0.71167    |   0.0 | 68.29
Neigh   | 0          | 0          | 0          |   0.0 |  0.00
Comm    | 6.485e-05  | 6.485e-05  | 6.485e-05  |   0.0 |  0.01
Output  | 0          | 0          | 0          |   0.0 |  0.00
Modify  | 0          | 0          | 0          |   0.0 |  0.00
Other   |            | 0.002452   |            |       |  0.24

Nlocal:    1154 ave 1154 max 1154 min
Histogram: 1 0 0 0 0 0 0 0 0 0
Nghost:    0 ave 0 max 0 min
Histogram: 1 0 0 0 0 0 0 0 0 0
Neighs:    67997 ave 67997 max 67997 min
Histogram: 1 0 0 0 0 0 0 0 0 0

Total # of neighbors = 67997
Ave neighs/atom = 58.9229
Ave special neighs/atom = 11.1005
Neighbor list builds = 0
Dangerous builds = 0
write_dump all custom pysimm.dump.tmp id q x y z vx vy vz
quit


################################################################################
##################################    Init    ##################################
################################################################################
units           real
atom_style      full
pair_style      lj/cut/coul/long 12.0  12.0
kspace_style    pppm 1e-4
bond_style      harmonic
angle_style     harmonic
dihedral_style  fourier
improper_style  cvff
special_bonds   amber
pair_modify     mix arithmetic
read_data       temp.lmps
  orthogonal box = (-153.719 -153.719 -153.719) to (153.719 153.719 153.719)
  1 by 1 by 1 MPI processor grid
  reading atoms ...
  1202 atoms
  reading velocities ...
  1202 velocities
  scanning bonds ...
  3 = max bonds/atom
  scanning angles ...
  6 = max angles/atom
  scanning dihedrals ...
  27 = max dihedrals/atom
  scanning impropers ...
  2 = max impropers/atom
  reading bonds ...
  1326 bonds
  reading angles ...
  2300 angles
  reading dihedrals ...
  3521 dihedrals
  reading impropers ...
  300 impropers
  4 = max # of 1-2 neighbors
  11 = max # of 1-3 neighbors
  20 = max # of 1-4 neighbors
  22 = max # of special neighbors
  special bonds CPU = 0.00108194 secs
  read_data CPU = 0.0142651 secs
################################################################################

min_style cg
minimize 1e-06 1e-06 1000000 10000000
WARNING: Using 'neigh_modify every 1 delay 0 check yes' setting during minimization (../min.cpp:190)
PPPM initialization ...
WARNING: System is not charge neutral, net charge = -0.0001 (../kspace.cpp:313)
  using 12-bit tables for long-range coulomb (../kspace.cpp:332)
  G vector (1/distance) = 0.104689
  grid = 30 30 30
  stencil order = 5
  estimated absolute RMS force accuracy = 0.0315931
  estimated relative force accuracy = 9.51415e-05
  using double precision KISS FFT
  3d grid and FFT values/proc = 42875 27000
Neighbor list info ...
  update every 1 steps, delay 0 steps, check yes
  max neighbors/atom: 2000, page size: 100000
  master list distance cutoff = 14
  ghost atom cutoff = 14
  binsize = 7, bins = 44 44 44
  1 neighbor lists, perpetual/occasional/extra = 1 0 0
  (1) pair lj/cut/coul/long, perpetual
      attributes: half, newton on
      pair build: half/bin/newton
      stencil: half/bin/3d/newton
      bin: standard
Per MPI rank memory allocation (min/avg/max) = 24.29 | 24.29 | 24.29 Mbytes
Step Temp E_pair E_mol TotEng Press 
       0    564.78888    334.64216    1265.6664    3622.2262     2.452626 
      43    564.78888     329.7169    1068.5434    3420.1779    3.4557175 
Loop time of 1.53524 on 1 procs for 43 steps with 1202 atoms

100.1% CPU use with 1 MPI tasks x no OpenMP threads

Minimization stats:
  Stopping criterion = linesearch alpha is zero
  Energy initial, next-to-last, final = 
         1600.30858825      1398.26030832      1398.26030832
  Force two-norm initial, final = 625.357 50.1065
  Force max component initial, final = 285.406 9.9698
  Final line search alpha, max atom move = 4.50188e-12 4.48829e-11
  Iterations, force evaluations = 43 159

MPI task timing breakdown:
Section |  min time  |  avg time  |  max time  |%varavg| %total
---------------------------------------------------------------
Pair    | 0.39036    | 0.39036    | 0.39036    |   0.0 | 25.43
Bond    | 0.093376   | 0.093376   | 0.093376   |   0.0 |  6.08
Kspace  | 1.0448     | 1.0448     | 1.0448     |   0.0 | 68.05
Neigh   | 0.002516   | 0.002516   | 0.002516   |   0.0 |  0.16
Comm    | 0.00015545 | 0.00015545 | 0.00015545 |   0.0 |  0.01
Output  | 0          | 0          | 0          |   0.0 |  0.00
Modify  | 0          | 0          | 0          |   0.0 |  0.00
Other   |            | 0.004075   |            |       |  0.27

Nlocal:    1202 ave 1202 max 1202 min
Histogram: 1 0 0 0 0 0 0 0 0 0
Nghost:    0 ave 0 max 0 min
Histogram: 1 0 0 0 0 0 0 0 0 0
Neighs:    69880 ave 69880 max 69880 min
Histogram: 1 0 0 0 0 0 0 0 0 0

Total # of neighbors = 69880
Ave neighs/atom = 58.1364
Ave special neighs/atom = 11.1015
Neighbor list builds = 1
Dangerous builds = 0
write_dump all custom pysimm.dump.tmp id q x y z vx vy vz
quit


################################################################################
##################################    Init    ##################################
################################################################################
units           real
atom_style      full
pair_style      lj/cut/coul/long 12.0  12.0
kspace_style    pppm 1e-4
bond_style      harmonic
angle_style     harmonic
dihedral_style  fourier
improper_style  cvff
special_bonds   amber
pair_modify     mix arithmetic
read_data       temp.lmps
  orthogonal box = (-155.825 -155.825 -155.825) to (155.825 155.825 155.825)
  1 by 1 by 1 MPI processor grid
  reading atoms ...
  1250 atoms
  reading velocities ...
  1250 velocities
  scanning bonds ...
  3 = max bonds/atom
  scanning angles ...
  6 = max angles/atom
  scanning dihedrals ...
  27 = max dihedrals/atom
  scanning impropers ...
  2 = max impropers/atom
  reading bonds ...
  1379 bonds
  reading angles ...
  2392 angles
  reading dihedrals ...
  3662 dihedrals
  reading impropers ...
  312 impropers
  4 = max # of 1-2 neighbors
  11 = max # of 1-3 neighbors
  20 = max # of 1-4 neighbors
  22 = max # of special neighbors
  special bonds CPU = 0.00109887 secs
  read_data CPU = 0.0141501 secs
################################################################################

min_style cg
minimize 1e-06 1e-06 1000000 10000000
WARNING: Using 'neigh_modify every 1 delay 0 check yes' setting during minimization (../min.cpp:190)
PPPM initialization ...
WARNING: System is not charge neutral, net charge = -0.000104 (../kspace.cpp:313)
  using 12-bit tables for long-range coulomb (../kspace.cpp:332)
  G vector (1/distance) = 0.103697
  grid = 30 30 30
  stencil order = 5
  estimated absolute RMS force accuracy = 0.0325224
  estimated relative force accuracy = 9.79403e-05
  using double precision KISS FFT
  3d grid and FFT values/proc = 42875 27000
Neighbor list info ...
  update every 1 steps, delay 0 steps, check yes
  max neighbors/atom: 2000, page size: 100000
  master list distance cutoff = 14
  ghost atom cutoff = 14
  binsize = 7, bins = 45 45 45
  1 neighbor lists, perpetual/occasional/extra = 1 0 0
  (1) pair lj/cut/coul/long, perpetual
      attributes: half, newton on
      pair build: half/bin/newton
      stencil: half/bin/3d/newton
      bin: standard
Per MPI rank memory allocation (min/avg/max) = 24.32 | 24.32 | 24.32 Mbytes
Step Temp E_pair E_mol TotEng Press 
       0    577.87771    362.79534    1226.0504    3740.3028     2.986054 
      22    577.87771    366.98826    1049.8216    3568.2669    4.0040527 
Loop time of 1.51891 on 1 procs for 22 steps with 1250 atoms

100.1% CPU use with 1 MPI tasks x no OpenMP threads

Minimization stats:
  Stopping criterion = linesearch alpha is zero
  Energy initial, next-to-last, final = 
         1588.84574307      1416.80987669      1416.80987669
  Force two-norm initial, final = 628.457 53.7632
  Force max component initial, final = 281.706 12.4736
  Final line search alpha, max atom move = 3.56332e-12 4.44473e-11
  Iterations, force evaluations = 22 159

MPI task timing breakdown:
Section |  min time  |  avg time  |  max time  |%varavg| %total
---------------------------------------------------------------
Pair    | 0.38002    | 0.38002    | 0.38002    |   0.0 | 25.02
Bond    | 0.096882   | 0.096882   | 0.096882   |   0.0 |  6.38
Kspace  | 1.0382     | 1.0382     | 1.0382     |   0.0 | 68.35
Neigh   | 0          | 0          | 0          |   0.0 |  0.00
Comm    | 9.9421e-05 | 9.9421e-05 | 9.9421e-05 |   0.0 |  0.01
Output  | 0          | 0          | 0          |   0.0 |  0.00
Modify  | 0          | 0          | 0          |   0.0 |  0.00
Other   |            | 0.003746   |            |       |  0.25

Nlocal:    1250 ave 1250 max 1250 min
Histogram: 1 0 0 0 0 0 0 0 0 0
Nghost:    0 ave 0 max 0 min
Histogram: 1 0 0 0 0 0 0 0 0 0
Neighs:    68561 ave 68561 max 68561 min
Histogram: 1 0 0 0 0 0 0 0 0 0

Total # of neighbors = 68561
Ave neighs/atom = 54.8488
Ave special neighs/atom = 11.1024
Neighbor list builds = 0
Dangerous builds = 0
write_dump all custom pysimm.dump.tmp id q x y z vx vy vz
quit


################################################################################
##################################    Init    ##################################
################################################################################
units           real
atom_style      full
pair_style      lj/cut/coul/long 12.0  12.0
kspace_style    pppm 1e-4
bond_style      harmonic
angle_style     harmonic
dihedral_style  fourier
improper_style  cvff
special_bonds   amber
pair_modify     mix arithmetic
read_data       temp.lmps
  orthogonal box = (-157.875 -157.875 -157.875) to (157.875 157.875 157.875)
  1 by 1 by 1 MPI processor grid
  reading atoms ...
  1298 atoms
  reading velocities ...
  1298 velocities
  scanning bonds ...
  3 = max bonds/atom
  scanning angles ...
  6 = max angles/atom
  scanning dihedrals ...
  27 = max dihedrals/atom
  scanning impropers ...
  2 = max impropers/atom
  reading bonds ...
  1432 bonds
  reading angles ...
  2484 angles
  reading dihedrals ...
  3803 dihedrals
  reading impropers ...
  324 impropers
  4 = max # of 1-2 neighbors
  11 = max # of 1-3 neighbors
  20 = max # of 1-4 neighbors
  22 = max # of special neighbors
  special bonds CPU = 0.00111103 secs
  read_data CPU = 0.0145261 secs
################################################################################

min_style cg
minimize 1e-06 1e-06 1000000 10000000
WARNING: Using 'neigh_modify every 1 delay 0 check yes' setting during minimization (../min.cpp:190)
PPPM initialization ...
WARNING: System is not charge neutral, net charge = -0.000108 (../kspace.cpp:313)
  using 12-bit tables for long-range coulomb (../kspace.cpp:332)
  G vector (1/distance) = 0.102752
  grid = 30 30 30
  stencil order = 5
  estimated absolute RMS force accuracy = 0.033432
  estimated relative force accuracy = 0.00010068
  using double precision KISS FFT
  3d grid and FFT values/proc = 42875 27000
Neighbor list info ...
  update every 1 steps, delay 0 steps, check yes
  max neighbors/atom: 2000, page size: 100000
  master list distance cutoff = 14
  ghost atom cutoff = 14
  binsize = 7, bins = 46 46 46
  1 neighbor lists, perpetual/occasional/extra = 1 0 0
  (1) pair lj/cut/coul/long, perpetual
      attributes: half, newton on
      pair build: half/bin/newton
      stencil: half/bin/3d/newton
      bin: standard
Per MPI rank memory allocation (min/avg/max) = 24.35 | 24.35 | 24.35 Mbytes
Step Temp E_pair E_mol TotEng Press 
       0    549.68867    365.28704    1273.0908     3763.535     2.407874 
      18    549.68867    364.88682    1111.1198    3601.1638    3.2035274 
Loop time of 0.909723 on 1 procs for 18 steps with 1298 atoms

100.0% CPU use with 1 MPI tasks x no OpenMP threads

Minimization stats:
  Stopping criterion = linesearch alpha is zero
  Energy initial, next-to-last, final = 
          1638.3778131      1476.00665263      1476.00665263
  Force two-norm initial, final = 625.069 51.5359
  Force max component initial, final = 276.105 12.5961
  Final line search alpha, max atom move = 3.56819e-12 4.49455e-11
  Iterations, force evaluations = 18 93

MPI task timing breakdown:
Section |  min time  |  avg time  |  max time  |%varavg| %total
---------------------------------------------------------------
Pair    | 0.23651    | 0.23651    | 0.23651    |   0.0 | 26.00
Bond    | 0.059046   | 0.059046   | 0.059046   |   0.0 |  6.49
Kspace  | 0.61185    | 0.61185    | 0.61185    |   0.0 | 67.26
Neigh   | 0          | 0          | 0          |   0.0 |  0.00
Comm    | 5.2691e-05 | 5.2691e-05 | 5.2691e-05 |   0.0 |  0.01
Output  | 0          | 0          | 0          |   0.0 |  0.00
Modify  | 0          | 0          | 0          |   0.0 |  0.00
Other   |            | 0.002257   |            |       |  0.25

Nlocal:    1298 ave 1298 max 1298 min
Histogram: 1 0 0 0 0 0 0 0 0 0
Nghost:    0 ave 0 max 0 min
Histogram: 1 0 0 0 0 0 0 0 0 0
Neighs:    71094 ave 71094 max 71094 min
Histogram: 1 0 0 0 0 0 0 0 0 0

Total # of neighbors = 71094
Ave neighs/atom = 54.772
Ave special neighs/atom = 11.1032
Neighbor list builds = 0
Dangerous builds = 0
write_dump all custom pysimm.dump.tmp id q x y z vx vy vz
quit


################################################################################
##################################    Init    ##################################
################################################################################
units           real
atom_style      full
pair_style      lj/cut/coul/long 12.0  12.0
kspace_style    pppm 1e-4
bond_style      harmonic
angle_style     harmonic
dihedral_style  fourier
improper_style  cvff
special_bonds   amber
pair_modify     mix arithmetic
read_data       temp.lmps
  orthogonal box = (-159.874 -159.874 -159.874) to (159.874 159.874 159.874)
  1 by 1 by 1 MPI processor grid
  reading atoms ...
  1346 atoms
  reading velocities ...
  1346 velocities
  scanning bonds ...
  3 = max bonds/atom
  scanning angles ...
  6 = max angles/atom
  scanning dihedrals ...
  27 = max dihedrals/atom
  scanning impropers ...
  2 = max impropers/atom
  reading bonds ...
  1485 bonds
  reading angles ...
  2576 angles
  reading dihedrals ...
  3944 dihedrals
  reading impropers ...
  336 impropers
  4 = max # of 1-2 neighbors
  11 = max # of 1-3 neighbors
  20 = max # of 1-4 neighbors
  22 = max # of special neighbors
  special bonds CPU = 0.00118995 secs
  read_data CPU = 0.015362 secs
################################################################################

min_style cg
minimize 1e-06 1e-06 1000000 10000000
WARNING: Using 'neigh_modify every 1 delay 0 check yes' setting during minimization (../min.cpp:190)
PPPM initialization ...
WARNING: System is not charge neutral, net charge = -0.000112 (../kspace.cpp:313)
  using 12-bit tables for long-range coulomb (../kspace.cpp:332)
  G vector (1/distance) = 0.101842
  grid = 30 30 30
  stencil order = 5
  estimated absolute RMS force accuracy = 0.0343159
  estimated relative force accuracy = 0.000103341
  using double precision KISS FFT
  3d grid and FFT values/proc = 42875 27000
Neighbor list info ...
  update every 1 steps, delay 0 steps, check yes
  max neighbors/atom: 2000, page size: 100000
  master list distance cutoff = 14
  ghost atom cutoff = 14
  binsize = 7, bins = 46 46 46
  1 neighbor lists, perpetual/occasional/extra = 1 0 0
  (1) pair lj/cut/coul/long, perpetual
      attributes: half, newton on
      pair build: half/bin/newton
      stencil: half/bin/3d/newton
      bin: standard
Per MPI rank memory allocation (min/avg/max) = 24.36 | 24.36 | 24.36 Mbytes
Step Temp E_pair E_mol TotEng Press 
       0    588.20827     332.5647    1358.1304    4048.9335    2.4995655 
      70    588.20827    317.85687    1075.3806     3751.476    3.1226061 
Loop time of 2.87988 on 1 procs for 70 steps with 1346 atoms

100.0% CPU use with 1 MPI tasks x no OpenMP threads

Minimization stats:
  Stopping criterion = linesearch alpha is zero
  Energy initial, next-to-last, final = 
         1690.69510706       1393.2375182       1393.2375182
  Force two-norm initial, final = 628.785 47.2818
  Force max component initial, final = 296.015 7.58233
  Final line search alpha, max atom move = 4.91405e-12 3.72599e-11
  Iterations, force evaluations = 70 285

MPI task timing breakdown:
Section |  min time  |  avg time  |  max time  |%varavg| %total
---------------------------------------------------------------
Pair    | 0.81979    | 0.81979    | 0.81979    |   0.0 | 28.47
Bond    | 0.18744    | 0.18744    | 0.18744    |   0.0 |  6.51
Kspace  | 1.8559     | 1.8559     | 1.8559     |   0.0 | 64.44
Neigh   | 0.0087972  | 0.0087972  | 0.0087972  |   0.0 |  0.31
Comm    | 0.00028372 | 0.00028372 | 0.00028372 |   0.0 |  0.01
Output  | 0          | 0          | 0          |   0.0 |  0.00
Modify  | 0          | 0          | 0          |   0.0 |  0.00
Other   |            | 0.007676   |            |       |  0.27

Nlocal:    1346 ave 1346 max 1346 min
Histogram: 1 0 0 0 0 0 0 0 0 0
Nghost:    0 ave 0 max 0 min
Histogram: 1 0 0 0 0 0 0 0 0 0
Neighs:    82869 ave 82869 max 82869 min
Histogram: 1 0 0 0 0 0 0 0 0 0

Total # of neighbors = 82869
Ave neighs/atom = 61.5669
Ave special neighs/atom = 11.104
Neighbor list builds = 3
Dangerous builds = 0
write_dump all custom pysimm.dump.tmp id q x y z vx vy vz
quit


################################################################################
##################################    Init    ##################################
################################################################################
units           real
atom_style      full
pair_style      lj/cut/coul/long 12.0  12.0
kspace_style    pppm 1e-4
bond_style      harmonic
angle_style     harmonic
dihedral_style  fourier
improper_style  cvff
special_bonds   amber
pair_modify     mix arithmetic
read_data       temp.lmps
  orthogonal box = (-161.824 -161.824 -161.824) to (161.824 161.824 161.824)
  1 by 1 by 1 MPI processor grid
  reading atoms ...
  1394 atoms
  reading velocities ...
  1394 velocities
  scanning bonds ...
  3 = max bonds/atom
  scanning angles ...
  6 = max angles/atom
  scanning dihedrals ...
  27 = max dihedrals/atom
  scanning impropers ...
  2 = max impropers/atom
  reading bonds ...
  1538 bonds
  reading angles ...
  2668 angles
  reading dihedrals ...
  4085 dihedrals
  reading impropers ...
  348 impropers
  4 = max # of 1-2 neighbors
  11 = max # of 1-3 neighbors
  20 = max # of 1-4 neighbors
  22 = max # of special neighbors
  special bonds CPU = 0.00123906 secs
[...]
  6 = max angles/atom
  scanning dihedrals ...
  27 = max dihedrals/atom
  scanning impropers ...
  2 = max impropers/atom
  reading bonds ...
  2439 bonds
  reading angles ...
  4232 angles
  reading dihedrals ...
  6482 dihedrals
  reading impropers ...
  552 impropers
  4 = max # of 1-2 neighbors
  11 = max # of 1-3 neighbors
  20 = max # of 1-4 neighbors
  22 = max # of special neighbors
  special bonds CPU = 0.00178504 secs
  read_data CPU = 0.0228329 secs
################################################################################

min_style cg
minimize 1e-06 1e-06 1000000 10000000
WARNING: Using 'neigh_modify every 1 delay 0 check yes' setting during minimization (../min.cpp:190)
PPPM initialization ...
WARNING: System is not charge neutral, net charge = -0.000184 (../kspace.cpp:313)
  using 12-bit tables for long-range coulomb (../kspace.cpp:332)
  G vector (1/distance) = 0.10271
  grid = 36 36 36
  stencil order = 5
  estimated absolute RMS force accuracy = 0.0332151
  estimated relative force accuracy = 0.000100026
  using double precision KISS FFT
  3d grid and FFT values/proc = 68921 46656
Neighbor list info ...
  update every 1 steps, delay 0 steps, check yes
  max neighbors/atom: 2000, page size: 100000
  master list distance cutoff = 14
  ghost atom cutoff = 14
  binsize = 7, bins = 55 55 55
  1 neighbor lists, perpetual/occasional/extra = 1 0 0
  (1) pair lj/cut/coul/long, perpetual
      attributes: half, newton on
      pair build: half/bin/newton
      stencil: half/bin/3d/newton
      bin: standard
Per MPI rank memory allocation (min/avg/max) = 27.82 | 27.82 | 27.82 Mbytes
Step Temp E_pair E_mol TotEng Press 
       0    289.16639    1513.7812    4543.6247    7961.4536    1.3943087 
      59    289.16639    1507.2576    4153.8235    7565.1289    2.1427706 
Loop time of 3.37167 on 1 procs for 59 steps with 2210 atoms

100.1% CPU use with 1 MPI tasks x no OpenMP threads

Minimization stats:
  Stopping criterion = linesearch alpha is zero
  Energy initial, next-to-last, final = 
         6057.40589999      5661.08112777      5661.08112777
  Force two-norm initial, final = 655.665 91.6892
  Force max component initial, final = 317.263 21.4941
  Final line search alpha, max atom move = 1.17256e-12 2.5203e-11
  Iterations, force evaluations = 59 179

MPI task timing breakdown:
Section |  min time  |  avg time  |  max time  |%varavg| %total
---------------------------------------------------------------
Pair    | 1.0981     | 1.0981     | 1.0981     |   0.0 | 32.57
Bond    | 0.19564    | 0.19564    | 0.19564    |   0.0 |  5.80
Kspace  | 2.0563     | 2.0563     | 2.0563     |   0.0 | 60.99
Neigh   | 0.011678   | 0.011678   | 0.011678   |   0.0 |  0.35
Comm    | 0.00035214 | 0.00035214 | 0.00035214 |   0.0 |  0.01
Output  | 0          | 0          | 0          |   0.0 |  0.00
Modify  | 0          | 0          | 0          |   0.0 |  0.00
Other   |            | 0.009607   |            |       |  0.28

Nlocal:    2210 ave 2210 max 2210 min
Histogram: 1 0 0 0 0 0 0 0 0 0
Nghost:    0 ave 0 max 0 min
Histogram: 1 0 0 0 0 0 0 0 0 0
Neighs:    175719 ave 175719 max 175719 min
Histogram: 1 0 0 0 0 0 0 0 0 0

Total # of neighbors = 175719
Ave neighs/atom = 79.5109
Ave special neighs/atom = 11.1122
Neighbor list builds = 2
Dangerous builds = 0
write_dump all custom pysimm.dump.tmp id q x y z vx vy vz
quit


################################################################################
##################################    Init    ##################################
################################################################################
units           real
atom_style      full
pair_style      lj/cut/coul/long 12.0  12.0
kspace_style    pppm 1e-4
bond_style      harmonic
angle_style     harmonic
dihedral_style  fourier
improper_style  cvff
special_bonds   amber
pair_modify     mix arithmetic
read_data       temp.lmps
  orthogonal box = (-190.945 -190.945 -190.945) to (190.945 190.945 190.945)
  1 by 1 by 1 MPI processor grid
  reading atoms ...
  2258 atoms
  reading velocities ...
  2258 velocities
  scanning bonds ...
  3 = max bonds/atom
  scanning angles ...
  6 = max angles/atom
  scanning dihedrals ...
  27 = max dihedrals/atom
  scanning impropers ...
  2 = max impropers/atom
  reading bonds ...
  2492 bonds
  reading angles ...
  4324 angles
  reading dihedrals ...
  6623 dihedrals
  reading impropers ...
  564 impropers
  4 = max # of 1-2 neighbors
  11 = max # of 1-3 neighbors
  20 = max # of 1-4 neighbors
  22 = max # of special neighbors
  special bonds CPU = 0.00181699 secs
  read_data CPU = 0.0231869 secs
################################################################################

min_style cg
minimize 1e-06 1e-06 1000000 10000000
WARNING: Using 'neigh_modify every 1 delay 0 check yes' setting during minimization (../min.cpp:190)
PPPM initialization ...
WARNING: System is not charge neutral, net charge = -0.000188 (../kspace.cpp:313)
  using 12-bit tables for long-range coulomb (../kspace.cpp:332)
  G vector (1/distance) = 0.102183
  grid = 36 36 36
  stencil order = 5
  estimated absolute RMS force accuracy = 0.0337336
  estimated relative force accuracy = 0.000101588
  using double precision KISS FFT
  3d grid and FFT values/proc = 68921 46656
Neighbor list info ...
  update every 1 steps, delay 0 steps, check yes
  max neighbors/atom: 2000, page size: 100000
  master list distance cutoff = 14
  ghost atom cutoff = 14
  binsize = 7, bins = 55 55 55
  1 neighbor lists, perpetual/occasional/extra = 1 0 0
  (1) pair lj/cut/coul/long, perpetual
      attributes: half, newton on
      pair build: half/bin/newton
      stencil: half/bin/3d/newton
      bin: standard
Per MPI rank memory allocation (min/avg/max) = 27.82 | 27.82 | 27.82 Mbytes
Step Temp E_pair E_mol TotEng Press 
       0    379.43816    1517.5446    4601.4787    8671.7649    2.0644742 
      26    379.43816    1484.8248    4407.8431    8445.4095    2.3710539 
Loop time of 2.12756 on 1 procs for 26 steps with 2258 atoms

100.1% CPU use with 1 MPI tasks x no OpenMP threads

Minimization stats:
  Stopping criterion = linesearch alpha is zero
  Energy initial, next-to-last, final = 
         6119.02328797      5892.66790346      5892.66790346
  Force two-norm initial, final = 637.241 136.498
  Force max component initial, final = 289.587 37.5403
  Final line search alpha, max atom move = 5.80428e-13 2.17895e-11
  Iterations, force evaluations = 26 112

MPI task timing breakdown:
Section |  min time  |  avg time  |  max time  |%varavg| %total
---------------------------------------------------------------
Pair    | 0.69891    | 0.69891    | 0.69891    |   0.0 | 32.85
Bond    | 0.12476    | 0.12476    | 0.12476    |   0.0 |  5.86
Kspace  | 1.299      | 1.299      | 1.299      |   0.0 | 61.06
Neigh   | 0          | 0          | 0          |   0.0 |  0.00
Comm    | 0.0001111  | 0.0001111  | 0.0001111  |   0.0 |  0.01
Output  | 0          | 0          | 0          |   0.0 |  0.00
Modify  | 0          | 0          | 0          |   0.0 |  0.00
Other   |            | 0.004779   |            |       |  0.22

Nlocal:    2258 ave 2258 max 2258 min
Histogram: 1 0 0 0 0 0 0 0 0 0
Nghost:    0 ave 0 max 0 min
Histogram: 1 0 0 0 0 0 0 0 0 0
Neighs:    180178 ave 180178 max 180178 min
Histogram: 1 0 0 0 0 0 0 0 0 0

Total # of neighbors = 180178
Ave neighs/atom = 79.7954
Ave special neighs/atom = 11.1125
Neighbor list builds = 0
Dangerous builds = 0
write_dump all custom pysimm.dump.tmp id q x y z vx vy vz
quit


################################################################################
##################################    Init    ##################################
################################################################################
units           real
atom_style      full
pair_style      lj/cut/coul/long 12.0  12.0
kspace_style    pppm 1e-4
bond_style      harmonic
angle_style     harmonic
dihedral_style  fourier
improper_style  cvff
special_bonds   amber
pair_modify     mix arithmetic
read_data       temp.lmps
  orthogonal box = (-192.319 -192.319 -192.319) to (192.319 192.319 192.319)
  1 by 1 by 1 MPI processor grid
  reading atoms ...
  2306 atoms
  reading velocities ...
  2306 velocities
  scanning bonds ...
  3 = max bonds/atom
  scanning angles ...
  6 = max angles/atom
  scanning dihedrals ...
  27 = max dihedrals/atom
  scanning impropers ...
  2 = max impropers/atom
  reading bonds ...
  2545 bonds
  reading angles ...
  4416 angles
  reading dihedrals ...
  6764 dihedrals
  reading impropers ...
  576 impropers
  4 = max # of 1-2 neighbors
  11 = max # of 1-3 neighbors
  20 = max # of 1-4 neighbors
  22 = max # of special neighbors
  special bonds CPU = 0.00185609 secs
  read_data CPU = 0.322723 secs
################################################################################

min_style cg
minimize 1e-06 1e-06 1000000 10000000
WARNING: Using 'neigh_modify every 1 delay 0 check yes' setting during minimization (../min.cpp:190)
PPPM initialization ...
WARNING: System is not charge neutral, net charge = -0.000192 (../kspace.cpp:313)
  using 12-bit tables for long-range coulomb (../kspace.cpp:332)
  G vector (1/distance) = 0.101665
  grid = 36 36 36
  stencil order = 5
  estimated absolute RMS force accuracy = 0.0342415
  estimated relative force accuracy = 0.000103117
  using double precision KISS FFT
  3d grid and FFT values/proc = 68921 46656
Neighbor list info ...
  update every 1 steps, delay 0 steps, check yes
  max neighbors/atom: 2000, page size: 100000
  master list distance cutoff = 14
  ghost atom cutoff = 14
  binsize = 7, bins = 55 55 55
  1 neighbor lists, perpetual/occasional/extra = 1 0 0
  (1) pair lj/cut/coul/long, perpetual
      attributes: half, newton on
      pair build: half/bin/newton
      stencil: half/bin/3d/newton
      bin: standard
Per MPI rank memory allocation (min/avg/max) = 27.83 | 27.83 | 27.83 Mbytes
Step Temp E_pair E_mol TotEng Press 
       0    372.15747    1550.1397    4563.4775    8670.6245    2.0808644 
      10    372.15747    1546.6983    4412.1318    8515.8374    2.4902901 
Loop time of 1.55827 on 1 procs for 10 steps with 2306 atoms

100.0% CPU use with 1 MPI tasks x no OpenMP threads

Minimization stats:
  Stopping criterion = linesearch alpha is zero
  Energy initial, next-to-last, final = 
         6113.61719306      5958.83005831      5958.83005831
  Force two-norm initial, final = 640.415 69.85
  Force max component initial, final = 266.15 18.5588
  Final line search alpha, max atom move = 1.29825e-12 2.40941e-11
  Iterations, force evaluations = 10 82

MPI task timing breakdown:
Section |  min time  |  avg time  |  max time  |%varavg| %total
---------------------------------------------------------------
Pair    | 0.53728    | 0.53728    | 0.53728    |   0.0 | 34.48
Bond    | 0.093154   | 0.093154   | 0.093154   |   0.0 |  5.98
Kspace  | 0.92472    | 0.92472    | 0.92472    |   0.0 | 59.34
Neigh   | 0          | 0          | 0          |   0.0 |  0.00
Comm    | 7.4625e-05 | 7.4625e-05 | 7.4625e-05 |   0.0 |  0.00
Output  | 0          | 0          | 0          |   0.0 |  0.00
Modify  | 0          | 0          | 0          |   0.0 |  0.00
Other   |            | 0.003038   |            |       |  0.19

Nlocal:    2306 ave 2306 max 2306 min
Histogram: 1 0 0 0 0 0 0 0 0 0
Nghost:    0 ave 0 max 0 min
Histogram: 1 0 0 0 0 0 0 0 0 0
Neighs:    189000 ave 189000 max 189000 min
Histogram: 1 0 0 0 0 0 0 0 0 0

Total # of neighbors = 189000
Ave neighs/atom = 81.9601
Ave special neighs/atom = 11.1127
Neighbor list builds = 0
Dangerous builds = 0
write_dump all custom pysimm.dump.tmp id q x y z vx vy vz
quit


################################################################################
##################################    Init    ##################################
################################################################################
units           real
atom_style      full
pair_style      lj/cut/coul/long 12.0  12.0
kspace_style    pppm 1e-4
bond_style      harmonic
angle_style     harmonic
dihedral_style  fourier
improper_style  cvff
special_bonds   amber
pair_modify     mix arithmetic
read_data       temp.lmps
  orthogonal box = (-193.674 -193.674 -193.674) to (193.674 193.674 193.674)
  1 by 1 by 1 MPI processor grid
  reading atoms ...
  2354 atoms
  reading velocities ...
  2354 velocities
  scanning bonds ...
  3 = max bonds/atom
  scanning angles ...
  6 = max angles/atom
  scanning dihedrals ...
  27 = max dihedrals/atom
  scanning impropers ...
  2 = max impropers/atom
  reading bonds ...
  2598 bonds
  reading angles ...
  4508 angles
  reading dihedrals ...
  6905 dihedrals
  reading impropers ...
  588 impropers
  4 = max # of 1-2 neighbors
  11 = max # of 1-3 neighbors
  20 = max # of 1-4 neighbors
  22 = max # of special neighbors
  special bonds CPU = 0.00187612 secs
  read_data CPU = 0.023845 secs
################################################################################

min_style cg
minimize 1e-06 1e-06 1000000 10000000
WARNING: Using 'neigh_modify every 1 delay 0 check yes' setting during minimization (../min.cpp:190)
PPPM initialization ...
WARNING: System is not charge neutral, net charge = -0.000196 (../kspace.cpp:313)
  using 12-bit tables for long-range coulomb (../kspace.cpp:332)
  G vector (1/distance) = 0.10116
  grid = 36 36 36
  stencil order = 5
  estimated absolute RMS force accuracy = 0.0347425
  estimated relative force accuracy = 0.000104626
  using double precision KISS FFT
  3d grid and FFT values/proc = 68921 46656
Neighbor list info ...
  update every 1 steps, delay 0 steps, check yes
  max neighbors/atom: 2000, page size: 100000
  master list distance cutoff = 14
  ghost atom cutoff = 14
  binsize = 7, bins = 56 56 56
  1 neighbor lists, perpetual/occasional/extra = 1 0 0
  (1) pair lj/cut/coul/long, perpetual
      attributes: half, newton on
      pair build: half/bin/newton
      stencil: half/bin/3d/newton
      bin: standard
Per MPI rank memory allocation (min/avg/max) = 28.26 | 28.26 | 28.26 Mbytes
Step Temp E_pair E_mol TotEng Press 
       0    317.00428    1549.3033    4676.4515    8449.1741    1.9693194 
      36    317.00428    1533.9895     4402.129    8159.5377    2.1652042 
Loop time of 2.55167 on 1 procs for 36 steps with 2354 atoms

99.8% CPU use with 1 MPI tasks x no OpenMP threads

Minimization stats:
  Stopping criterion = linesearch alpha is zero
  Energy initial, next-to-last, final = 
            6225.75484      5936.11846813      5936.11846813
  Force two-norm initial, final = 644.033 95.2609
  Force max component initial, final = 253.907 38.6881
  Final line search alpha, max atom move = 9.77608e-13 3.78218e-11
  Iterations, force evaluations = 36 132

MPI task timing breakdown:
Section |  min time  |  avg time  |  max time  |%varavg| %total
---------------------------------------------------------------
Pair    | 0.89073    | 0.89073    | 0.89073    |   0.0 | 34.91
Bond    | 0.15259    | 0.15259    | 0.15259    |   0.0 |  5.98
Kspace  | 1.4957     | 1.4957     | 1.4957     |   0.0 | 58.61
Neigh   | 0.0063689  | 0.0063689  | 0.0063689  |   0.0 |  0.25
Comm    | 0.00016022 | 0.00016022 | 0.00016022 |   0.0 |  0.01
Output  | 0          | 0          | 0          |   0.0 |  0.00
Modify  | 0          | 0          | 0          |   0.0 |  0.00
Other   |            | 0.006174   |            |       |  0.24

Nlocal:    2354 ave 2354 max 2354 min
Histogram: 1 0 0 0 0 0 0 0 0 0
Nghost:    0 ave 0 max 0 min
Histogram: 1 0 0 0 0 0 0 0 0 0
Neighs:    195911 ave 195911 max 195911 min
Histogram: 1 0 0 0 0 0 0 0 0 0

Total # of neighbors = 195911
Ave neighs/atom = 83.2247
Ave special neighs/atom = 11.113
Neighbor list builds = 1
Dangerous builds = 0
write_dump all custom pysimm.dump.tmp id q x y z vx vy vz
quit


################################################################################
##################################    Init    ##################################
################################################################################
units           real
atom_style      full
pair_style      lj/cut/coul/long 12.0  12.0
kspace_style    pppm 1e-4
bond_style      harmonic
angle_style     harmonic
dihedral_style  fourier
improper_style  cvff
special_bonds   amber
pair_modify     mix arithmetic
read_data       temp.lmps
  orthogonal box = (-195.009 -195.009 -195.009) to (195.009 195.009 195.009)
  1 by 1 by 1 MPI processor grid
  reading atoms ...
  2402 atoms
  reading velocities ...
  2402 velocities
  scanning bonds ...
  3 = max bonds/atom
  scanning angles ...
  6 = max angles/atom
  scanning dihedrals ...
  27 = max dihedrals/atom
  scanning impropers ...
  2 = max impropers/atom
  reading bonds ...
  2651 bonds
  reading angles ...
  4600 angles
  reading dihedrals ...
  7046 dihedrals
  reading impropers ...
  600 impropers
  4 = max # of 1-2 neighbors
  11 = max # of 1-3 neighbors
  20 = max # of 1-4 neighbors
  22 = max # of special neighbors
  special bonds CPU = 0.00189781 secs
  read_data CPU = 0.149256 secs
################################################################################

min_style cg
minimize 1e-06 1e-06 1000000 10000000
WARNING: Using 'neigh_modify every 1 delay 0 check yes' setting during minimization (../min.cpp:190)
PPPM initialization ...
WARNING: System is not charge neutral, net charge = -0.0002 (../kspace.cpp:313)
  using 12-bit tables for long-range coulomb (../kspace.cpp:332)
  G vector (1/distance) = 0.100666
  grid = 36 36 36
  stencil order = 5
  estimated absolute RMS force accuracy = 0.0352368
  estimated relative force accuracy = 0.000106115
  using double precision KISS FFT
  3d grid and FFT values/proc = 68921 46656
Neighbor list info ...
  update every 1 steps, delay 0 steps, check yes
  max neighbors/atom: 2000, page size: 100000
  master list distance cutoff = 14
  ghost atom cutoff = 14
  binsize = 7, bins = 56 56 56
  1 neighbor lists, perpetual/occasional/extra = 1 0 0
  (1) pair lj/cut/coul/long, perpetual
      attributes: half, newton on
      pair build: half/bin/newton
      stencil: half/bin/3d/newton
      bin: standard
Per MPI rank memory allocation (min/avg/max) = 28.26 | 28.26 | 28.26 Mbytes
Step Temp E_pair E_mol TotEng Press 
       0    317.57464    1549.1249    4483.5052     8305.488    1.7999096 
      37    317.57464    1490.7265    4230.4071    7993.9915    1.4830053 
Loop time of 2.63969 on 1 procs for 37 steps with 2402 atoms

100.1% CPU use with 1 MPI tasks x no OpenMP threads

Minimization stats:
  Stopping criterion = linesearch alpha is zero
  Energy initial, next-to-last, final = 
         6032.63014584      5721.13364508      5721.13364508
  Force two-norm initial, final = 639.536 143.939
  Force max component initial, final = 278.898 39.7783
  Final line search alpha, max atom move = 3.5458e-13 1.41046e-11
  Iterations, force evaluations = 37 133

MPI task timing breakdown:
Section |  min time  |  avg time  |  max time  |%varavg| %total
---------------------------------------------------------------
Pair    | 0.96772    | 0.96772    | 0.96772    |   0.0 | 36.66
Bond    | 0.15676    | 0.15676    | 0.15676    |   0.0 |  5.94
Kspace  | 1.5019     | 1.5019     | 1.5019     |   0.0 | 56.90
Neigh   | 0.0068769  | 0.0068769  | 0.0068769  |   0.0 |  0.26
Comm    | 0.00016904 | 0.00016904 | 0.00016904 |   0.0 |  0.01
Output  | 0          | 0          | 0          |   0.0 |  0.00
Modify  | 0          | 0          | 0          |   0.0 |  0.00
Other   |            | 0.006307   |            |       |  0.24

Nlocal:    2402 ave 2402 max 2402 min
Histogram: 1 0 0 0 0 0 0 0 0 0
Nghost:    0 ave 0 max 0 min
Histogram: 1 0 0 0 0 0 0 0 0 0
Neighs:    207237 ave 207237 max 207237 min
Histogram: 1 0 0 0 0 0 0 0 0 0

Total # of neighbors = 207237
Ave neighs/atom = 86.2769
Ave special neighs/atom = 11.1132
Neighbor list builds = 1
Dangerous builds = 0
write_dump all custom pysimm.dump.tmp id q x y z vx vy vz
quit
