pySIMM System Object

1586 atoms
1750 bonds
3036 angles
4649 dihedrals
396 impropers

10 atom types
14 bond types
23 angle types
11 dihedral types
3 improper types

-169.189411 169.189411 xlo xhi
-169.189411 169.189411 ylo yhi
-169.189411 169.189411 zlo zhi

Masses

   1	12.01	# ca
   2	14.01	# nc
   3	14.01	# na
   4	12.01	# cd
   5	1.008	# ha
   6	12.01	# cp
   7	1.008	# h5
   8	1.008	# hn
   9	12.01	# c3
  10	1.008	# hc

Pair Coeffs

   1	0.086	3.3996695084235347	# ca
   2	0.17	3.249998523775958	# nc
   3	0.17	3.249998523775958	# na
   4	0.086	3.3996695084235347	# cd
   5	0.015	2.59964245953351	# ha
   6	0.086	3.3996695084235347	# cp
   7	0.015	2.421462715905442	# h5
   8	0.0157	1.069078461768407	# hn
   9	0.1094	3.3996695084235347	# c3
  10	0.0157	2.649532787749369	# hc

Bond Coeffs

   1	425.8	1.3802	# cd,na
   2	467.7	1.3517	# ca,nc
   3	345.8	1.086	# ca,ha
   4	351.8	1.0818	# cd,h5
   5	385.1	1.4555	# ca,cd
   6	351.4	1.4854	# cp,cp
   7	321.0	1.5156	# c3,ca
   8	525.4	1.3172	# cd,nc
   9	300.9	1.5375	# c3,c3
  10	330.6	1.0969	# c3,hc
  11	450.2	1.4058	# ca,cp
  12	420.5	1.384	# ca,na
  13	408.4	1.01	# hn,na
  14	461.1	1.3984	# ca,ca

Angle Coeffs

   1	66.72	118.38	# ca,cp,ca
   2	62.86	111.51	# c3,c3,c3
   3	66.26	120.69	# ca,ca,cp
   4	63.15	112.07	# c3,c3,ca
   5	67.4	113.15	# ca,na,cd
   6	46.34	109.8	# c3,c3,hc
   7	66.28	123.45	# ca,cd,na
   8	48.18	119.88	# ca,ca,ha
   9	67.6	123.24	# ca,cd,nc
  10	64.05	121.11	# ca,cp,cp
  11	46.75	125.5	# cd,na,hn
  12	66.62	120.02	# ca,ca,ca
  13	72.48	104.88	# ca,nc,cd
  14	74.9	112.22	# na,cd,nc
  15	46.63	125.54	# ca,na,hn
  16	65.02	120.79	# ca,ca,cd
  17	69.46	119.72	# ca,ca,nc
  18	47.98	119.86	# cp,ca,ha
  19	39.4	107.58	# hc,c3,hc
  20	63.53	120.77	# c3,ca,ca
  21	69.08	118.34	# ca,ca,na
  22	49.58	121.55	# h5,cd,na
  23	50.58	125.52	# h5,cd,nc

Dihedral Coeffs

   1	1	4.0	2	180	# X,ca,cd,X
   2	1	3.625	2	180	# X,ca,cp,X
   3	1	4.75	2	180	# X,cd,nc,X
   4	1	0.3	2	180	# X,ca,na,X
   5	1	3.625	2	180	# X,ca,ca,X
   6	1	1.7	2	180	# X,cd,na,X
   7	1	1.0	2	180	# X,cp,cp,X
   8	1	0.16	3	0	# hc,c3,c3,c3
   9	1	0.15555555555555556	3	0	# X,c3,c3,X
  10	1	0.0	2	0	# X,c3,ca,X
  11	1	4.8	2	180	# X,ca,nc,X

Improper Coeffs

   1	1.1	-1	2	# na,X,X,hn
   2	1.1	-1	2	# ca,ca,ca,c3
   3	1.1	-1	2	# ca,X,X,ha

Atoms

   1	1	1	0.438909	15.0316	13.2474	-43.1577
   2	1	1	0.108796	15.1235	14.3564	-42.3634
   3	1	2	-0.726889	16.1412	12.483	-43.0737
   4	1	3	-0.675747	16.3375	14.3285	-41.7532
   5	1	1	-0.43042	7.55951	22.997	-39.4775
   6	1	4	0.62373	16.9324	13.1439	-42.2092
   7	1	1	0.00157	8.66406	20.7112	-40.698
   8	1	5	0.178696	9.40037	17.657	-44.9024
   9	1	2	-0.592725	9.01321	19.1865	-42.6316
  10	1	6	-0.000174	12.9164	15.1128	-43.0015
  11	1	5	0.1602	12.1586	16.6743	-40.8377
  12	1	4	0.461284	9.27228	19.5417	-41.3624
  13	1	1	-0.167191	12.8306	13.9586	-43.84
  14	1	5	0.164364	14.2404	16.179	-41.6208
  15	1	1	-0.325009	13.886	13.0175	-43.9205
  16	1	8	0.422373	16.715	14.9831	-41.0964
  17	1	1	-0.217421	14.1068	15.306	-42.2483
  18	1	5	0.173851	7.55615	21.3452	-42.4477
  19	1	5	0.197073	7.13065	23.8943	-39.0457
  20	1	6	0.024852	11.8063	16.1199	-42.9271
  21	1	1	0.048807	10.5836	17.8433	-41.743
  22	1	1	0.060532	8.39648	22.1586	-38.7085
  23	1	5	0.140008	11.1546	15.8637	-44.9898
  24	1	5	0.202663	13.8268	12.1347	-44.5473
  25	1	1	-0.222969	11.5776	16.8603	-41.7335
  26	1	1	0.35235	9.83242	18.1368	-42.8476
  27	1	1	0.269742	7.25525	22.6985	-40.8098
  28	1	1	-0.166682	10.9875	16.4034	-44.0621
  29	1	1	-0.277787	9.99931	17.4145	-44.0311
  30	1	1	-0.312482	7.79518	21.5593	-41.4098
  31	1	9	0.442075	8.69253	22.5099	-37.2223
  32	1	5	0.128262	9.61352	20.3677	-38.8013
  33	1	3	-0.434358	10.2191	18.7108	-40.7582
  34	1	8	0.354457	10.5909	18.7935	-39.8303
  35	1	1	-0.233188	8.95228	21.0251	-39.3505
  36	1	5	0.143867	11.9272	13.7852	-44.4189
  37	1	9	-0.2502	9.56706	23.7836	-37.153
  38	1	9	-0.249785	9.43773	21.3827	-36.4609
  39	1	9	-0.32829	7.37388	22.7728	-36.4516
  40	1	10	0.056572	10.4341	21.2079	-36.8841
  41	1	10	0.044267	8.87102	20.4437	-36.4971
  42	1	10	0.051935	9.57598	21.647	-35.405
  43	1	10	0.069302	6.84406	23.6497	-36.8397
  44	1	10	0.077707	7.56769	22.9549	-35.3875
  45	1	10	0.059383	6.70194	21.9091	-36.5309
  46	1	10	0.048889	10.5201	23.6278	-37.6738
  47	1	10	0.055177	9.78796	24.055	-36.1132
  48	1	10	0.04962	9.0629	24.6364	-37.6235
  49	1	1	0.438909	24.7195	2.21889	-40.6764
  50	1	1	0.108796	24.3777	2.24851	-42.0018
  51	1	2	-0.726889	25.281	1.05124	-40.3282
  52	1	3	-0.675747	24.7766	1.06131	-42.5508
  53	1	1	-0.43042	19.0313	13.4541	-40.8497
  54	1	4	0.62373	25.276	0.329735	-41.46
  55	1	1	0.00157	20.0557	10.9867	-41.7375
  56	1	5	0.178696	19.682	6.30007	-44.1403
  57	1	2	-0.592725	19.9756	8.7968	-42.9533
  58	1	6	-0.000174	23.3042	4.4028	-41.735
  59	1	5	0.1602	23.492	7.03716	-40.975
  60	1	4	0.461284	20.5831	9.66219	-42.123
  61	1	1	-0.167191	23.6975	4.36432	-40.3625
  62	1	5	0.164364	23.3711	3.28733	-43.6192
  63	1	1	-0.325009	24.4053	3.27138	-39.8233
  64	1	8	0.422373	24.5844	0.712632	-43.4704
  65	1	1	-0.217421	23.6574	3.30655	-42.5736
  66	1	5	0.173851	18.2295	10.8353	-42.884
  67	1	5	0.197073	18.6254	14.3974	-40.5142
  68	1	6	0.024852	22.4822	5.55534	-42.2262
  69	1	1	0.048807	21.8115	7.86929	-42.043
  70	1	1	0.060532	20.2953	13.035	-40.3797
  71	1	5	0.140008	21.2169	4.39106	-43.561
  72	1	5	0.202663	24.665	3.20856	-38.7724
  73	1	1	-0.222969	22.6902	6.84889	-41.6804
  74	1	1	0.35235	20.7485	7.68839	-42.8836
  75	1	1	0.269742	18.2721	12.6784	-41.7582
  76	1	1	-0.166682	21.4091	5.37893	-43.1519
  77	1	1	-0.277787	20.5333	6.4428	-43.483
  78	1	1	-0.312482	18.809	11.4518	-42.1984
  79	1	9	0.442075	21.1575	13.878	-39.397
  80	1	5	0.128262	21.759	11.4709	-40.5097
  81	1	3	-0.434358	21.7544	9.14024	-41.5728
  82	1	8	0.354457	22.3304	9.56601	-40.8713
  83	1	1	-0.233188	20.7849	11.8012	-40.8477
  84	1	5	0.143867	23.3989	5.16819	-39.6954
  85	1	9	-0.2502	22.3884	14.4374	-40.1466
  86	1	9	-0.249785	21.6445	13.0122	-38.206
  87	1	9	-0.32829	20.3892	15.0798	-38.7894
  88	1	10	0.056572	22.1833	13.6225	-37.4704
  89	1	10	0.044267	22.329	12.2188	-38.5262
  90	1	10	0.051935	20.7941	12.5422	-37.6962
  91	1	10	0.069302	19.4866	14.7417	-38.2651
  92	1	10	0.077707	20.0995	15.7994	-39.5644
  93	1	10	0.059383	21.0128	15.6186	-38.0648
  94	1	10	0.048889	22.0748	15.0705	-40.9862
  95	1	10	0.055177	23.0078	13.6279	-40.5514
  96	1	10	0.04962	23.017	15.0419	-39.4808
  97	1	1	0.438909	23.4933	-9.12189	-32.4661
  98	1	1	0.108796	24.7968	-8.72038	-32.3465
  99	1	2	-0.726889	23.0802	-9.79223	-31.3716
 100	1	3	-0.675747	25.2714	-9.19529	-31.1661
 101	1	1	-0.43042	25.6364	-1.86856	-42.6846
 102	1	4	0.62373	24.1576	-9.79647	-30.5664
 103	1	1	0.00157	26.0033	-3.18377	-40.2194
 104	1	5	0.178696	25.9989	-2.94894	-35.011
 105	1	2	-0.592725	26.1361	-3.18467	-37.7474
 106	1	6	-0.000174	24.651	-7.39152	-34.3483
 107	1	5	0.1602	25.0814	-7.42206	-37.0938
 108	1	4	0.461284	26.0447	-3.85361	-38.9063
 109	1	1	-0.167191	23.3201	-7.87299	-34.518
 110	1	5	0.164364	26.4122	-7.46532	-33.0627
 111	1	1	-0.325009	22.7261	-8.73578	-33.5668
 112	1	8	0.422373	26.1436	-8.97698	-30.7246
 113	1	1	-0.217421	25.4081	-7.83715	-33.2366
 114	1	5	0.173851	25.8788	-1.21663	-39.354
 115	1	5	0.197073	25.4722	-1.34731	-43.6182
 116	1	6	0.024852	25.1787	-6.30689	-35.2186
 117	1	1	0.048807	25.7228	-5.36249	-37.3702
 118	1	1	0.060532	25.8545	-3.26842	-42.6777
 119	1	5	0.140008	25.3439	-4.90648	-33.5667
 120	1	5	0.202663	21.6896	-9.04698	-33.6365
 121	1	1	-0.222969	25.3123	-6.47272	-36.6219
 122	1	1	0.35235	25.9368	-4.12995	-36.8118
 123	1	1	0.269742	25.6326	-1.11407	-41.4897
 124	1	1	-0.166682	25.4723	-5.04009	-34.6381
 125	1	1	-0.277787	25.8409	-3.93558	-35.4337
 126	1	1	-0.312482	25.8909	-1.78551	-40.2822
 127	1	9	0.442075	25.9095	-4.12047	-43.9763
 128	1	5	0.128262	26.0892	-4.98725	-41.39
 129	1	3	-0.434358	25.8575	-5.22684	-38.7211
 130	1	8	0.354457	25.6675	-5.90777	-39.4325
 131	1	1	-0.233188	25.9834	-3.90876	-41.4255
 132	1	5	0.143867	22.726	-7.50143	-35.3498
 133	1	9	-0.2502	24.6995	-5.08255	-44.0238
 134	1	9	-0.249785	27.2169	-4.95144	-44.0175
 135	1	9	-0.32829	25.8792	-3.2659	-45.2693
 136	1	10	0.056572	27.2941	-5.52063	-44.9523
 137	1	10	0.044267	27.2696	-5.67104	-43.1925
 138	1	10	0.051935	28.0938	-4.29519	-43.9482
 139	1	10	0.069302	24.9384	-2.70927	-45.3557
 140	1	10	0.077707	25.9656	-3.90101	-46.1598
 141	1	10	0.059383	26.7133	-2.55294	-45.2881
 142	1	10	0.048889	24.7091	-5.68448	-44.9411
 143	1	10	0.055177	23.758	-4.51978	-43.9962
 144	1	10	0.04962	24.7036	-5.77266	-43.1718
 145	1	1	0.438909	16.6554	-8.38399	-19.9519
 146	1	1	0.108796	17.582	-9.38821	-19.8982
 147	1	2	-0.726889	16.2253	-8.05061	-18.7229
 148	1	3	-0.675747	17.7865	-9.70277	-18.5882
 149	1	1	-0.43042	25.3515	-10.2553	-28.3985
 150	1	4	0.62373	16.8589	-8.90482	-17.9037
 151	1	1	0.00157	22.9203	-10.8711	-27.1267
 152	1	5	0.178696	17.721	-10.3848	-26.9629
 153	1	2	-0.592725	20.4333	-10.9483	-27.0031
 154	1	6	-0.000174	17.7276	-9.47804	-22.308
 155	1	5	0.1602	20.2698	-10.4357	-22.66
 156	1	4	0.461284	21.6392	-11.0221	-26.4136
 157	1	1	-0.167191	16.7937	-8.39961	-22.3521
 158	1	5	0.164364	18.8383	-10.7921	-20.9531
 159	1	1	-0.325009	16.2479	-7.84771	-21.1717
 160	1	8	0.422373	18.2599	-10.5079	-18.2227
 161	1	1	-0.217421	18.1375	-9.96924	-21.0376
 162	1	5	0.173851	22.0246	-10.577	-29.0707
 163	1	5	0.197073	26.2753	-10.0011	-28.8988
 164	1	6	0.024852	18.3198	-10.0365	-23.5623
 165	1	1	0.048807	20.2469	-10.8381	-24.7691
 166	1	1	0.060532	25.3664	-10.5732	-27.0231
 167	1	5	0.140008	16.5724	-9.72591	-24.8253
 168	1	5	0.202663	15.5274	-7.03538	-21.1924
 169	1	1	-0.222969	19.6657	-10.4771	-23.5573
 170	1	1	0.35235	19.5863	-10.7931	-25.9639
 171	1	1	0.269742	24.156	-10.256	-29.1538
 172	1	1	-0.166682	17.6074	-10.055	-24.7998
 173	1	1	-0.277787	18.2343	-10.442	-26.0088
 174	1	1	-0.312482	22.9566	-10.6096	-28.5085
 175	1	9	0.442075	26.6614	-10.5569	-26.1648
 176	1	5	0.128262	24.1178	-11.0767	-25.3475
 177	1	3	-0.434358	21.5626	-11.0381	-25.0207
 178	1	8	0.354457	22.3165	-10.811	-24.3884
 179	1	1	-0.233188	24.1335	-10.8687	-26.4106
 180	1	5	0.143867	16.5043	-7.98034	-23.3131
 181	1	9	-0.2502	26.9064	-11.9586	-25.556
 182	1	9	-0.249785	26.528	-9.51855	-25.0243
 183	1	9	-0.32829	27.9294	-10.1786	-26.9728
 184	1	10	0.056572	27.4323	-9.4927	-24.4039
 185	1	10	0.044267	25.6831	-9.74501	-24.3671
 186	1	10	0.051935	26.3662	-8.51378	-25.4338
 187	1	10	0.069302	28.1087	-10.8944	-27.7847
 188	1	10	0.077707	28.8173	-10.1812	-26.3284
 189	1	10	0.059383	27.8381	-9.17342	-27.4029
 190	1	10	0.048889	27.8241	-11.9745	-24.9549
 191	1	10	0.055177	27.0087	-12.7094	-26.3499
 192	1	10	0.04962	26.0788	-12.2688	-24.9083
 193	1	1	0.438909	6.74889	-6.1067	-9.31773
 194	1	1	0.108796	6.536	-6.63066	-10.5642
 195	1	2	-0.726889	5.6018	-6.04095	-8.60582
 196	1	3	-0.675747	5.22386	-6.96939	-10.6536
 197	1	1	-0.43042	17.2963	-9.88754	-15.6113
 198	1	4	0.62373	4.68433	-6.60512	-9.41378
 199	1	1	0.00157	15.0972	-8.4803	-14.5561
 200	1	5	0.178696	10.6864	-5.85678	-15.4659
 201	1	2	-0.592725	13.03	-7.16706	-14.8683
 202	1	6	-0.000174	8.8639	-6.41517	-11.1525
 203	1	5	0.1602	11.3541	-7.58759	-10.8031
 204	1	4	0.461284	13.8577	-7.84871	-14.0656
 205	1	1	-0.167191	9.09821	-5.92819	-9.83343
 206	1	5	0.164364	7.32939	-7.18999	-12.4998
 207	1	1	-0.325009	8.03725	-5.74539	-8.91321
 208	1	8	0.422373	4.74168	-7.37178	-11.4354
 209	1	1	-0.217421	7.54307	-6.78064	-11.5179
 210	1	5	0.173851	14.88	-7.68261	-16.5496
 211	1	5	0.197073	18.1242	-10.4357	-16.0403
 212	1	6	0.024852	9.97177	-6.55067	-12.143
 213	1	1	0.048807	12.1618	-7.32751	-12.8007
 214	1	1	0.060532	16.9766	-10.0452	-14.2412
 215	1	5	0.140008	8.86943	-5.57492	-13.7448
 216	1	5	0.202663	8.20343	-5.36688	-7.90955
 217	1	1	-0.222969	11.1943	-7.18735	-11.7986
 218	1	1	0.35235	11.985	-6.86438	-14.077
 219	1	1	0.269742	16.559	-9.02566	-16.4537
 220	1	1	-0.166682	9.7972	-6.07208	-13.4747
 221	1	1	-0.277787	10.807	-6.21781	-14.4498
 222	1	1	-0.312482	15.4797	-8.3194	-15.8989
 223	1	9	0.442075	17.7619	-11.0065	-13.3031
 224	1	5	0.128262	15.6062	-9.42554	-12.6912
 225	1	3	-0.434358	13.3699	-7.95989	-12.7597
 226	1	8	0.354457	13.7671	-8.48352	-12.0024
 227	1	1	-0.233188	15.8825	-9.3103	-13.7327
 228	1	5	0.143867	10.1136	-5.6814	-9.53907
 229	1	9	-0.2502	18.5764	-10.1823	-12.281
 230	1	9	-0.249785	18.7493	-11.9299	-14.0641
 231	1	9	-0.32829	16.7907	-11.9365	-12.5337
 232	1	10	0.056572	19.2425	-12.6286	-13.3763
 233	1	10	0.044267	19.5392	-11.3519	-14.5591
 234	1	10	0.051935	18.2236	-12.5266	-14.8205
 235	1	10	0.069302	16.1507	-11.3798	-11.8406
 236	1	10	0.077707	17.3413	-12.6752	-11.9382
 237	1	10	0.059383	16.1422	-12.4817	-13.2312
 238	1	10	0.048889	19.144	-10.8374	-11.6079
 239	1	10	0.055177	17.9191	-9.55746	-11.6662
 240	1	10	0.04962	19.2879	-9.52286	-12.7937
 241	1	1	0.438909	-5.66441	-2.15693	-1.87694
 242	1	1	0.108796	-4.57048	-2.22875	-1.05721
 243	1	2	-0.726889	-6.71582	-1.58301	-1.26687
 244	1	3	-0.675747	-4.92748	-1.6773	0.141284
 245	1	1	-0.43042	2.42161	-7.60293	-9.88518
 246	1	4	0.62373	-6.26102	-1.27192	-0.0426368
 247	1	1	0.00157	1.35341	-6.47586	-7.54404
 248	1	5	0.178696	1.49252	-3.29394	-3.31905
 249	1	2	-0.592725	1.40424	-5.04317	-5.49356
 250	1	6	-0.000174	-3.23154	-3.21996	-2.81783
 251	1	5	0.1602	-2.93067	-5.13421	-4.77039
 252	1	4	0.461284	0.750464	-5.84198	-6.35609
 253	1	1	-0.167191	-4.38279	-3.12562	-3.6597
 254	1	5	0.164364	-2.49182	-2.7904	-0.800102
 255	1	1	-0.325009	-5.60656	-2.60233	-3.19364
 256	1	8	0.422373	-4.35382	-1.52699	0.948837
 257	1	1	-0.217421	-3.33832	-2.75064	-1.47617
 258	1	5	0.173851	3.34952	-5.71118	-7.20716
 259	1	5	0.197073	2.84803	-8.06868	-10.764
 260	1	6	0.024852	-1.94831	-3.76062	-3.37888
 261	1	1	0.048807	-0.790745	-5.12085	-5.00677
 262	1	1	0.060532	1.07365	-7.86831	-9.56414
 263	1	5	0.140008	-0.608634	-2.51882	-2.19205
 264	1	5	0.202663	-6.47825	-2.51058	-3.83193
 265	1	1	-0.222969	-1.9899	-4.72733	-4.41723
 266	1	1	0.35235	0.42973	-4.61963	-4.65088
 267	1	1	0.269742	3.25985	-6.82889	-9.05057
 268	1	1	-0.166682	-0.668082	-3.28027	-2.96411
 269	1	1	-0.277787	0.527551	-3.70723	-3.59483
 270	1	1	-0.312482	2.71075	-6.29202	-7.8697
 271	1	9	0.442075	0.226348	-8.84426	-10.4329
 272	1	5	0.128262	-0.473137	-7.44605	-8.12402
 273	1	3	-0.434358	-0.611129	-5.93279	-6.07614
 274	1	8	0.354457	-1.31458	-6.38642	-6.63043
 275	1	1	-0.233188	0.559561	-7.27182	-8.3953
 276	1	5	0.143867	-4.31455	-3.4259	-4.70191
 277	1	9	-0.2502	0.437629	-8.57553	-11.9437
 278	1	9	-0.249785	-1.2969	-8.75013	-10.1536
 279	1	9	-0.32829	0.666879	-10.2944	-10.1317
 280	1	10	0.056572	-1.86501	-9.38071	-10.8485
 281	1	10	0.044267	-1.65457	-7.72023	-10.2674
 282	1	10	0.051935	-1.53973	-9.09208	-9.14008
 283	1	10	0.069302	1.73048	-10.4375	-10.358
 284	1	10	0.077707	0.0931756	-11.0148	-10.7277
 285	1	10	0.059383	0.516982	-10.5325	-9.07102
 286	1	10	0.048889	0.283351	-7.51568	-12.1682
 287	1	10	0.055177	-0.26568	-9.15616	-12.5539
 288	1	10	0.04962	1.44657	-8.84763	-12.2725
 289	1	1	0.438909	-16.8485	6.8426	-0.556599
 290	1	1	0.108796	-16.6729	6.29111	0.684468
 291	1	2	-0.726889	-17.7586	7.82887	-0.545118
 292	1	3	-0.675747	-17.5043	6.95575	1.54425
 293	1	1	-0.43042	-6.55148	-0.155283	2.21604
 294	1	4	0.62373	-18.1792	7.88177	0.728523
 295	1	1	0.00157	-9.15898	0.663862	1.51671
 296	1	5	0.178696	-13.0149	0.853795	-1.98652
 297	1	2	-0.592725	-11.0936	0.733766	-0.0273999
 298	1	6	-0.000174	-15.1049	4.66935	-0.195825
 299	1	5	0.1602	-13.2555	4.10914	1.82154
 300	1	4	0.461284	-10.4972	1.13511	1.10398
 301	1	1	-0.167191	-15.291	5.27073	-1.47706
 302	1	5	0.164364	-15.7084	4.77574	1.90635
 303	1	1	-0.325009	-16.1627	6.3613	-1.66664
 304	1	8	0.422373	-17.6758	6.75486	2.50973
 305	1	1	-0.217421	-15.8103	5.20959	0.918062
 306	1	5	0.173851	-8.80385	-0.407949	-0.321199
 307	1	5	0.197073	-5.54724	-0.471211	2.46286
 308	1	6	0.024852	-14.1687	3.50642	-0.0728414
 309	1	1	0.048807	-12.2995	2.36147	0.957159
 310	1	1	0.060532	-7.29919	0.618964	3.13612
 311	1	5	0.140008	-14.797	2.61647	-1.95842
 312	1	5	0.202663	-16.3194	6.81602	-2.63851
 313	1	1	-0.222969	-13.2589	3.38438	1.01506
 314	1	1	0.35235	-12.1962	1.50098	-0.103547
 315	1	1	0.269742	-7.07496	-0.526119	0.957155
 316	1	1	-0.166682	-14.0976	2.54964	-1.12912
 317	1	1	-0.277787	-13.1097	1.54441	-1.15519
 318	1	1	-0.312482	-8.39025	-0.132197	0.647517
 319	1	9	0.442075	-6.753	1.02155	4.53482
 320	1	5	0.128262	-9.18648	1.62248	3.44255
 321	1	3	-0.434358	-11.242	2.10664	1.78449
 322	1	8	0.354457	-10.9568	2.61704	2.59916
 323	1	1	-0.233188	-8.5954	1.02974	2.75391
 324	1	5	0.143867	-14.7389	4.88926	-2.33253
 325	1	9	-0.2502	-7.58958	0.3264	5.63448
 326	1	9	-0.249785	-6.83691	2.5561	4.72991
 327	1	9	-0.32829	-5.27195	0.619299	4.75391
 328	1	10	0.056572	-6.29	3.07674	3.93392
 329	1	10	0.044267	-6.40165	2.85573	5.69167
 330	1	10	0.051935	-7.87293	2.91272	4.71755
 331	1	10	0.069302	-4.62338	1.08359	4.00053
 332	1	10	0.077707	-5.1462	-0.469161	4.70568
 333	1	10	0.059383	-4.919	0.944671	5.74071
 334	1	10	0.048889	-7.21727	0.580264	6.63492
 335	1	10	0.055177	-7.54409	-0.764278	5.52246
 336	1	10	0.04962	-8.64361	0.62453	5.58367
 337	1	1	0.438909	-22.7661	7.80905	12.629
 338	1	1	0.108796	-21.7006	8.52716	12.155
 339	1	2	-0.726889	-22.6061	7.47604	13.9226
 340	1	3	-0.675747	-20.824	8.69373	13.1857
 341	1	1	-0.43042	-19.9221	9.60856	0.211615
 342	1	4	0.62373	-21.4225	8.01921	14.2588
 343	1	1	0.00157	-20.8555	9.61747	2.85626
 344	1	5	0.178696	-24.6029	10.9005	6.27128
 345	1	2	-0.592725	-22.5418	10.2468	4.55953
 346	1	6	-0.000174	-22.6959	8.67826	9.96364
 347	1	5	0.1602	-20.773	8.18835	8.04655
 348	1	4	0.461284	-21.3997	9.62435	4.22953
 349	1	1	-0.167191	-23.813	7.95324	10.4705
 350	1	5	0.164364	-20.7552	9.53822	10.4842
 351	1	1	-0.325009	-23.8495	7.50073	11.8076
 352	1	8	0.422373	-19.9576	9.19683	13.1906
 353	1	1	-0.217421	-21.6102	8.96873	10.8318
 354	1	5	0.173851	-19.2666	8.19881	3.2373
 355	1	5	0.197073	-19.5667	9.57812	-0.815207
 356	1	6	0.024852	-22.6797	9.13004	8.54495
 357	1	1	0.048807	-21.6704	9.21201	6.3542
 358	1	1	0.060532	-21.0178	10.4325	0.532219
 359	1	5	0.140008	-24.5977	10.1428	8.67544
 360	1	5	0.202663	-24.6857	6.9356	12.204
 361	1	1	-0.222969	-21.6013	8.78899	7.68631
 362	1	1	0.35235	-22.7058	9.96184	5.86456
 363	1	1	0.269742	-19.2805	8.7863	1.16119
 364	1	1	-0.166682	-23.7677	9.88562	8.02169
 365	1	1	-0.277787	-23.7814	10.3207	6.67889
 366	1	1	-0.312482	-19.7435	8.82414	2.49481
 367	1	9	0.442075	-21.6921	11.2951	-0.571572
 368	1	5	0.128262	-22.3347	11.0007	2.15187
 369	1	3	-0.434358	-20.8168	8.96786	5.31869
 370	1	8	0.354457	-19.9628	8.44498	5.33052
 371	1	1	-0.233188	-21.4782	10.4004	1.86317
 372	1	5	0.143867	-24.6438	7.72748	9.80541
 373	1	9	-0.2502	-22.7951	12.2416	-0.0317963
 374	1	9	-0.249785	-22.3431	10.3688	-1.62583
 375	1	9	-0.32829	-20.6389	12.1871	-1.27515
 376	1	10	0.056572	-23.0973	9.72375	-1.15811
 377	1	10	0.044267	-21.5972	9.72147	-2.10288
 378	1	10	0.051935	-22.8352	10.9512	-2.41468
 379	1	10	0.069302	-20.1305	12.8301	-0.546077
 380	1	10	0.077707	-21.1082	12.8319	-2.02825
 381	1	10	0.059383	-19.8762	11.5885	-1.78638
 382	1	10	0.048889	-23.6235	11.6746	0.411103
 383	1	10	0.055177	-23.2145	12.8566	-0.837919
 384	1	10	0.04962	-22.3921	12.921	0.729878
 385	1	1	0.438909	-28.4356	1.92443	22.3524
 386	1	1	0.108796	-27.7565	2.63958	23.3008
 387	1	2	-0.726889	-29.611	1.46623	22.818
 388	1	3	-0.675747	-28.5135	2.63767	24.4347
 389	1	1	-0.43042	-19.6199	8.52136	15.9764
 390	1	4	0.62373	-29.6557	1.89943	24.0892
 391	1	1	0.00157	-20.9938	6.98164	17.8938
 392	1	5	0.178696	-21.7104	5.00391	22.7325
 393	1	2	-0.592725	-21.3467	5.98728	20.1604
 394	1	6	-0.000174	-25.9611	3.12464	21.7546
 395	1	5	0.1602	-25.2636	4.167	19.3024
 396	1	4	0.461284	-21.7358	6.18584	18.8894
 397	1	1	-0.167191	-26.6656	2.34736	20.7843
 398	1	5	0.164364	-26.0446	3.85667	23.8179
 399	1	1	-0.325009	-27.9093	1.74584	21.0755
 400	1	8	0.422373	-28.3193	3.08413	25.3103
 401	1	1	-0.217421	-26.5275	3.25905	23.0532
 402	1	5	0.173851	-22.4339	6.65721	16.3119
 403	1	5	0.197073	-19.1144	9.13106	15.24
 404	1	6	0.024852	-24.6901	3.82884	21.3878
 405	1	1	0.048807	-23.3287	4.99623	19.7693
 406	1	1	0.060532	-19.0648	8.38749	17.2721
 407	1	5	0.140008	-23.7792	3.72387	23.3639
 408	1	5	0.202663	-28.4591	1.16418	20.3439
 409	1	1	-0.222969	-24.5023	4.30221	20.0625
 410	1	1	0.35235	-22.3516	5.25412	20.6903
 411	1	1	0.269742	-20.835	7.89736	15.6184
 412	1	1	-0.166682	-23.6627	4.08607	22.3466
 413	1	1	-0.277787	-22.4877	4.79801	22.0046
 414	1	1	-0.312482	-21.5015	7.13545	16.5919
 415	1	9	0.442075	-17.7376	9.10668	17.6473
 416	1	5	0.128262	-19.4069	7.49995	19.2281
 417	1	3	-0.434358	-22.9554	5.57277	18.5995
 418	1	8	0.354457	-23.4575	5.59953	17.7308
 419	1	1	-0.233188	-19.7796	7.61513	18.2155
 420	1	5	0.143867	-26.2396	2.20898	19.7944
 421	1	9	-0.2502	-18.0353	10.5856	17.9831
 422	1	9	-0.249785	-16.7283	9.05507	16.4704
 423	1	9	-0.32829	-17.0238	8.47286	18.8694
 424	1	10	0.056572	-17.0358	9.70037	15.64
 425	1	10	0.044267	-16.6238	8.02971	16.0942
 426	1	10	0.051935	-15.738	9.39375	16.7896
 427	1	10	0.069302	-16.8604	7.39927	18.7119
 428	1	10	0.077707	-17.6089	8.60312	19.7877
 429	1	10	0.059383	-16.0477	8.94127	19.0467
 430	1	10	0.048889	-18.5045	11.0959	17.133
 431	1	10	0.055177	-17.1157	11.1262	18.2404
 432	1	10	0.04962	-18.7219	10.6574	18.8364
 433	1	1	0.438909	-41.7696	-4.39406	24.229
 434	1	1	0.108796	-40.8634	-4.7771	23.2793
 435	1	2	-0.726889	-42.8922	-5.13929	24.176
 436	1	3	-0.675747	-41.4048	-5.8152	22.5857
 437	1	1	-0.43042	-30.7557	2.00498	26.3689
 438	1	4	0.62373	-42.6666	-6.00041	23.166
 439	1	1	0.00157	-32.9904	0.589085	25.3945
 440	1	5	0.178696	-35.6039	-1.56701	21.4094
 441	1	2	-0.592725	-34.2882	-0.466016	23.5642
 442	1	6	-0.000174	-39.2923	-3.06909	23.9654
 443	1	5	0.1602	-37.7548	-1.82733	25.93
 444	1	4	0.461284	-34.1617	-0.131606	24.8575
 445	1	1	-0.167191	-40.2408	-2.68138	24.9614
 446	1	5	0.164364	-38.9361	-4.5074	22.3499
 447	1	1	-0.325009	-41.4851	-3.34091	25.0988
 448	1	8	0.422373	-41.0088	-6.32321	21.8159
 449	1	1	-0.217421	-39.6257	-4.15474	23.1081
 450	1	5	0.173851	-31.9495	0.608345	23.5051
 451	1	5	0.197073	-29.8875	2.5419	26.7257
 452	1	6	0.024852	-37.9787	-2.35875	23.8166
 453	1	1	0.048807	-36.087	-1.15074	24.7288
 454	1	1	0.060532	-31.8087	1.68923	27.2601
 455	1	5	0.140008	-37.8354	-2.67837	21.6644
 456	1	5	0.202663	-42.2166	-3.04652	25.8429
 457	1	1	-0.222969	-37.3243	-1.77198	24.9366
 458	1	1	0.35235	-35.4803	-1.08899	23.5042
 459	1	1	0.269742	-30.784	1.60815	25.013
 460	1	1	-0.166682	-37.3435	-2.26688	22.5405
 461	1	1	-0.277787	-36.0914	-1.6359	22.3762
 462	1	1	-0.312482	-31.9129	0.910045	24.5506
 463	1	9	0.442075	-31.7797	2.07615	28.7658
 464	1	5	0.128262	-33.7285	0.717344	27.414
 465	1	3	-0.434358	-35.2607	-0.535051	25.6228
 466	1	8	0.354457	-35.3918	-0.409314	26.609
 467	1	1	-0.233188	-32.9128	0.973183	26.7478
 468	1	5	0.143867	-40.0172	-1.8432	25.6154
 469	1	9	-0.2502	-31.7587	0.79439	29.6323
 470	1	9	-0.249785	-33.0298	2.91333	29.1324
 471	1	9	-0.32829	-30.5391	2.91845	29.1601
 472	1	10	0.056572	-33.9558	2.34671	28.9832
 473	1	10	0.044267	-33.0843	3.81803	28.5138
 474	1	10	0.051935	-33.0014	3.22406	30.1844
 475	1	10	0.069302	-29.6105	2.36055	28.9876
 476	1	10	0.077707	-30.568	3.18316	30.2245
 477	1	10	0.059383	-30.4998	3.85385	28.5879
 478	1	10	0.048889	-31.7124	1.03939	30.7008
 479	1	10	0.055177	-30.8842	0.178359	29.3875
 480	1	10	0.04962	-32.6549	0.184411	29.4686
 481	1	1	0.438909	-44.7363	-15.5268	13.6167
 482	1	1	0.108796	-43.8388	-14.5392	13.3154
 483	1	2	-0.726889	-45.0524	-16.2633	12.5333
 484	1	3	-0.675747	-43.5446	-14.6417	11.9897
 485	1	1	-0.43042	-44.9132	-7.14189	23.3203
 486	1	4	0.62373	-44.3349	-15.7087	11.5394
 487	1	1	0.00157	-44.2601	-8.85329	21.1899
 488	1	5	0.178696	-40.9296	-10.5258	17.4922
 489	1	2	-0.592725	-42.7234	-9.70737	19.4329
 490	1	6	-0.000174	-43.9092	-13.6735	15.5742
 491	1	5	0.1602	-45.4468	-12.6884	17.6585
 492	1	4	0.461284	-43.9075	-9.74389	20.0669
 493	1	1	-0.167191	-44.825	-14.7257	15.8846
 494	1	5	0.164364	-42.7268	-12.7998	13.9486
 495	1	1	-0.325009	-45.2455	-15.6573	14.9079
 496	1	8	0.422373	-42.9493	-14.0516	11.4376
 497	1	1	-0.217421	-43.4017	-13.5939	14.2471
 498	1	5	0.173851	-42.3763	-7.8235	21.1563
 499	1	5	0.197073	-45.1461	-6.46958	24.1424
 500	1	6	0.024852	-43.5283	-12.651	16.6038
 501	1	1	0.048807	-44.0629	-11.2679	18.5175
 502	1	1	0.060532	-45.8697	-8.08913	22.8961
 503	1	5	0.140008	-41.5208	-12.3095	15.8292
 504	1	5	0.202663	-45.9529	-16.4486	15.1292
 505	1	1	-0.222969	-44.4523	-12.2591	17.6116
 506	1	1	0.35235	-42.841	-10.6543	18.4783
 507	1	1	0.269742	-43.648	-7.02036	22.7104
 508	1	1	-0.166682	-42.2496	-12.0152	16.5788
 509	1	1	-0.277787	-41.8976	-11.0148	17.5139
 510	1	1	-0.312482	-43.3414	-7.89055	21.6466
 511	1	9	0.442075	-47.2491	-8.16814	23.6092
 512	1	5	0.128262	-46.222	-9.67869	21.4686
 513	1	3	-0.434358	-44.77	-10.7061	19.5361
 514	1	8	0.354457	-45.7067	-10.9113	19.8317
 515	1	1	-0.233188	-45.517	-8.93801	21.8227
 516	1	5	0.143867	-45.2101	-14.8189	16.8962
 517	1	9	-0.2502	-47.0475	-8.52228	25.102
 518	1	9	-0.249785	-48.1989	-9.2344	23.0034
 519	1	9	-0.32829	-47.9765	-6.8053	23.5132
 520	1	10	0.056572	-49.1598	-9.24868	23.5329
 521	1	10	0.044267	-47.7669	-10.24	23.0807
 522	1	10	0.051935	-48.408	-9.02195	21.9475
 523	1	10	0.069302	-47.4083	-6.01069	24.0108
 524	1	10	0.077707	-48.9649	-6.85095	23.9866
 525	1	10	0.059383	-48.1143	-6.51358	22.4646
 526	1	10	0.048889	-46.4517	-7.75968	25.6178
 527	1	10	0.055177	-46.5252	-9.48173	25.2037
 528	1	10	0.04962	-48.0094	-8.6017	25.6236
 529	1	1	0.438909	-39.1874	-12.8735	-0.773543
 530	1	1	0.108796	-40.4899	-12.62	-0.435657
 531	1	2	-0.726889	-38.9144	-12.4809	-2.03119
 532	1	3	-0.675747	-41.0892	-12.039	-1.51382
 533	1	1	-0.43042	-45.2856	-17.1827	9.72251
 534	1	4	0.62373	-40.064	-11.9386	-2.46762
 535	1	1	0.00157	-43.7227	-15.8883	7.77576
 536	1	5	0.178696	-39.8863	-12.5693	6.46033
 537	1	2	-0.592725	-41.9561	-14.295	7.07333
 538	1	6	-0.000174	-40.1205	-13.3828	1.82322
 539	1	5	0.1602	-42.1479	-15.0275	2.71513
 540	1	4	0.461284	-42.8887	-15.2107	6.76548
 541	1	1	-0.167191	-38.7676	-13.6487	1.46411
 542	1	5	0.164364	-42.0322	-12.619	1.09103
 543	1	1	-0.325009	-38.2938	-13.4059	0.155435
 544	1	8	0.422373	-42.0142	-11.6597	-1.57545
 545	1	1	-0.217421	-41.0057	-12.8641	0.841077
 546	1	5	0.173851	-42.9393	-14.7351	9.40904
 547	1	5	0.197073	-45.8768	-17.6575	10.5002
 548	1	6	0.024852	-40.5806	-13.5956	3.22359
 549	1	1	0.048807	-42.0208	-14.6433	4.84963
 550	1	1	0.060532	-45.4104	-17.5843	8.37296
 551	1	5	0.140008	-39.1179	-12.2387	4.08113
 552	1	5	0.202663	-37.2631	-13.5849	-0.130079
 553	1	1	-0.222969	-41.6535	-14.4786	3.50988
 554	1	1	0.35235	-41.4179	-13.9716	5.8798
 555	1	1	0.269742	-44.4123	-16.1488	10.1209
 556	1	1	-0.166682	-39.9398	-12.9164	4.29956
 557	1	1	-0.277787	-40.3632	-13.089	5.63626
 558	1	1	-0.312482	-43.6288	-15.5251	9.13145
 559	1	9	0.442075	-46.3658	-18.7219	7.91541
 560	1	5	0.128262	-44.6988	-17.2047	6.37544
 561	1	3	-0.434358	-42.9683	-15.4569	5.3924
 562	1	8	0.354457	-43.5783	-16.1016	4.9247
 563	1	1	-0.233188	-44.6228	-16.9103	7.41569
 564	1	5	0.143867	-38.0878	-14.0418	2.21684
 565	1	9	-0.2502	-47.3832	-18.1784	6.88228
 566	1	9	-0.249785	-47.1768	-19.3471	9.079
 567	1	9	-0.32829	-45.5517	-19.8629	7.25878
 568	1	10	0.056572	-46.5109	-19.7896	9.83051
 569	1	10	0.044267	-47.8386	-20.1433	8.71536
 570	1	10	0.051935	-47.8048	-18.594	9.57129
 571	1	10	0.069302	-44.8114	-20.2613	7.96396
 572	1	10	0.077707	-45.0151	-19.5153	6.36888
 573	1	10	0.059383	-46.2057	-20.6887	6.95176
 574	1	10	0.048889	-48.0865	-18.9616	6.57264
 575	1	10	0.055177	-46.8848	-17.8068	5.97977
 576	1	10	0.04962	-47.9643	-17.3525	7.31156
 577	1	1	0.438909	-32.1054	-6.78342	-12.1577
 578	1	1	0.108796	-31.7289	-8.04921	-11.8028
 579	1	2	-0.726889	-31.2305	-6.2249	-13.0154
 580	1	3	-0.675747	-30.5598	-8.32671	-12.4478
 581	1	1	-0.43042	-41.3961	-10.6022	-4.15968
 582	1	4	0.62373	-30.285	-7.16578	-13.1876
 583	1	1	0.00157	-39.1375	-10.4091	-5.83704
 584	1	5	0.178696	-34.0852	-11.3854	-6.78646
 585	1	2	-0.592725	-36.7681	-10.8869	-6.40356
 586	1	6	-0.000174	-33.6547	-8.30126	-10.3534
 587	1	5	0.1602	-36.3922	-8.15418	-9.84257
 588	1	4	0.461284	-37.9312	-10.2772	-6.67944
 589	1	1	-0.167191	-34.0339	-6.9761	-10.7314
 590	1	5	0.164364	-32.1318	-9.84548	-10.6726
 591	1	1	-0.325009	-33.2647	-6.21113	-11.6375
 592	1	8	0.422373	-30.028	-9.17391	-12.4184
 593	1	1	-0.217421	-32.4633	-8.84292	-10.916
 594	1	5	0.173851	-38.1566	-11.6295	-4.3534
 595	1	5	0.197073	-42.2456	-10.6709	-3.49458
 596	1	6	0.024852	-34.4646	-9.0758	-9.35237
 597	1	1	0.048807	-36.5445	-9.54806	-8.19745
 598	1	1	0.060532	-41.4958	-9.8598	-5.36095
 599	1	5	0.140008	-32.7706	-10.192	-8.55274
 600	1	5	0.202663	-33.5382	-5.2002	-11.9186
 601	1	1	-0.222969	-35.8634	-8.85181	-9.20324
 602	1	1	0.35235	-35.9256	-10.4219	-7.34689
 603	1	1	0.269742	-40.1939	-11.2392	-3.77506
 604	1	1	-0.166682	-33.8398	-10.02	-8.48138
 605	1	1	-0.277787	-34.564	-10.6972	-7.47494
 606	1	1	-0.312482	-39.0899	-11.1487	-4.64192
 607	1	9	0.442075	-42.791	-9.10962	-5.78394
 608	1	5	0.128262	-40.3926	-9.18321	-7.08563
 609	1	3	-0.434358	-37.8507	-9.46283	-7.81367
 610	1	8	0.354457	-38.5705	-8.87081	-8.18397
 611	1	1	-0.233188	-40.3457	-9.76818	-6.17458
 612	1	5	0.143867	-34.9175	-6.52433	-10.29
 613	1	9	-0.2502	-42.5361	-7.58371	-5.76373
 614	1	9	-0.249785	-43.9963	-9.39524	-4.85073
 615	1	9	-0.32829	-43.2196	-9.52469	-7.21305
 616	1	10	0.056572	-44.2237	-10.4682	-4.82048
 617	1	10	0.044267	-44.897	-8.87559	-5.20189
 618	1	10	0.051935	-43.7988	-9.04863	-3.82889
 619	1	10	0.069302	-43.3677	-10.6102	-7.27136
 620	1	10	0.077707	-42.4683	-9.24604	-7.96007
 621	1	10	0.059383	-44.1607	-9.03845	-7.49953
 622	1	10	0.048889	-42.2283	-7.25675	-4.76243
 623	1	10	0.055177	-43.4413	-7.02793	-6.03866
 624	1	10	0.04962	-41.7439	-7.30051	-6.46693
 625	1	1	0.438909	-21.1163	-15.9029	-13.453
 626	1	1	0.108796	-20.3665	-14.8951	-13.9932
 627	1	2	-0.726889	-20.3438	-16.8817	-12.9446
 628	1	3	-0.675747	-19.0544	-15.2424	-13.8645
 629	1	1	-0.43042	-28.9304	-5.78982	-14.8024
 630	1	4	0.62373	-19.0864	-16.4675	-13.1802