pySIMM System Object

1634 atoms
1803 bonds
3128 angles
4790 dihedrals
408 impropers

10 atom types
14 bond types
23 angle types
11 dihedral types
3 improper types

-170.933754 170.933754 xlo xhi
-170.933754 170.933754 ylo yhi
-170.933754 170.933754 zlo zhi

Masses

   1	12.01	# ca
   2	14.01	# nc
   3	14.01	# na
   4	12.01	# cd
   5	1.008	# ha
   6	12.01	# cp
   7	1.008	# h5
   8	1.008	# hn
   9	12.01	# c3
  10	1.008	# hc

Pair Coeffs

   1	0.086	3.3996695084235347	# ca
   2	0.17	3.249998523775958	# nc
   3	0.17	3.249998523775958	# na
   4	0.086	3.3996695084235347	# cd
   5	0.015	2.59964245953351	# ha
   6	0.086	3.3996695084235347	# cp
   7	0.015	2.421462715905442	# h5
   8	0.0157	1.069078461768407	# hn
   9	0.1094	3.3996695084235347	# c3
  10	0.0157	2.649532787749369	# hc

Bond Coeffs

   1	425.8	1.3802	# cd,na
   2	467.7	1.3517	# ca,nc
   3	345.8	1.086	# ca,ha
   4	351.8	1.0818	# cd,h5
   5	385.1	1.4555	# ca,cd
   6	351.4	1.4854	# cp,cp
   7	321.0	1.5156	# c3,ca
   8	525.4	1.3172	# cd,nc
   9	300.9	1.5375	# c3,c3
  10	330.6	1.0969	# c3,hc
  11	450.2	1.4058	# ca,cp
  12	420.5	1.384	# ca,na
  13	408.4	1.01	# hn,na
  14	461.1	1.3984	# ca,ca

Angle Coeffs

   1	66.72	118.38	# ca,cp,ca
   2	62.86	111.51	# c3,c3,c3
   3	66.26	120.69	# ca,ca,cp
   4	63.15	112.07	# c3,c3,ca
   5	67.4	113.15	# ca,na,cd
   6	46.34	109.8	# c3,c3,hc
   7	66.28	123.45	# ca,cd,na
   8	48.18	119.88	# ca,ca,ha
   9	67.6	123.24	# ca,cd,nc
  10	64.05	121.11	# ca,cp,cp
  11	46.75	125.5	# cd,na,hn
  12	66.62	120.02	# ca,ca,ca
  13	72.48	104.88	# ca,nc,cd
  14	74.9	112.22	# na,cd,nc
  15	46.63	125.54	# ca,na,hn
  16	65.02	120.79	# ca,ca,cd
  17	69.46	119.72	# ca,ca,nc
  18	47.98	119.86	# cp,ca,ha
  19	39.4	107.58	# hc,c3,hc
  20	63.53	120.77	# c3,ca,ca
  21	69.08	118.34	# ca,ca,na
  22	49.58	121.55	# h5,cd,na
  23	50.58	125.52	# h5,cd,nc

Dihedral Coeffs

   1	1	4.0	2	180	# X,ca,cd,X
   2	1	3.625	2	180	# X,ca,cp,X
   3	1	4.75	2	180	# X,cd,nc,X
   4	1	0.3	2	180	# X,ca,na,X
   5	1	3.625	2	180	# X,ca,ca,X
   6	1	1.7	2	180	# X,cd,na,X
   7	1	1.0	2	180	# X,cp,cp,X
   8	1	0.16	3	0	# hc,c3,c3,c3
   9	1	0.15555555555555556	3	0	# X,c3,c3,X
  10	1	0.0	2	0	# X,c3,ca,X
  11	1	4.8	2	180	# X,ca,nc,X

Improper Coeffs

   1	1.1	-1	2	# na,X,X,hn
   2	1.1	-1	2	# ca,ca,ca,c3
   3	1.1	-1	2	# ca,X,X,ha

Atoms

   1	1	1	0.438909	-23.054	-6.69688	-37.5214
   2	1	1	0.108796	-21.6926	-6.55866	-37.4875
   3	1	2	-0.726889	-23.4208	-7.98946	-37.588
   4	1	3	-0.675747	-21.1487	-7.80383	-37.5978
   5	1	1	-0.43042	-16.1436	3.14242	-32.9648
   6	1	4	0.62373	-22.2582	-8.66287	-37.6011
   7	1	1	0.00157	-17.8459	1.35787	-34.3303
   8	1	5	0.178696	-21.5064	0.46138	-37.9606
   9	1	2	-0.592725	-19.5606	0.84448	-36.0443
  10	1	6	-0.000174	-21.8775	-4.1741	-37.1566
  11	1	5	0.1602	-19.9246	-3.49925	-35.3205
  12	1	4	0.461284	-18.7433	0.440687	-35.0589
  13	1	1	-0.167191	-23.293	-4.32033	-37.248
  14	1	5	0.164364	-19.9786	-5.25602	-37.2279
  15	1	1	-0.325009	-23.8924	-5.58814	-37.4175
  16	1	8	0.422373	-20.1855	-8.06477	-37.5107
  17	1	1	-0.217421	-21.0591	-5.32898	-37.2829
  18	1	5	0.173851	-18.395	3.09069	-35.5088
  19	1	5	0.197073	-15.5112	3.86834	-32.468
  20	1	6	0.024852	-21.275	-2.83228	-36.9055
  21	1	1	0.048807	-19.7713	-1.36982	-35.7062
  22	1	1	0.060532	-16.1733	1.78739	-32.56
  23	1	5	0.140008	-22.491	-1.8162	-38.3932
  24	1	5	0.202663	-24.9681	-5.72251	-37.44
  25	1	1	-0.222969	-20.2691	-2.66053	-35.9163
  26	1	1	0.35235	-20.1938	-0.28222	-36.4226
  27	1	1	0.269742	-16.9394	3.60094	-34.0194
  28	1	1	-0.166682	-21.7231	-1.69226	-37.6338
  29	1	1	-0.277787	-21.1775	-0.410135	-37.4051
  30	1	1	-0.312482	-17.7836	2.71643	-34.6925
  31	1	9	0.442075	-15.326	1.25313	-31.3711
  32	1	5	0.128262	-17.092	-0.124988	-32.957
  33	1	3	-0.434358	-18.8429	-0.931414	-34.8091
  34	1	8	0.354457	-18.3421	-1.46061	-34.1196
  35	1	1	-0.233188	-17.0369	0.913393	-33.2617
  36	1	5	0.143867	-23.9258	-3.4428	-37.1378
  37	1	9	-0.2502	-14.3161	2.29627	-30.826
  38	1	9	-0.249785	-14.5066	0.00958299	-31.7979
  39	1	9	-0.32829	-16.2611	0.858192	-30.2049
  40	1	10	0.056572	-13.8679	0.246384	-32.6579
  41	1	10	0.044267	-15.1531	-0.82993	-32.0762
  42	1	10	0.051935	-13.8594	-0.334455	-30.981
  43	1	10	0.069302	-16.851	1.72329	-29.8765
  44	1	10	0.077707	-15.687	0.492667	-29.3443
  45	1	10	0.059383	-16.9609	0.0690379	-30.5037
  46	1	10	0.048889	-13.6311	2.62936	-31.6159
  47	1	10	0.055177	-13.7089	1.87196	-30.0164
  48	1	10	0.04962	-14.8325	3.17461	-30.4191
  49	1	1	0.438909	-29.0081	-18.0738	-31.0637
  50	1	1	0.108796	-29.7032	-16.9472	-31.4004
  51	1	2	-0.726889	-29.5538	-18.6981	-30.0023
  52	1	3	-0.675747	-30.7652	-16.8491	-30.5528
  53	1	1	-0.43042	-20.9221	-10.8125	-37.5719
  54	1	4	0.62373	-30.6153	-17.9373	-29.6813
  55	1	1	0.00157	-23.2391	-12.2704	-36.9122
  56	1	5	0.178696	-28.3589	-12.4554	-35.8157
  57	1	2	-0.592725	-25.6749	-12.4681	-36.4547
  58	1	6	-0.000174	-28.087	-16.3523	-33.1137
  59	1	5	0.1602	-25.487	-16.1981	-34.1529
  60	1	4	0.461284	-24.4385	-12.9906	-36.442
  61	1	1	-0.167191	-27.4047	-17.5687	-32.7873
  62	1	5	0.164364	-29.8369	-15.1431	-32.5521
  63	1	1	-0.325009	-27.8522	-18.427	-31.7561
  64	1	8	0.422373	-31.4371	-16.1091	-30.4867
  65	1	1	-0.217421	-29.2805	-16.0564	-32.3898
  66	1	5	0.173851	-24.2794	-10.4002	-37.1792
  67	1	5	0.197073	-20.0414	-10.2318	-37.8095
  68	1	6	0.024852	-27.5258	-15.3772	-34.122
  69	1	1	0.048807	-25.6658	-14.4418	-35.3772
  70	1	1	0.060532	-20.8138	-12.2072	-37.361
  71	1	5	0.140008	-29.3695	-14.2304	-34.3896
  72	1	5	0.202663	-27.3162	-19.3279	-31.4789
  73	1	1	-0.222969	-26.1595	-15.4378	-34.5278
  74	1	1	0.35235	-26.4176	-13.3813	-35.7979
  75	1	1	0.269742	-22.1649	-10.1431	-37.4997
  76	1	1	-0.166682	-28.3185	-14.3052	-34.6436
  77	1	1	-0.277787	-27.7693	-13.2968	-35.4673
  78	1	1	-0.312482	-23.3176	-10.9068	-37.2441
  79	1	9	0.442075	-19.4655	-12.972	-37.4913
  80	1	5	0.128262	-21.9114	-13.954	-36.7278
  81	1	3	-0.434358	-24.3951	-14.2462	-35.8299
  82	1	8	0.354457	-23.5742	-14.7819	-35.618
  83	1	1	-0.233188	-21.9797	-12.9	-36.9695
  84	1	5	0.143867	-26.5055	-17.8494	-33.3243
  85	1	9	-0.2502	-19.6484	-14.2769	-38.3092
  86	1	9	-0.249785	-18.9353	-13.331	-36.0851
  87	1	9	-0.32829	-18.3697	-12.1482	-38.2168
  88	1	10	0.056572	-17.9806	-13.8679	-36.1493
  89	1	10	0.044267	-19.6459	-13.9684	-35.5451
  90	1	10	0.051935	-18.7761	-12.424	-35.4887
  91	1	10	0.069302	-18.0836	-11.2621	-37.6382
  92	1	10	0.077707	-18.7172	-11.8254	-39.2065
  93	1	10	0.059383	-17.4603	-12.7449	-38.3621
  94	1	10	0.048889	-20.0922	-14.06	-39.2892
  95	1	10	0.055177	-20.2958	-14.9962	-37.7958
  96	1	10	0.04962	-18.6859	-14.7759	-38.4783
  97	1	1	0.438909	-30.3301	-24.2409	-17.6902
  98	1	1	0.108796	-29.7919	-25.0095	-18.6851
  99	1	2	-0.726889	-29.9743	-24.6854	-16.4711
 100	1	3	-0.675747	-29.0928	-26.0191	-18.0958
 101	1	1	-0.43042	-32.6414	-17.3999	-28.2616
 102	1	4	0.62373	-29.1675	-25.73	-16.7258
 103	1	1	0.00157	-31.9433	-19.4186	-26.4266
 104	1	5	0.178696	-28.5077	-22.9322	-24.6374
 105	1	2	-0.592725	-30.4171	-21.1724	-25.5592
 106	1	6	-0.000174	-30.5305	-23.4568	-20.39
 107	1	5	0.1602	-32.3813	-21.806	-21.6641
 108	1	4	0.461284	-31.5245	-20.4253	-25.4327
 109	1	1	-0.167191	-31.1331	-22.6904	-19.3443
 110	1	5	0.164364	-29.3757	-25.2786	-20.784
 111	1	1	-0.325009	-31.0355	-23.077	-17.9885
 112	1	8	0.422373	-28.4688	-26.6685	-18.5342
 113	1	1	-0.217421	-29.8563	-24.6597	-20.0359
 114	1	5	0.173851	-30.2894	-19.8085	-27.7579
 115	1	5	0.197073	-32.8917	-16.626	-28.9739
 116	1	6	0.024852	-30.5182	-22.9519	-21.8042
 117	1	1	0.048807	-31.4085	-21.5629	-23.5776
 118	1	1	0.060532	-33.4668	-17.612	-27.1322
 119	1	5	0.140008	-28.6217	-23.8942	-22.3311
 120	1	5	0.202663	-31.4287	-22.4666	-17.183
 121	1	1	-0.222969	-31.535	-22.0792	-22.2838
 122	1	1	0.35235	-30.3564	-21.8571	-24.4006
 123	1	1	0.269742	-31.4942	-18.1891	-28.5076
 124	1	1	-0.166682	-29.4342	-23.2658	-22.6813
 125	1	1	-0.277787	-29.3479	-22.7252	-23.9831
 126	1	1	-0.312482	-31.1795	-19.2048	-27.5881
 127	1	9	0.442075	-34.7398	-16.766	-26.8463
 128	1	5	0.128262	-33.6818	-18.7732	-25.3299
 129	1	3	-0.434358	-32.193	-20.6583	-24.2273
 130	1	8	0.354457	-33.0109	-20.1872	-23.8884
 131	1	1	-0.233188	-33.085	-18.6192	-26.2213
 132	1	5	0.143867	-31.6203	-21.7487	-19.5791
 133	1	9	-0.2502	-34.5265	-15.9167	-25.5712
 134	1	9	-0.249785	-35.9669	-17.6884	-26.6364
 135	1	9	-0.32829	-35.0985	-15.7929	-27.9988
 136	1	10	0.056572	-36.8813	-17.1005	-26.4877
 137	1	10	0.044267	-35.848	-18.3324	-25.7576
 138	1	10	0.051935	-36.1187	-18.3343	-27.5104
 139	1	10	0.069302	-34.3072	-15.0488	-28.1505
 140	1	10	0.077707	-36.0225	-15.245	-27.7751
 141	1	10	0.059383	-35.2554	-16.3376	-28.9384
 142	1	10	0.048889	-35.4072	-15.2986	-25.3557
 143	1	10	0.055177	-33.6643	-15.2488	-25.6919
 144	1	10	0.04962	-34.3404	-16.5496	-24.6954
 145	1	1	0.438909	-22.0632	-19.9702	-7.92475
 146	1	1	0.108796	-21.8825	-21.3237	-8.00229
 147	1	2	-0.726889	-20.9592	-19.3453	-7.49351
 148	1	3	-0.675747	-20.5964	-21.5919	-7.61994
 149	1	1	-0.43042	-27.4178	-27.4209	-16.045
 150	1	4	0.62373	-20.0682	-20.3276	-7.30314
 151	1	1	0.00157	-27.2586	-26.2583	-13.4881
 152	1	5	0.178696	-28.5571	-22.2825	-10.3995
 153	1	2	-0.592725	-27.9101	-24.5464	-11.8205
 154	1	6	-0.000174	-24.136	-21.6397	-8.84569
 155	1	5	0.1602	-23.9331	-24.1533	-10.0463
 156	1	4	0.461284	-27.0599	-25.4941	-12.2434
 157	1	1	-0.167191	-24.2944	-20.2202	-8.76336
 158	1	5	0.164364	-22.7045	-23.2625	-8.48165
 159	1	1	-0.325009	-23.2656	-19.3796	-8.29237
 160	1	8	0.422373	-20.2102	-22.4772	-7.35084
 161	1	1	-0.217421	-22.8838	-22.1954	-8.44539
 162	1	5	0.173851	-28.9289	-25.0508	-14.1255
 163	1	5	0.197073	-27.4739	-27.8341	-17.0423
 164	1	6	0.024852	-25.2294	-22.4925	-9.43132
 165	1	1	0.048807	-25.9567	-24.4151	-10.7187
 166	1	1	0.060532	-26.4513	-27.9058	-15.1341
 167	1	5	0.140008	-26.8508	-21.0772	-9.04081
 168	1	5	0.202663	-23.3749	-18.3014	-8.24204
 169	1	1	-0.222969	-24.9365	-23.7497	-10.0321
 170	1	1	0.35235	-27.2046	-23.8835	-10.8861
 171	1	1	0.269742	-28.3074	-26.3781	-15.7014
 172	1	1	-0.166682	-26.5755	-22.0149	-9.51169
 173	1	1	-0.277787	-27.5643	-22.6949	-10.2542
 174	1	1	-0.312482	-28.2664	-25.8733	-14.3904
 175	1	9	0.442075	-25.4706	-29.0595	-15.4828
 176	1	5	0.128262	-25.5887	-27.5805	-13.1817
 177	1	3	-0.434358	-25.8707	-25.5201	-11.5107
 178	1	8	0.354457	-25.0254	-26.0159	-11.7655
 179	1	1	-0.233188	-26.3635	-27.2735	-13.8759
 180	1	5	0.143867	-25.2114	-19.7514	-9.10564
 181	1	9	-0.2502	-25.6731	-30.2284	-14.4886
 182	1	9	-0.249785	-24.0063	-28.5643	-15.4074
 183	1	9	-0.32829	-25.6779	-29.6355	-16.9074
 184	1	10	0.056572	-23.3028	-29.3745	-15.6356
 185	1	10	0.044267	-23.7606	-28.1853	-14.4115
 186	1	10	0.051935	-23.8348	-27.7508	-16.123
 187	1	10	0.069302	-26.6948	-30.0291	-17.0294
 188	1	10	0.077707	-24.9808	-30.4606	-17.0997
 189	1	10	0.059383	-25.5024	-28.8699	-17.6731
 190	1	10	0.048889	-24.9942	-31.0614	-14.7092
 191	1	10	0.055177	-26.7022	-30.6055	-14.5445
 192	1	10	0.04962	-25.4924	-29.9145	-13.4553
 193	1	1	0.438909	-12.6008	-9.60705	-3.59973
 194	1	1	0.108796	-13.9298	-9.59671	-3.27854
 195	1	2	-0.726889	-11.9972	-8.45593	-3.23921
 196	1	3	-0.675747	-14.2021	-8.41684	-2.66262
 197	1	1	-0.43042	-17.7076	-21.0804	-6.72196
 198	1	4	0.62373	-12.9784	-7.73727	-2.66306
 199	1	1	0.00157	-17.0213	-18.4377	-6.03142
 200	1	5	0.178696	-18.4424	-13.446	-5.70024
 201	1	2	-0.592725	-17.6115	-16.0567	-5.78688
 202	1	6	-0.000174	-14.2714	-11.7814	-4.24764
 203	1	5	0.1602	-13.7142	-14.5134	-4.40741
 204	1	4	0.461284	-16.709	-17.0404	-5.67701
 205	1	1	-0.167191	-12.8747	-11.8068	-4.54532
 206	1	5	0.164364	-15.846	-10.5856	-3.30631
 207	1	1	-0.325009	-12.0301	-10.7149	-4.22889
 208	1	8	0.422373	-15.0787	-8.09694	-2.2981
 209	1	1	-0.217421	-14.799	-10.6427	-3.58161
 210	1	5	0.173851	-19.0488	-17.9631	-6.57904
 211	1	5	0.197073	-17.9747	-22.0886	-7.00998
 212	1	6	0.024852	-15.1808	-12.9027	-4.64435
 213	1	1	0.048807	-15.6448	-15.2382	-5.06984
 214	1	1	0.060532	-16.3893	-20.8064	-6.28231
 215	1	5	0.140008	-16.8888	-11.6008	-5.02645
 216	1	5	0.202663	-10.9683	-10.7147	-4.4515
 217	1	1	-0.222969	-14.7309	-14.2525	-4.67847
 218	1	1	0.35235	-16.9351	-14.9549	-5.42528
 219	1	1	0.269742	-18.6847	-20.0659	-6.82641
 220	1	1	-0.166682	-16.5325	-12.626	-5.01273
 221	1	1	-0.277787	-17.4192	-13.6493	-5.4032
 222	1	1	-0.312482	-18.309	-18.7577	-6.48931
 223	1	9	0.442075	-15.3253	-21.94	-6.24681
 224	1	5	0.128262	-15.0736	-19.2152	-5.60136
 225	1	3	-0.434358	-15.4736	-16.5857	-5.20304
 226	1	8	0.354457	-14.6467	-17.1247	-5.0339
 227	1	1	-0.233188	-16.0696	-19.471	-5.93878
 228	1	5	0.143867	-12.4578	-12.6739	-5.04746
 229	1	9	-0.2502	-14.046	-21.5584	-5.45792
 230	1	9	-0.249785	-14.9053	-22.2749	-7.69654
 231	1	9	-0.32829	-15.8933	-23.2221	-5.5868
 232	1	10	0.056572	-14.1534	-23.0738	-7.71636
 233	1	10	0.044267	-14.4772	-21.3932	-8.18979
 234	1	10	0.051935	-15.7659	-22.6059	-8.29036
 235	1	10	0.069302	-16.2852	-23.0005	-4.58627
 236	1	10	0.077707	-15.1147	-23.9881	-5.48142
 237	1	10	0.059383	-16.6999	-23.6675	-6.17902
 238	1	10	0.048889	-13.3524	-22.4067	-5.39688
 239	1	10	0.055177	-14.2945	-21.257	-4.43232
 240	1	10	0.04962	-13.5057	-20.7375	-5.94357
 241	1	1	0.438909	-3.95474	2.45615	-1.81432
 242	1	1	0.108796	-3.3791	1.22742	-1.98307
 243	1	2	-0.726889	-3.03737	3.44165	-1.81273
 244	1	3	-0.675747	-2.03363	1.41377	-2.08266
 245	1	1	-0.43042	-13.8542	-5.70337	-1.44809
 246	1	4	0.62373	-1.86679	2.80241	-1.97839
 247	1	1	0.00157	-11.3526	-4.44045	-1.64696
 248	1	5	0.178696	-6.414	-4.29166	-3.42924
 249	1	2	-0.592725	-9.00916	-4.30952	-2.45546
 250	1	6	-0.000174	-5.53202	0.119588	-1.93743
 251	1	5	0.1602	-8.08568	-0.294023	-0.911881
 252	1	4	0.461284	-10.0416	-3.78034	-1.77764
 253	1	1	-0.167191	-6.12003	1.4109	-1.75556
 254	1	5	0.164364	-3.60746	-0.90767	-2.1744
 255	1	1	-0.325009	-5.3356	2.58426	-1.6852
 256	1	8	0.422373	-1.32155	0.72537	-2.23353
 257	1	1	-0.217421	-4.11436	0.0413355	-2.04866
 258	1	5	0.173851	-10.7279	-6.23908	-2.67187
 259	1	5	0.197073	-14.8173	-6.19187	-1.37191
 260	1	6	0.024852	-6.38685	-1.11249	-2.03176
 261	1	1	0.048807	-8.46244	-2.29098	-1.62985
 262	1	1	0.060532	-13.693	-4.42634	-0.868298
 263	1	5	0.140008	-4.96361	-2.27736	-3.20906
 264	1	5	0.202663	-5.77537	3.56813	-1.56654
 265	1	1	-0.222969	-7.68866	-1.14189	-1.45829
 266	1	1	0.35235	-8.03144	-3.38827	-2.32188
 267	1	1	0.269742	-12.7942	-6.37775	-2.09339
 268	1	1	-0.166682	-5.93635	-2.27716	-2.72767
 269	1	1	-0.277787	-6.74918	-3.42351	-2.8695
 270	1	1	-0.312482	-11.5533	-5.72538	-2.18213
 271	1	9	0.442075	-14.89	-3.75644	-0.134047
 272	1	5	0.128262	-12.2695	-2.82184	-0.570897
 273	1	3	-0.434358	-9.75287	-2.51593	-1.26336
 274	1	8	0.354457	-10.3658	-1.91241	-0.74275
 275	1	1	-0.233188	-12.4285	-3.80768	-0.990448
 276	1	5	0.143867	-7.20023	1.51237	-1.70722
 277	1	9	-0.2502	-16.0322	-3.48907	-1.14241
 278	1	9	-0.249785	-14.5268	-2.40909	0.540379
 279	1	9	-0.32829	-15.4234	-4.68859	0.982488
 280	1	10	0.056572	-15.3942	-1.98609	1.06244
 281	1	10	0.044267	-14.1999	-1.66801	-0.197803
 282	1	10	0.051935	-13.7275	-2.54215	1.28022
 283	1	10	0.069302	-15.8113	-5.63011	0.578211
 284	1	10	0.077707	-16.2404	-4.21071	1.53738
 285	1	10	0.059383	-14.6264	-4.9315	1.69648
 286	1	10	0.048889	-15.6837	-2.84844	-1.9604
 287	1	10	0.055177	-16.8789	-2.98638	-0.657834
 288	1	10	0.04962	-16.4054	-4.42109	-1.58274
 289	1	1	0.438909	4.2189	14.673	-3.99669
 290	1	1	0.108796	4.40504	14.0755	-2.77908
 291	1	2	-0.726889	5.21889	15.5272	-4.28562
 292	1	3	-0.675747	5.53692	14.5954	-2.22853
 293	1	1	-0.43042	0.651755	2.76058	-2.18838
 294	1	4	0.62373	6.03751	15.4501	-3.22146
 295	1	1	0.00157	0.758163	5.57009	-2.03738
 296	1	5	0.178696	-1.53865	10.2569	-2.54263
 297	1	2	-0.592725	-0.272887	7.8348	-2.101
 298	1	6	-0.000174	2.52363	12.6097	-3.13612
 299	1	5	0.1602	3.4725	10.1268	-2.52563
 300	1	4	0.461284	0.81108	7.04387	-2.04585
 301	1	1	-0.167191	2.29398	13.2789	-4.37314
 302	1	5	0.164364	3.81597	12.5299	-1.37734
 303	1	1	-0.325009	3.15119	14.3108	-4.81855
 304	1	8	0.422373	5.9982	14.3021	-1.38999
 305	1	1	-0.217421	3.60585	13.0272	-2.31795
 306	1	5	0.173851	-1.39328	5.46932	-1.89354
 307	1	5	0.197073	0.591655	1.68341	-2.2556
 308	1	6	0.024852	1.72294	11.4087	-2.76967
 309	1	1	0.048807	1.60898	9.05609	-2.25581
 310	1	1	0.060532	1.91118	3.39994	-2.24798
 311	1	5	0.140008	-0.217166	12.3558	-3.014
 312	1	5	0.202663	3.03019	14.7846	-5.78638
 313	1	1	-0.222969	2.38998	10.1888	-2.49148
 314	1	1	0.35235	0.240473	9.07221	-2.26386
 315	1	1	0.269742	-0.55052	3.4904	-2.04388
 316	1	1	-0.166682	0.298274	11.4271	-2.78194
 317	1	1	-0.277787	-0.454168	10.2597	-2.5129
 318	1	1	-0.312482	-0.47288	4.89358	-1.97876
 319	1	9	0.442075	3.24426	2.6267	-2.45193
 320	1	5	0.128262	2.8923	5.31359	-2.2013
 321	1	3	-0.434358	2.00484	7.76569	-2.09738
 322	1	8	0.354457	2.93495	7.39267	-2.12797
 323	1	1	-0.233188	1.93669	4.80572	-2.14746
 324	1	5	0.143867	1.48441	12.9401	-5.016
 325	1	9	-0.2502	4.19022	2.86973	-1.25166
 326	1	9	-0.249785	3.93991	3.10981	-3.74858
 327	1	9	-0.32829	3.05043	1.09439	-2.58451
 328	1	10	0.056572	3.27889	2.97389	-4.61395
 329	1	10	0.044267	4.86303	2.54705	-3.93625
 330	1	10	0.051935	4.20691	4.17151	-3.69423
 331	1	10	0.069302	2.41551	0.851115	-3.44564
 332	1	10	0.077707	2.5938	0.674999	-1.6798
 333	1	10	0.059383	4.01291	0.588613	-2.73273
 334	1	10	0.048889	5.12983	2.31602	-1.37296
 335	1	10	0.055177	3.72061	2.53952	-0.316717
 336	1	10	0.04962	4.44287	3.93108	-1.1454
 337	1	1	0.438909	12.0434	17.7119	7.7238
 338	1	1	0.108796	11.6674	16.5145	7.17486
 339	1	2	-0.726889	12.1123	17.6459	9.069
 340	1	3	-0.675747	11.4813	15.6349	8.19464
 341	1	1	-0.43042	7.88277	16.7979	-4.27401
 342	1	4	0.62373	11.809	16.3652	9.34507
 343	1	1	0.00157	9.44439	16.6208	-1.94541
 344	1	5	0.178696	13.7323	18.0699	0.640733
 345	1	2	-0.592725	11.4972	17.1347	-0.659684
 346	1	6	-0.000174	11.9332	17.3625	4.93535
 347	1	5	0.1602	9.93952	16.2489	3.37209
 348	1	4	0.461284	10.2548	16.6327	-0.711229
 349	1	1	-0.167191	12.3169	18.6107	5.50991
 350	1	5	0.164364	11.3178	15.3183	5.40148
 351	1	1	-0.325009	12.3669	18.7971	6.90987
 352	1	8	0.422373	11.2734	14.6567	8.13738
 353	1	1	-0.217421	11.5891	16.2902	5.79835
 354	1	5	0.173851	7.76547	15.5528	-1.10891
 355	1	5	0.197073	7.25949	16.8664	-5.1619
 356	1	6	0.024852	11.9078	17.1954	3.45348
 357	1	1	0.048807	10.7836	16.5927	1.40218
 358	1	1	0.060532	9.18546	17.3381	-4.29333
 359	1	5	0.140008	13.8439	18.138	3.15305
 360	1	5	0.202663	12.6721	19.7369	7.35624
 361	1	1	-0.222969	10.79	16.6072	2.80208
 362	1	1	0.35235	11.8003	17.1175	0.650294
 363	1	1	0.269742	7.365	16.1164	-3.1538
 364	1	1	-0.166682	12.9821	17.6939	2.66132
 365	1	1	-0.277787	12.9391	17.6528	1.25203
 366	1	1	-0.312482	8.15676	16.0483	-1.98698
 367	1	9	0.442075	9.73228	18.0347	-5.57151
 368	1	5	0.128262	10.9426	17.6561	-3.06924
 369	1	3	-0.434358	9.78827	16.2256	0.543942
 370	1	8	0.354457	8.85542	15.9428	0.775436
 371	1	1	-0.233188	9.94645	17.2294	-3.11177
 372	1	5	0.143867	12.5711	19.4399	4.85328
 373	1	9	-0.2502	11.2465	18.3625	-5.4949
 374	1	9	-0.249785	8.97338	19.3615	-5.80354
 375	1	9	-0.32829	9.5371	17.1249	-6.81011
 376	1	10	0.056572	9.10364	20.0349	-4.94711
 377	1	10	0.044267	7.8985	19.186	-5.93335
 378	1	10	0.051935	9.34227	19.8759	-6.69969
 379	1	10	0.069302	10.0127	16.1495	-6.6488
 380	1	10	0.077707	9.98269	17.5763	-7.7049
 381	1	10	0.059383	8.47659	16.953	-7.02607
 382	1	10	0.048889	11.4596	19.0815	-4.69405
 383	1	10	0.055177	11.6018	18.8079	-6.43236
 384	1	10	0.04962	11.8353	17.4544	-5.31254
 385	1	1	0.438909	15.8359	23.2714	19.2927
 386	1	1	0.108796	15.2196	22.2857	20.0112
 387	1	2	-0.726889	16.1992	24.305	20.0802
 388	1	3	-0.675747	15.1906	22.6745	21.312
 389	1	1	-0.43042	11.6879	14.3812	10.8863
 390	1	4	0.62373	15.81	23.9305	21.3128
 391	1	1	0.00157	12.4577	15.9588	13.0854
 392	1	5	0.178696	13.8596	16.3032	18.1072
 393	1	2	-0.592725	13.0852	16.2228	15.4673
 394	1	6	-0.000174	14.9079	20.9152	18.0445
 395	1	5	0.1602	14.0364	20.5324	15.421
 396	1	4	0.461284	12.8838	16.7565	14.2527
 397	1	1	-0.167191	15.565	21.9435	17.2992
 398	1	5	0.164364	14.2287	20.3756	20.0583
 399	1	1	-0.325009	16.0303	23.129	17.9182
 400	1	8	0.422373	14.8218	22.1753	22.0986
 401	1	1	-0.217421	14.7355	21.1089	19.4424
 402	1	5	0.173851	12.4523	17.6021	11.6681
 403	1	5	0.197073	11.3965	13.7749	10.0398
 404	1	6	0.024852	14.4223	19.6541	17.391
 405	1	1	0.048807	13.5767	18.4187	15.4853
 406	1	1	0.060532	11.8902	13.7521	12.1324
 407	1	5	0.140008	14.6852	18.4134	19.1666
 408	1	5	0.202663	16.5339	23.9131	17.3637
 409	1	1	-0.222969	14.0186	19.6328	16.0258
 410	1	1	0.35235	13.5164	17.2596	16.2097
 411	1	1	0.269742	11.9058	15.7637	10.6995
 412	1	1	-0.166682	14.355	18.4347	18.1327
 413	1	1	-0.277787	13.8998	17.2329	17.5499
 414	1	1	-0.312482	12.2815	16.5398	11.8134
 415	1	9	0.442075	11.7401	12.2093	12.2617
 416	1	5	0.128262	12.4153	14.1314	14.2
 417	1	3	-0.434358	13.16	18.1277	14.2188
 418	1	8	0.354457	13.1196	18.7353	13.4205
 419	1	1	-0.233188	12.2572	14.5705	13.2204
 420	1	5	0.143867	15.7333	21.8087	16.2346
 421	1	9	-0.2502	12.581	11.4975	11.1695
 422	1	9	-0.249785	10.2572	11.8109	12.0825
 423	1	9	-0.32829	12.2183	11.6532	13.6266
 424	1	10	0.056572	9.87464	12.1297	11.1058
 425	1	10	0.044267	9.63538	12.2783	12.8563
 426	1	10	0.051935	10.1303	10.7234	12.1563
 427	1	10	0.069302	11.6105	12.0468	14.4506
 428	1	10	0.077707	13.2668	11.9205	13.8106
 429	1	10	0.059383	12.1423	10.5592	13.6579
 430	1	10	0.048889	12.2104	11.713	10.1613
 431	1	10	0.055177	12.5539	10.4085	11.2993
 432	1	10	0.04962	13.6297	11.8174	11.2211
 433	1	1	0.438909	18.1478	36.5865	25.4276
 434	1	1	0.108796	17.3136	35.5825	25.8315
 435	1	2	-0.726889	17.8021	37.7715	25.9924
 436	1	3	-0.675747	16.4049	36.1077	26.6775
 437	1	1	-0.43042	15.6371	24.2362	23.809
 438	1	4	0.62373	16.7124	37.4701	26.7283
 439	1	1	0.00157	16.7495	26.8149	23.6338
 440	1	5	0.178696	18.4134	30.9017	20.7877
 441	1	2	-0.592725	17.6425	28.7579	22.3592
 442	1	6	-0.000174	18.3595	33.9587	24.3956
 443	1	5	0.1602	17.8855	31.5938	25.7185
 444	1	4	0.461284	17.2901	28.1853	23.5224
 445	1	1	-0.167191	19.2461	34.9958	23.9689
 446	1	5	0.164364	16.6347	33.5476	25.6718
 447	1	1	-0.325009	19.1501	36.3154	24.4887
 448	1	8	0.422373	15.6013	35.6573	27.0748
 449	1	1	-0.217421	17.3695	34.2789	25.3551
 450	1	5	0.173851	16.8677	26.4242	21.5115
 451	1	5	0.197073	15.2062	23.2465	23.856
 452	1	6	0.024852	18.3646	32.5762	23.823
 453	1	1	0.048807	17.8609	30.2196	24.0514
 454	1	1	0.060532	15.8246	24.9744	24.9983
 455	1	5	0.140008	18.7537	33.1932	21.774
 456	1	5	0.202663	19.8041	37.1138	24.1567
 457	1	1	-0.222969	18.0344	31.4684	24.6517
 458	1	1	0.35235	17.9812	30.0177	22.7042
 459	1	1	0.269742	16.0128	24.7392	22.5435
 460	1	1	-0.166682	18.5377	32.3507	22.4258
 461	1	1	-0.277787	18.3427	31.0696	21.8571
 462	1	1	-0.312482	16.5805	26.0236	22.4825
 463	1	9	0.442075	15.4256	24.4086	26.3928
 464	1	5	0.128262	16.4769	26.8783	25.772
 465	1	3	-0.434358	17.4454	29.0487	24.6093
 466	1	8	0.354457	17.2378	28.8545	25.5709
 467	1	1	-0.233188	16.3634	26.2747	24.8798
 468	1	5	0.143867	20.0056	34.7684	23.2246
 469	1	9	-0.2502	14.1379	25.1076	26.884
 470	1	9	-0.249785	16.554	24.6407	27.4299
 471	1	9	-0.32829	15.1527	22.8805	26.3759
 472	1	10	0.056572	16.7164	25.7059	27.6267
 473	1	10	0.044267	17.4993	24.211	27.0751
 474	1	10	0.051935	16.3094	24.1699	28.3904
 475	1	10	0.069302	14.2763	22.6354	25.7641
 476	1	10	0.077707	14.9504	22.5054	27.387
 477	1	10	0.059383	16.0188	22.3313	25.9848
 478	1	10	0.048889	13.8212	24.7142	27.8583
 479	1	10	0.055177	13.318	24.9496	26.1719
 480	1	10	0.04962	14.2892	26.1887	26.9879
 481	1	1	0.438909	3.90913	36.6858	30.0645
 482	1	1	0.108796	4.51653	35.8396	29.1783
 483	1	2	-0.726889	2.57245	36.561	30.0316
 484	1	3	-0.675747	3.53487	35.1374	28.5354
 485	1	1	-0.43042	16.0541	39.8153	27.5307
 486	1	4	0.62373	2.34291	35.6238	29.0939
 487	1	1	0.00157	13.6974	38.7379	28.643
 488	1	5	0.178696	10.7975	34.4619	29.0467
 489	1	2	-0.592725	12.2675	36.7729	29.0206
 490	1	6	-0.000174	6.70437	36.6606	29.8143
 491	1	5	0.1602	8.46486	38.815	29.9131
 492	1	4	0.461284	12.4382	38.103	29.0856
 493	1	1	-0.167191	6.05607	37.542	30.7281
 494	1	5	0.164364	6.35475	35.119	28.2954
 495	1	1	-0.325009	4.65081	37.5567	30.8617
 496	1	8	0.422373	3.63241	34.45	27.8103
 497	1	1	-0.217421	5.90473	35.7885	29.0202
 498	1	5	0.173851	14.4837	36.8542	28.0324
 499	1	5	0.197073	16.9517	40.2109	27.0617
 500	1	6	0.024852	8.19399	36.6527	29.6899
 501	1	1	0.048807	10.3373	37.777	29.5709
 502	1	1	0.060532	15.1392	40.684	28.1797
 503	1	5	0.140008	8.3163	34.4965	29.4174
 504	1	5	0.202663	4.1425	38.2161	31.5559
 505	1	1	-0.222969	8.95193	37.8574	29.7638
 506	1	1	0.35235	10.9702	36.5929	29.3075
 507	1	1	0.269742	15.8349	38.4251	27.459
 508	1	1	-0.166682	8.87889	35.4252	29.4559
 509	1	1	-0.277787	10.2735	35.3866	29.2618
 510	1	1	-0.312482	14.6785	37.9173	28.0712
 511	1	9	0.442075	15.4489	42.206	28.2741
 512	1	5	0.128262	13.1897	40.757	29.1509
 513	1	3	-0.434358	11.2753	38.7714	29.4842
 514	1	8	0.354457	11.1331	39.7645	29.5218
 515	1	1	-0.233188	13.9413	40.1238	28.6958
 516	1	5	0.143867	6.65508	38.201	31.3513
 517	1	9	-0.2502	16.8539	42.4304	28.8878
 518	1	9	-0.249785	14.4423	42.9865	29.1601
 519	1	9	-0.32829	15.4148	42.839	26.8644
 520	1	10	0.056572	14.7285	44.0428	29.2414
 521	1	10	0.044267	14.4093	42.5731	30.1762
 522	1	10	0.051935	13.4312	42.9565	28.7363
 523	1	10	0.069302	16.1588	42.3765	26.2047
 524	1	10	0.077707	15.6282	43.9142	26.9097
 525	1	10	0.059383	14.4279	42.7063	26.404
 526	1	10	0.048889	17.6449	42.0104	28.2559
 527	1	10	0.055177	16.9237	41.9568	29.8751
 528	1	10	0.04962	17.0669	43.4999	29.0098
 529	1	1	0.438909	-5.59548	29.666	19.6889
 530	1	1	0.108796	-5.71763	30.8234	20.4067
 531	1	2	-0.726889	-6.56072	29.5608	18.7508
 532	1	3	-0.675747	-6.80266	31.4932	19.9313
 533	1	1	-0.43042	-0.138345	35.8028	29.3573
 534	1	4	0.62373	-7.27711	30.6924	18.8821
 535	1	1	0.00157	-0.610598	33.9258	27.3213
 536	1	5	0.178696	0.75729	30.8464	23.2385
 537	1	2	-0.592725	0.00758707	32.3807	25.4419
 538	1	6	-0.000174	-3.69565	30.3664	21.6578
 539	1	5	0.1602	-4.11314	31.7183	24.0184
 540	1	4	0.461284	-0.90784	32.9959	26.2118
 541	1	1	-0.167191	-3.57967	29.1528	20.9142
 542	1	5	0.164364	-4.91952	32.1661	21.8955
 543	1	1	-0.325009	-4.53193	28.7933	19.9286
 544	1	8	0.422373	-7.12509	32.4058	20.1878
 545	1	1	-0.217421	-4.80476	31.2156	21.3879
 546	1	5	0.173851	1.53425	33.7945	27.1605
 547	1	5	0.197073	0.0728891	36.5363	30.1291
 548	1	6	0.024852	-2.67054	30.7762	22.6738
 549	1	1	0.048807	-2.07679	31.9535	24.6991
 550	1	1	0.060532	-1.47053	35.4934	29.0237
 551	1	5	0.140008	-0.949613	29.9797	21.606
 552	1	5	0.202663	-4.44478	27.8824	19.3467
 553	1	1	-0.222969	-3.06799	31.505	23.8247
 554	1	1	0.35235	-0.739077	31.7464	24.5043
 555	1	1	0.269742	0.965411	35.2082	28.7087
 556	1	1	-0.166682	-1.27714	30.5187	22.4912
 557	1	1	-0.277787	-0.3036	31.005	23.4004
 558	1	1	-0.312482	0.709894	34.2595	27.692
 559	1	9	0.442075	-2.6916	36.1841	29.6907
 560	1	5	0.128262	-2.69669	34.3106	27.7292
 561	1	3	-0.434358	-2.21477	32.72	25.8083
 562	1	8	0.354457	-3.05924	33.0776	26.2136
 563	1	1	-0.233188	-1.67664	34.5459	28.0055
 564	1	5	0.143867	-2.74227	28.4875	21.1096
 565	1	9	-0.2502	-3.48304	36.9758	28.6213
 566	1	9	-0.249785	-2.29903	37.1811	30.8108
 567	1	9	-0.32829	-3.62574	35.1265	30.3269
 568	1	10	0.056572	-1.74345	36.6755	31.6107
 569	1	10	0.044267	-3.18902	37.6373	31.2621
 570	1	10	0.051935	-1.67704	37.9944	30.4161
 571	1	10	0.069302	-3.08311	34.5366	31.0763
 572	1	10	0.077707	-4.02504	34.4343	29.5777
 573	1	10	0.059383	-4.4793	35.6037	30.8243
 574	1	10	0.048889	-4.33442	37.5032	29.069
 575	1	10	0.055177	-3.87414	36.3163	27.8381
 576	1	10	0.04962	-2.83725	37.7217	28.1404
 577	1	1	0.438909	-14.6866	27.4536	7.86729
 578	1	1	0.108796	-14.4373	26.4233	8.73298
 579	1	2	-0.726889	-15.6707	27.1469	6.99887
 580	1	3	-0.675747	-15.2878	25.4081	8.42155
 581	1	1	-0.43042	-9.06171	32.3308	18.1645
 582	1	4	0.62373	-16.0496	25.9062	7.35437
 583	1	1	0.00157	-9.76867	30.7003	15.9809
 584	1	5	0.178696	-9.5502	26.2967	13.078
 585	1	2	-0.592725	-9.66552	28.6467	14.5548
 586	1	6	-0.000174	-12.8179	27.7319	9.95283
 587	1	5	0.1602	-12.6504	29.9362	11.5718
 588	1	4	0.461284	-10.1514	29.871	14.8209
 589	1	1	-0.167191	-13.068	28.7971	9.03552
 590	1	5	0.164364	-13.3862	25.6883	10.4783
 591	1	1	-0.325009	-14.0005	28.6625	7.98116
 592	1	8	0.422373	-15.3718	24.5192	8.87267
 593	1	1	-0.217421	-13.5181	26.5087	9.78143
 594	1	5	0.173851	-8.28098	29.3304	16.7412
 595	1	5	0.197073	-8.77034	32.9543	18.9975
 596	1	6	0.024852	-11.9147	27.9281	11.1274
 597	1	1	0.048807	-11.1646	29.262	12.9925
 598	1	1	0.060532	-10.0722	32.7761	17.2815
 599	1	5	0.140008	-10.9807	25.9658	11.0288
 600	1	5	0.202663	-14.2141	29.4707	7.29041
 601	1	1	-0.222969	-11.9708	29.1411	11.8596
 602	1	1	0.35235	-10.3144	28.2818	13.4256
 603	1	1	0.269742	-8.39296	31.0959	17.9806
 604	1	1	-0.166682	-11.0351	26.8998	11.5815
 605	1	1	-0.277787	-10.222	27.0734	12.7279
 606	1	1	-0.312482	-8.78249	30.2845	16.8959
 607	1	9	0.442075	-10.7876	34.15	17.434
 608	1	5	0.128262	-11.1278	32.2905	15.4756
 609	1	3	-0.434358	-11.0865	30.291	13.8731
 610	1	8	0.354457	-11.5875	31.1592	13.8589
 611	1	1	-0.233188	-10.3857	31.95	16.1858
 612	1	5	0.143867	-12.5342	29.7368	9.15463
 613	1	9	-0.2502	-10.2285	35.1316	16.379
 614	1	9	-0.249785	-10.5863	34.7835	18.8349
 615	1	9	-0.32829	-12.3192	34.0193	17.2231
 616	1	10	0.056572	-10.9227	34.0992	19.624
 617	1	10	0.044267	-11.1611	35.7134	18.9319
 618	1	10	0.051935	-9.53463	35.0369	19.0134
 619	1	10	0.069302	-12.7395	33.2604	17.8948
 620	1	10	0.077707	-12.5719	33.7418	16.1941
 621	1	10	0.059383	-12.8278	34.9698	17.4278
 622	1	10	0.048889	-9.14861	35.2715	16.5141
 623	1	10	0.055177	-10.7116	36.1136	16.4561
 624	1	10	0.04962	-10.3918	34.7538	15.3622
 625	1	1	0.438909	-20.418	15.1655	12.5093
 626	1	1	0.108796	-20.6353	14.8098	11.2065
 627	1	2	-0.726889	-20.5857	14.1225	13.3445
 628	1	3	-0.675747	-20.9462	13.484	11.1865
 629	1	1	-0.43042	-17.9042	25.7377	5.65372
 630	1	4	0.62373	-20.9061	13.0979	12.5347
 631	1	1	0.00157	-18.6244	23.1871	6.59052
 632	1	5	0.178696	-21.7919	19.0204	6.43681
 633	1	2	-0.592725	-20.0459	21.1515	6.5489
 634	1	6	-0.000174	-20.2124	17.0625	10.4384