pySIMM System Object

2258 atoms
2492 bonds
4324 angles
6623 dihedrals
564 impropers

10 atom types
14 bond types
23 angle types
11 dihedral types
3 improper types

-190.945369 190.945369 xlo xhi
-190.945369 190.945369 ylo yhi
-190.945369 190.945369 zlo zhi

Masses

   1	12.01	# ca
   2	14.01	# nc
   3	14.01	# na
   4	12.01	# cd
   5	1.008	# ha
   6	12.01	# cp
   7	1.008	# h5
   8	1.008	# hn
   9	12.01	# c3
  10	1.008	# hc

Pair Coeffs

   1	0.086	3.3996695084235347	# ca
   2	0.17	3.249998523775958	# nc
   3	0.17	3.249998523775958	# na
   4	0.086	3.3996695084235347	# cd
   5	0.015	2.59964245953351	# ha
   6	0.086	3.3996695084235347	# cp
   7	0.015	2.421462715905442	# h5
   8	0.0157	1.069078461768407	# hn
   9	0.1094	3.3996695084235347	# c3
  10	0.0157	2.649532787749369	# hc

Bond Coeffs

   1	425.8	1.3802	# cd,na
   2	467.7	1.3517	# ca,nc
   3	345.8	1.086	# ca,ha
   4	351.8	1.0818	# cd,h5
   5	385.1	1.4555	# ca,cd
   6	351.4	1.4854	# cp,cp
   7	321.0	1.5156	# c3,ca
   8	525.4	1.3172	# cd,nc
   9	300.9	1.5375	# c3,c3
  10	330.6	1.0969	# c3,hc
  11	450.2	1.4058	# ca,cp
  12	420.5	1.384	# ca,na
  13	408.4	1.01	# hn,na
  14	461.1	1.3984	# ca,ca

Angle Coeffs

   1	66.72	118.38	# ca,cp,ca
   2	62.86	111.51	# c3,c3,c3
   3	66.26	120.69	# ca,ca,cp
   4	63.15	112.07	# c3,c3,ca
   5	67.4	113.15	# ca,na,cd
   6	46.34	109.8	# c3,c3,hc
   7	66.28	123.45	# ca,cd,na
   8	48.18	119.88	# ca,ca,ha
   9	67.6	123.24	# ca,cd,nc
  10	64.05	121.11	# ca,cp,cp
  11	46.75	125.5	# cd,na,hn
  12	66.62	120.02	# ca,ca,ca
  13	72.48	104.88	# ca,nc,cd
  14	74.9	112.22	# na,cd,nc
  15	46.63	125.54	# ca,na,hn
  16	65.02	120.79	# ca,ca,cd
  17	69.46	119.72	# ca,ca,nc
  18	47.98	119.86	# cp,ca,ha
  19	39.4	107.58	# hc,c3,hc
  20	63.53	120.77	# c3,ca,ca
  21	69.08	118.34	# ca,ca,na
  22	49.58	121.55	# h5,cd,na
  23	50.58	125.52	# h5,cd,nc

Dihedral Coeffs

   1	1	4.0	2	180	# X,ca,cd,X
   2	1	3.625	2	180	# X,ca,cp,X
   3	1	4.75	2	180	# X,cd,nc,X
   4	1	0.3	2	180	# X,ca,na,X
   5	1	3.625	2	180	# X,ca,ca,X
   6	1	1.7	2	180	# X,cd,na,X
   7	1	1.0	2	180	# X,cp,cp,X
   8	1	0.16	3	0	# hc,c3,c3,c3
   9	1	0.15555555555555556	3	0	# X,c3,c3,X
  10	1	0.0	2	0	# X,c3,ca,X
  11	1	4.8	2	180	# X,ca,nc,X

Improper Coeffs

   1	1.1	-1	2	# na,X,X,hn
   2	1.1	-1	2	# ca,ca,ca,c3
   3	1.1	-1	2	# ca,X,X,ha

Atoms

   1	1	1	0.438909	52.5746	-12.6071	-45.6137
   2	1	1	0.108796	52.8894	-13.8678	-46.0403
   3	1	2	-0.726889	52.6966	-12.4972	-44.2734
   4	1	3	-0.675747	53.2691	-14.5937	-44.961
   5	1	1	-0.43042	51.1826	-13.5788	-58.4161
   6	1	4	0.62373	53.0837	-13.7252	-43.88
   7	1	1	0.00157	51.2592	-13.8389	-55.6166
   8	1	5	0.178696	50.4463	-16.6115	-51.2563
   9	1	2	-0.592725	50.8631	-15.0749	-53.5056
  10	1	6	-0.000174	52.1786	-13.3846	-48.2888
  11	1	5	0.1602	52.5008	-12.0634	-50.7135
  12	1	4	0.461284	51.3071	-13.9863	-54.1525
  13	1	1	-0.167191	51.9192	-12.0458	-47.8655
  14	1	5	0.164364	52.9199	-15.3308	-47.6268
  15	1	1	-0.325009	52.109	-11.6503	-46.5187
  16	1	8	0.422373	53.4745	-15.5727	-44.9203
  17	1	1	-0.217421	52.7008	-14.3063	-47.3474
  18	1	5	0.173851	50.1645	-15.6785	-55.9448
  19	1	5	0.197073	51.1265	-13.5052	-59.4962
  20	1	6	0.024852	51.832	-13.8587	-49.6609
  21	1	1	0.048807	51.6972	-13.5708	-52.0512
  22	1	1	0.060532	51.8627	-12.5965	-57.6618
  23	1	5	0.140008	51.0606	-15.7748	-48.9711
  24	1	5	0.202663	51.8554	-10.6566	-46.1671
  25	1	1	-0.222969	52.0524	-13.0469	-50.804
  26	1	1	0.35235	51.1289	-14.8062	-52.2131
  27	1	1	0.269742	50.5756	-14.6777	-57.7988
  28	1	1	-0.166682	51.2548	-15.1521	-49.8397
  29	1	1	-0.277787	50.8938	-15.6333	-51.1155
  30	1	1	-0.312482	50.6303	-14.8148	-56.4111
  31	1	9	0.442075	52.5848	-11.4205	-58.3764
  32	1	5	0.128262	52.3521	-11.992	-55.6411
  33	1	3	-0.434358	51.8339	-13.0221	-53.2885
  34	1	8	0.354457	52.2048	-12.1235	-53.535
  35	1	1	-0.233188	51.8569	-12.7329	-56.2548
  36	1	5	0.143867	51.5033	-11.3348	-48.5749
  37	1	9	-0.2502	51.5361	-10.4519	-58.9678
  38	1	9	-0.249785	53.4796	-11.9561	-59.5231
  39	1	9	-0.32829	53.5104	-10.6038	-57.4364
  40	1	10	0.056572	52.8869	-12.4272	-60.315
  41	1	10	0.044267	54.1888	-12.7019	-59.1419
  42	1	10	0.051935	54.0556	-11.1466	-59.9879
  43	1	10	0.069302	52.9346	-10.0901	-56.6572
  44	1	10	0.077707	54.0581	-9.83499	-57.9952
  45	1	10	0.059383	54.2506	-11.2559	-56.9551
  46	1	10	0.048889	50.8917	-10.9647	-59.6923
  47	1	10	0.055177	52.0195	-9.6109	-59.4799
  48	1	10	0.04962	50.8945	-10.0464	-58.1753
  49	1	1	0.438909	49.5285	-11.5228	-30.9381
  50	1	1	0.108796	49.6467	-10.3135	-31.5677
  51	1	2	-0.726889	49.1023	-11.3945	-29.6711
  52	1	3	-0.675747	49.2766	-9.35356	-30.6718
  53	1	1	-0.43042	53.6643	-15.4835	-42.1809
  54	1	4	0.62373	48.9259	-10.0731	-29.5177
  55	1	1	0.00157	52.9637	-13.7781	-40.0624
  56	1	5	0.178696	50.5808	-9.52576	-38.0155
  57	1	2	-0.592725	51.9597	-11.7159	-39.0486
  58	1	6	-0.000174	50.3496	-11.3726	-33.6283
  59	1	5	0.1602	51.887	-13.2471	-34.9362
  60	1	4	0.461284	52.5154	-12.936	-38.9366
  61	1	1	-0.167191	50.1877	-12.6273	-32.9598
  62	1	5	0.164364	50.1551	-9.20488	-33.3554
  63	1	1	-0.325009	49.7894	-12.7105	-31.6105
  64	1	8	0.422373	49.1936	-8.36633	-30.8199
  65	1	1	-0.217421	50.0545	-10.1836	-32.9011
  66	1	5	0.173851	52.5326	-12.32	-41.6003
  67	1	5	0.197073	53.9235	-16.1457	-42.9963
  68	1	6	0.024852	50.8123	-11.341	-35.0576
  69	1	1	0.048807	51.9219	-12.4176	-36.9147
  70	1	1	0.060532	53.7712	-15.9699	-40.8631
  71	1	5	0.140008	49.8817	-9.44525	-35.6029
  72	1	5	0.202663	49.6597	-13.6582	-31.0998
  73	1	1	-0.222969	51.5779	-12.4226	-35.5666
  74	1	1	0.35235	51.579	-11.4215	-37.7835
  75	1	1	0.269742	53.2305	-14.1687	-42.4699
  76	1	1	-0.166682	50.48	-10.2793	-35.957
  77	1	1	-0.277787	50.8633	-10.3113	-37.3224
  78	1	1	-0.312482	52.8938	-13.3264	-41.3937
  79	1	9	0.442075	54.2251	-17.4359	-40.6091
  80	1	5	0.128262	53.4692	-15.4409	-38.7967
  81	1	3	-0.434358	52.5507	-13.3875	-37.6188
  82	1	8	0.354457	52.8626	-14.2835	-37.2954
  83	1	1	-0.233188	53.4194	-15.0918	-39.8188
  84	1	5	0.143867	50.3484	-13.5555	-33.4986
  85	1	9	-0.2502	54.2945	-17.8156	-39.107
  86	1	9	-0.249785	55.6333	-17.6639	-41.2095
  87	1	9	-0.32829	53.2321	-18.4156	-41.28
  88	1	10	0.056572	55.9817	-18.6868	-41.0195
  89	1	10	0.044267	56.359	-16.9708	-40.7657
  90	1	10	0.051935	55.6405	-17.5091	-42.2944
  91	1	10	0.069302	53.1949	-18.2735	-42.3659
  92	1	10	0.077707	52.219	-18.2644	-40.8863
  93	1	10	0.059383	53.5164	-19.4584	-41.0908
  94	1	10	0.048889	53.3102	-17.7279	-38.6301
  95	1	10	0.055177	55.0038	-17.1739	-38.5697
  96	1	10	0.04962	54.6281	-18.8533	-38.9801
  97	1	1	0.438909	43.3044	-13.6427	-17.6443
  98	1	1	0.108796	43.4351	-14.621	-18.5904
  99	1	2	-0.726889	42.5545	-14.0505	-16.608
 100	1	3	-0.675747	42.7339	-15.7108	-18.1632
 101	1	1	-0.43042	48.08	-8.09022	-28.1993
 102	1	4	0.62373	42.1824	-15.2986	-16.9422
 103	1	1	0.00157	47.3945	-9.76448	-26.0403
 104	1	5	0.178696	47.3491	-14.4821	-23.7447
 105	1	2	-0.592725	47.3493	-11.965	-24.8848
 106	1	6	-0.000174	44.7575	-13.167	-20.0057
 107	1	5	0.1602	44.9993	-10.7548	-21.3591
 108	1	4	0.461284	47.0419	-10.6582	-24.9184
 109	1	1	-0.167191	44.6233	-12.1603	-19.0014
 110	1	5	0.164364	44.1882	-15.2215	-20.5217
 111	1	1	-0.325009	43.8944	-12.3917	-17.8142
 112	1	8	0.422373	42.8781	-16.6708	-18.4333
 113	1	1	-0.217421	44.1442	-14.4326	-19.7798
 114	1	5	0.173851	48.2284	-11.3508	-27.2404
 115	1	5	0.197073	48.3519	-7.45303	-29.0303
 116	1	6	0.024852	45.4977	-12.8867	-21.2792
 117	1	1	0.048807	46.1952	-11.3836	-23.045
 118	1	1	0.060532	47.4362	-7.52411	-27.0765
 119	1	5	0.140008	46.1952	-14.9312	-21.5609
 120	1	5	0.202663	43.7787	-11.6346	-17.0467
 121	1	1	-0.222969	45.5196	-11.5774	-21.8363
 122	1	1	0.35235	46.8214	-12.3941	-23.7209
 123	1	1	0.269742	48.3505	-9.47224	-28.2871
 124	1	1	-0.166682	46.1774	-13.9291	-21.9792
 125	1	1	-0.277787	46.8405	-13.691	-23.2042
 126	1	1	-0.312482	48.018	-10.2838	-27.1881
 127	1	9	0.442075	47.1236	-6.00099	-27.0499
 128	1	5	0.128262	46.6182	-7.98706	-25.1236
 129	1	3	-0.434358	46.3347	-10.248	-23.7847
 130	1	8	0.354457	45.9644	-9.33489	-23.5985
 131	1	1	-0.233188	47.1018	-8.38555	-26.0059
 132	1	5	0.143867	45.0987	-11.1939	-19.1431
 133	1	9	-0.2502	48.4421	-5.2073	-26.9034
 134	1	9	-0.249785	46.185	-5.58649	-25.8875
 135	1	9	-0.32829	46.4251	-5.56484	-28.3637
 136	1	10	0.056572	45.9432	-4.51755	-25.9405
 137	1	10	0.044267	46.6545	-5.76322	-24.912
 138	1	10	0.051935	45.2407	-6.14391	-25.929
 139	1	10	0.069302	47.0832	-5.66935	-29.2329
 140	1	10	0.077707	46.1193	-4.51237	-28.3174
 141	1	10	0.059383	45.5274	-6.1702	-28.5425
 142	1	10	0.048889	48.2543	-4.12628	-26.8929
 143	1	10	0.055177	49.1285	-5.42248	-27.7312
 144	1	10	0.04962	48.9513	-5.47297	-25.9683
 145	1	1	0.438909	35.3539	-13.8123	-5.36769
 146	1	1	0.108796	34.9234	-14.5104	-6.46197
 147	1	2	-0.726889	34.3545	-13.598	-4.49657
 148	1	3	-0.675747	33.6069	-14.8101	-6.27403
 149	1	1	-0.43042	40.6714	-17.3112	-16.5848
 150	1	4	0.62373	33.2748	-14.113	-5.10659
 151	1	1	0.00157	39.9361	-16.3362	-14.0506
 152	1	5	0.178696	40.4557	-12.6457	-10.4199
 153	1	2	-0.592725	40.1472	-14.6696	-12.2492
 154	1	6	-0.000174	37.0644	-14.2499	-7.54938
 155	1	5	0.1602	37.0773	-16.2355	-9.50426
 156	1	4	0.461284	39.58	-15.7827	-12.7316
 157	1	1	-0.167191	37.5215	-13.586	-6.36998
 158	1	5	0.164364	35.3303	-15.2398	-8.4524
 159	1	1	-0.325009	36.6667	-13.3608	-5.26971
 160	1	8	0.422373	32.9598	-15.1651	-6.95657
 161	1	1	-0.217421	35.731	-14.7452	-7.57499
 162	1	5	0.173851	41.3085	-14.7267	-14.48
 163	1	5	0.197073	40.934	-17.656	-17.5792
 164	1	6	0.024852	37.9454	-14.3677	-8.75359
 165	1	1	0.048807	38.6058	-15.4479	-10.8145
 166	1	1	0.060532	39.6801	-18.0023	-15.8488
 167	1	5	0.140008	39.0339	-12.5165	-8.36371
 168	1	5	0.202663	36.9871	-12.8083	-4.39254
 169	1	1	-0.222969	37.7914	-15.4387	-9.67792
 170	1	1	0.35235	39.5335	-14.4763	-11.0706
 171	1	1	0.269742	41.2497	-16.1104	-16.1168
 172	1	1	-0.166682	38.9221	-13.3643	-9.03238
 173	1	1	-0.277787	39.7246	-13.4136	-10.1905
 174	1	1	-0.312482	40.867	-15.6517	-14.8483
 175	1	9	0.442075	38.9447	-19.2122	-16.495
 176	1	5	0.128262	38.591	-18.0041	-13.9674
 177	1	3	-0.434358	38.6257	-16.3207	-11.8628
 178	1	8	0.354457	38.0336	-17.1142	-12.0174
 179	1	1	-0.233188	39.3449	-17.5073	-14.5651
 180	1	5	0.143867	38.5441	-13.22	-6.32132
 181	1	9	-0.2502	37.8708	-19.8482	-15.5746
 182	1	9	-0.249785	39.9536	-20.3247	-16.8628
 183	1	9	-0.32829	38.2216	-18.7539	-17.7844
 184	1	10	0.056572	39.4441	-21.1846	-17.3155
 185	1	10	0.044267	40.4849	-20.6766	-15.9709
 186	1	10	0.051935	40.6967	-19.9673	-17.5851
 187	1	10	0.069302	37.5067	-17.9515	-17.5624
 188	1	10	0.077707	37.6692	-19.5823	-18.245
 189	1	10	0.059383	38.9293	-18.3734	-18.5303
 190	1	10	0.048889	37.3809	-20.6953	-16.0717
 191	1	10	0.055177	37.0878	-19.1221	-15.3219
 192	1	10	0.04962	38.3155	-20.2228	-14.6446
 193	1	1	0.438909	26.7517	-4.27765	1.0813
 194	1	1	0.108796	27.9945	-4.08419	0.543931
 195	1	2	-0.726889	26.0658	-3.12565	1.1781
 196	1	3	-0.675747	28.1379	-2.74653	0.313964
 197	1	1	-0.43042	30.8001	-14.6321	-5.12217
 198	1	4	0.62373	26.8895	-2.20143	0.652998
 199	1	1	0.00157	30.3633	-12.6528	-3.15594
 200	1	5	0.178696	32.4488	-8.63367	-0.614716
 201	1	2	-0.592725	31.2457	-10.801	-1.78752
 202	1	6	-0.000174	28.3767	-6.47359	0.408467
 203	1	5	0.1602	27.4457	-8.85205	-0.690652
 204	1	4	0.461284	30.1944	-11.5133	-2.22541
 205	1	1	-0.167191	27.1035	-6.65681	1.0256
 206	1	5	0.164364	29.7782	-4.95236	-0.315277
 207	1	1	-0.325009	26.2831	-5.55856	1.3677
 208	1	8	0.422373	28.8995	-2.27296	-0.133946
 209	1	1	-0.217421	28.8363	-5.14286	0.187194
 210	1	5	0.173851	32.502	-12.3944	-3.22056
 211	1	5	0.197073	30.994	-15.3843	-5.876
 212	1	6	0.024852	29.1706	-7.64986	-0.075607
 213	1	1	0.048807	29.3269	-9.83081	-1.13336
 214	1	1	0.060532	29.4851	-14.4237	-4.64234
 215	1	5	0.140008	31.1033	-6.74886	0.354607
 216	1	5	0.202663	25.2908	-5.68557	1.78601
 217	1	1	-0.222969	28.5266	-8.7986	-0.623434
 218	1	1	0.35235	30.6931	-9.7656	-1.13232
 219	1	1	0.269742	31.8955	-13.9172	-4.60239
 220	1	1	-0.166682	30.5956	-7.6106	-0.0683633
 221	1	1	-0.277787	31.3661	-8.66891	-0.59342
 222	1	1	-0.312482	31.6589	-12.9682	-3.59937
 223	1	9	0.442075	28.2806	-15.2642	-5.15843
 224	1	5	0.128262	28.2822	-13.1976	-3.32417
 225	1	3	-0.434358	28.9741	-10.9731	-1.80257
 226	1	8	0.354457	28.0542	-11.2991	-2.03525
 227	1	1	-0.233188	29.2872	-13.4053	-3.67593
 228	1	5	0.143867	26.7434	-7.6647	1.21337
 229	1	9	-0.2502	27.2503	-14.3472	-5.85867
 230	1	9	-0.249785	27.5945	-15.9902	-3.97834
 231	1	9	-0.32829	28.6875	-16.3583	-6.18275
 232	1	10	0.056572	26.764	-16.616	-4.3279
 233	1	10	0.044267	27.1922	-15.2807	-3.24626
 234	1	10	0.051935	28.3087	-16.6403	-3.45904
 235	1	10	0.069302	29.1298	-15.9147	-7.08326
 236	1	10	0.077707	27.8144	-16.941	-6.50205
 237	1	10	0.059383	29.4082	-17.0621	-5.74628
 238	1	10	0.048889	26.4059	-14.9298	-6.24888
 239	1	10	0.055177	27.7133	-13.8174	-6.70056
 240	1	10	0.04962	26.8463	-13.5976	-5.16854
 241	1	1	0.438909	15.8237	5.63112	-0.21699
 242	1	1	0.108796	16.9724	5.87261	0.480259
 243	1	2	-0.726889	15.1155	6.77136	-0.403394
 244	1	3	-0.675747	17.0305	7.19036	0.768666
 245	1	1	-0.43042	27.3576	0.151857	-0.181348
 246	1	4	0.62373	15.8885	7.72265	0.158713
 247	1	1	0.00157	24.6394	0.827899	0.132726
 248	1	5	0.178696	19.6838	-0.563653	1.19789
 249	1	2	-0.592725	22.2789	0.257648	0.67558
 250	1	6	-0.000174	17.8042	3.64481	0.105466
 251	1	5	0.1602	20.4408	4.11193	-0.432728
 252	1	4	0.461284	23.1999	1.1397	0.254285
 253	1	1	-0.167191	16.5788	3.35813	-0.56929
 254	1	5	0.164364	18.8969	5.19918	1.17271
 255	1	1	-0.325009	15.5861	4.35819	-0.749712
 256	1	8	0.422373	17.898	7.68948	0.903208
 257	1	1	-0.217421	17.9859	4.93662	0.649635
 258	1	5	0.173851	24.4231	-1.1588	0.936888
 259	1	5	0.197073	28.3951	-0.132691	-0.294909
 260	1	6	0.024852	18.9315	2.67129	0.210001
 261	1	1	0.048807	21.3015	2.19791	0.105979
 262	1	1	0.060532	26.93	1.44924	-0.554255
 263	1	5	0.140008	17.7223	0.996501	0.872929
 264	1	5	0.202663	14.6768	4.17015	-1.30753
 265	1	1	-0.222969	20.2548	3.10505	-0.0760566
 266	1	1	0.35235	21.1106	0.924266	0.567031
 267	1	1	0.269742	26.4657	-0.805364	0.354884
 268	1	1	-0.166682	18.7312	1.33169	0.649202
 269	1	1	-0.277787	19.8229	0.451489	0.842148
 270	1	1	-0.312482	25.1219	-0.430795	0.528736
 271	1	9	0.442075	27.9004	2.50487	-1.16286
 272	1	5	0.128262	25.1915	2.71483	-0.742417
 273	1	3	-0.434358	22.6357	2.36319	-0.116115
 274	1	8	0.354457	23.0934	3.11291	-0.592969
 275	1	1	-0.233188	25.5568	1.75255	-0.40945
 276	1	5	0.143867	16.4264	2.3677	-0.991502
 277	1	9	-0.2502	27.6291	2.63155	-2.67867
 278	1	9	-0.249785	29.3952	2.13759	-0.972385
 279	1	9	-0.32829	27.7083	3.90461	-0.518791
 280	1	10	0.056572	30.0481	2.93286	-1.35373
 281	1	10	0.044267	29.6561	1.22123	-1.51538
 282	1	10	0.051935	29.6314	1.99273	0.0896318
 283	1	10	0.069302	26.6984	4.29623	-0.67457
 284	1	10	0.077707	28.4042	4.63064	-0.958058
 285	1	10	0.059383	27.9065	3.87493	0.558144
 286	1	10	0.048889	27.7669	1.66435	-3.17814
 287	1	10	0.055177	28.3124	3.35314	-3.14419
 288	1	10	0.04962	26.6024	2.96554	-2.8709
 289	1	1	0.438909	9.18245	16.5883	-7.89527
 290	1	1	0.108796	8.4519	15.6953	-7.16605
 291	1	2	-0.726889	8.38248	17.3883	-8.6425
 292	1	3	-0.675747	7.1447	15.9016	-7.44418
 293	1	1	-0.43042	16.796	10.0473	0.351205
 294	1	4	0.62373	7.1324	16.9852	-8.32902
 295	1	1	0.00157	14.8145	11.0683	-1.36335
 296	1	5	0.178696	10.4208	10.4663	-4.11984
 297	1	2	-0.592725	12.7212	10.8851	-2.68104
 298	1	6	-0.000174	10.4191	14.7297	-6.14664
 299	1	5	0.1602	12.7579	14.8798	-4.59033
 300	1	4	0.461284	13.7837	11.5992	-2.28364
 301	1	1	-0.167191	11.1901	15.6728	-6.89679
 302	1	5	0.164364	8.36506	14.1046	-5.72289
 303	1	1	-0.325009	10.5775	16.604	-7.77905
 304	1	8	0.422373	6.37716	15.2923	-7.23374
 305	1	1	-0.217421	9.00715	14.7697	-6.28737
 306	1	5	0.173851	13.9617	9.07676	-1.2608
 307	1	5	0.197073	17.5675	9.63457	0.986856
 308	1	6	0.024852	11.0373	13.6948	-5.24786
 309	1	1	0.048807	12.7097	12.9112	-3.67321
 310	1	1	0.060532	16.9283	11.368	-0.122565
 311	1	5	0.140008	9.49996	12.2064	-5.66031
 312	1	5	0.202663	11.1507	17.3287	-8.34544
 313	1	1	-0.222969	12.2381	13.931	-4.51754
 314	1	1	0.35235	12.0756	11.7062	-3.53168
 315	1	1	0.269742	15.7634	9.18743	-0.087884
 316	1	1	-0.166682	10.3952	12.4286	-5.08899
 317	1	1	-0.277787	10.905	11.4302	-4.2335
 318	1	1	-0.312482	14.7582	9.73102	-0.909658
 319	1	9	0.442075	18.1912	12.2268	0.174795
 320	1	5	0.128262	16.0033	12.8697	-1.35827
 321	1	3	-0.434358	13.8093	12.8769	-2.86223
 322	1	8	0.354457	14.5177	13.5778	-2.74825
 323	1	1	-0.233188	15.9162	11.86	-0.973855
 324	1	5	0.143867	12.2726	15.6579	-6.8055
 325	1	9	-0.2502	17.7902	13.5634	0.839662
 326	1	9	-0.249785	18.9418	12.5192	-1.14758
 327	1	9	-0.32829	19.208	11.5331	1.12083
 328	1	10	0.056572	19.2282	11.5828	-1.6441
 329	1	10	0.044267	19.8572	13.096	-0.964573
 330	1	10	0.051935	18.321	13.0923	-1.84582
 331	1	10	0.069302	19.5903	10.6054	0.67696
 332	1	10	0.077707	18.7498	11.2962	2.08898
 333	1	10	0.059383	20.073	12.1801	1.3127
 334	1	10	0.048889	18.6766	14.1661	1.075
 335	1	10	0.055177	17.2462	13.3804	1.77463
 336	1	10	0.04962	17.1477	14.162	0.18414
 337	1	1	0.438909	2.38876	18.6056	0.776563
 338	1	1	0.108796	1.03702	18.4814	0.58852
 339	1	2	-0.726889	2.69228	19.0261	2.0129
 340	1	3	-0.675747	0.437151	18.7928	1.7757
 341	1	1	-0.43042	5.80808	18.75	-9.62394
 342	1	4	0.62373	1.50174	19.1665	2.61432
 343	1	1	0.00157	3.46223	17.9635	-8.2729
 344	1	5	0.178696	-0.605829	19.7656	-5.61618
 345	1	2	-0.592725	1.25649	18.486	-7.20328
 346	1	6	-0.000174	1.35159	17.9929	-1.75555
 347	1	5	0.1602	2.38173	16.3049	-3.60121
 348	1	4	0.461284	2.34461	17.7079	-7.34228
 349	1	1	-0.167191	2.75876	18.0849	-1.52694
 350	1	5	0.164364	-0.608954	18.1678	-0.79806
 351	1	1	-0.325009	3.28799	18.3964	-0.261198
 352	1	8	0.422373	-0.541919	18.8293	1.98397
 353	1	1	-0.217421	0.466179	18.2011	-0.661808
 354	1	5	0.173851	4.69295	16.417	-7.43524
 355	1	5	0.197073	6.74155	19.067	-10.0784
 356	1	6	0.024852	0.89439	17.8345	-3.1689
 357	1	1	0.048807	1.56366	17.1888	-5.38965
 358	1	1	0.060532	4.59652	19.4458	-9.87829
 359	1	5	0.140008	-0.542718	19.4632	-3.12424
 360	1	5	0.202663	4.3509	18.5276	-0.091144
 361	1	1	-0.222969	1.64033	16.9812	-4.01573
 362	1	1	0.35235	0.81607	18.1839	-5.95844
 363	1	1	0.269742	5.86088	17.6488	-8.74307
 364	1	1	-0.166682	-0.00752925	18.7661	-3.76359
 365	1	1	-0.277787	-0.0540175	18.9455	-5.16936
 366	1	1	-0.312482	4.66107	17.2412	-8.12983
 367	1	9	0.442075	4.50858	20.696	-10.7976
 368	1	5	0.128262	2.52063	19.6072	-9.27394
 369	1	3	-0.434358	2.48447	16.7998	-6.2975
 370	1	8	0.354457	3.27254	16.2067	-6.13543
 371	1	1	-0.233188	3.44106	19.0383	-9.1754
 372	1	5	0.143867	3.44625	17.9854	-2.3629
 373	1	9	-0.2502	3.39941	20.51	-11.8639
 374	1	9	-0.249785	5.82864	20.99	-11.5542
 375	1	9	-0.32829	4.17378	21.9466	-9.94861
 376	1	10	0.056572	6.12013	20.1369	-12.1793
 377	1	10	0.044267	6.64605	21.2064	-10.8552
 378	1	10	0.051935	5.719	21.863	-12.2097
 379	1	10	0.069302	3.20393	21.8423	-9.44727
 380	1	10	0.077707	4.13178	22.8485	-10.5713
 381	1	10	0.059383	4.93543	22.1018	-9.17428
 382	1	10	0.048889	3.59461	19.6196	-12.4742
 383	1	10	0.055177	3.34746	21.3768	-12.5345
 384	1	10	0.04962	2.41095	20.3925	-11.4042
 385	1	1	0.438909	8.91831	25.1657	12.3823
 386	1	1	0.108796	7.82399	24.375	12.6035
 387	1	2	-0.726889	9.4104	25.6731	13.5307
 388	1	3	-0.675747	7.59	24.3626	13.9428
 389	1	1	-0.43042	0.110574	19.8081	4.63725
 390	1	4	0.62373	8.60194	25.1695	14.4805
 391	1	1	0.00157	2.41304	20.7863	5.93879
 392	1	5	0.178696	7.55129	21.819	5.98094
 393	1	2	-0.592725	4.84147	21.2983	6.03478
 394	1	6	-0.000174	7.60179	23.8698	10.2496
 395	1	5	0.1602	4.91035	23.2179	10.0036
 396	1	4	0.461284	3.6215	21.3241	6.59346
 397	1	1	-0.167191	8.7436	24.7002	10.0271
 398	1	5	0.164364	6.29297	23.073	11.8161
 399	1	1	-0.325009	9.409	25.3524	11.0909
 400	1	8	0.422373	6.88536	23.8566	14.447
 401	1	1	-0.217421	7.13767	23.711	11.5846
 402	1	5	0.173851	3.46806	20.1344	4.17753
 403	1	5	0.197073	-0.761768	19.4367	4.11733
 404	1	6	0.024852	6.91094	23.18	9.1106
 405	1	1	0.048807	4.92641	22.2726	8.06028
 406	1	1	0.060532	-0.0158286	20.3529	5.93773
 407	1	5	0.140008	8.70804	22.9453	7.89969
 408	1	5	0.202663	10.2775	25.9811	10.9306
 409	1	1	-0.222969	5.51364	22.9132	9.15639
 410	1	1	0.35235	5.63112	21.8907	6.95207
 411	1	1	0.269742	1.36243	19.7154	3.98911
 412	1	1	-0.166682	7.63678	22.7739	7.94979
 413	1	1	-0.277787	7.00313	22.1288	6.86439
 414	1	1	-0.312482	2.4979	20.1936	4.66842
 415	1	9	0.442075	-1.3826	20.4499	6.67299
 416	1	5	0.128262	1.0716	21.331	7.52551
 417	1	3	-0.434358	3.62538	21.9226	7.85656
 418	1	8	0.354457	2.84097	22.0538	8.46702
 419	1	1	-0.233188	1.14898	20.8605	6.55386
 420	1	5	0.143867	9.1057	24.8518	9.01384
 421	1	9	-0.2502	-1.24352	20.0657	8.1699
 422	1	9	-0.249785	-2.45937	19.5104	6.07049
 423	1	9	-0.32829	-1.9076	21.8997	6.58169
 424	1	10	0.056572	-3.38181	19.5385	6.66399
 425	1	10	0.044267	-2.10505	18.4717	6.05148
 426	1	10	0.051935	-2.72713	19.8077	5.04978
 427	1	10	0.069302	-1.19214	22.6051	7.02174
 428	1	10	0.077707	-2.86219	22.0088	7.111
 429	1	10	0.059383	-2.06234	22.1902	5.53493
 430	1	10	0.048889	-2.22451	20.0147	8.65844
 431	1	10	0.055177	-0.650621	20.798	8.72876
 432	1	10	0.04962	-0.763221	19.0846	8.27484
 433	1	1	0.438909	4.78856	19.8083	26.148
 434	1	1	0.108796	4.28684	19.2873	24.9874
 435	1	2	-0.726889	4.80233	18.894	27.1384
 436	1	3	-0.675747	3.9176	18.0035	25.2332
 437	1	1	-0.43042	9.82592	26.2081	16.4377
 438	1	4	0.62373	4.27603	17.7938	26.5698
 439	1	1	0.00157	8.08581	24.9396	18.2454
 440	1	5	0.178696	3.87174	21.9765	19.1716
 441	1	2	-0.592725	6.086	23.573	18.7644
 442	1	6	-0.000174	4.81774	21.296	23.7564
 443	1	5	0.1602	6.78673	23.1179	23.0837
 444	1	4	0.461284	7.17214	24.2497	19.1722
 445	1	1	-0.167191	5.26866	21.8623	24.9889
 446	1	5	0.164364	3.97608	19.4774	22.8664
 447	1	1	-0.325009	5.26416	21.1185	26.1918
 448	1	8	0.422373	3.57071	17.3209	24.584
 449	1	1	-0.217421	4.29478	19.9745	23.7749
 450	1	5	0.173851	7.08593	24.1902	16.5034
 451	1	5	0.197073	10.4815	26.6766	15.7094
 452	1	6	0.024852	5.00843	22.006	22.451
 453	1	1	0.048807	6.3389	23.4015	20.992
 454	1	1	0.060532	10.0254	26.4008	17.8248
 455	1	5	0.140008	3.32941	21.0521	21.4373
 456	1	5	0.202663	5.6449	21.5221	27.1231
 457	1	1	-0.222969	6.1051	22.8928	22.2714
 458	1	1	0.35235	5.58192	23.0621	19.9045
 459	1	1	0.269742	8.7798	25.4053	15.9366
 460	1	1	-0.166682	4.18389	21.7122	21.3219
 461	1	1	-0.277787	4.46934	22.2314	20.0401
 462	1	1	-0.312482	7.90424	24.8061	16.8593
 463	1	9	0.442075	11.1423	27.317	18.3984
 464	1	5	0.128262	9.30064	25.8446	19.7783
 465	1	3	-0.434358	7.35625	24.1933	20.5547
 466	1	8	0.354457	8.12308	24.5705	21.0807
 467	1	1	-0.233188	9.15688	25.7269	18.7103
 468	1	5	0.143867	5.65271	22.8784	25.0037
 469	1	9	-0.2502	10.5169	28.4078	19.3035
 470	1	9	-0.249785	11.9575	28.0466	17.3008
 471	1	9	-0.32829	12.1374	26.4824	19.2394
 472	1	10	0.056572	12.4796	27.3303	16.6543
 473	1	10	0.044267	12.716	28.7041	17.744
 474	1	10	0.051935	11.3049	28.6685	16.6749
 475	1	10	0.069302	12.6024	25.7028	18.6231
 476	1	10	0.077707	11.6382	25.992	20.0826
 477	1	10	0.059383	12.9365	27.1148	19.6464
 478	1	10	0.048889	10.0197	27.9746	20.179
 479	1	10	0.055177	9.77157	28.9888	18.7457
 480	1	10	0.04962	11.2819	29.1035	19.6704
 481	1	1	0.438909	-2.55272	6.06171	25.3294
 482	1	1	0.108796	-1.41019	6.23915	26.0591
 483	1	2	-0.726889	-2.98898	4.78553	25.3895
 484	1	3	-0.675747	-1.09465	5.04791	26.6308
 485	1	1	-0.43042	4.64581	16.2728	28.5486
 486	1	4	0.62373	-2.08964	4.17157	26.1809
 487	1	1	0.00157	3.1712	14.2254	27.3128
 488	1	5	0.178696	-0.0292824	12.7107	23.4592
 489	1	2	-0.592725	1.69551	13.4065	25.499
 490	1	6	-0.000174	-1.23915	8.56401	25.4115
 491	1	5	0.1602	0.512208	9.58138	27.3314
 492	1	4	0.461284	2.3034	13.2122	26.6809
 493	1	1	-0.167191	-2.45387	8.37936	24.6778
 494	1	5	0.164364	0.211235	7.51124	26.6756
 495	1	1	-0.325009	-3.11338	7.12771	24.6264
 496	1	8	0.422373	-0.306411	4.82838	27.2094
 497	1	1	-0.217421	-0.718345	7.44868	26.1241
 498	1	5	0.173851	2.94253	15.6062	25.6843
 499	1	5	0.197073	5.20889	17.0822	29.0064
 500	1	6	0.024852	-0.503065	9.87534	25.4081
 501	1	1	0.048807	1.07798	11.4344	26.3859
 502	1	1	0.060532	4.50498	15.0408	29.2223
 503	1	5	0.140008	-1.28732	10.5502	23.4866
 504	1	5	0.202663	-4.02428	6.97871	24.0576
 505	1	1	-0.222969	0.382424	10.2237	26.469
 506	1	1	0.35235	0.938232	12.3034	25.3396
 507	1	1	0.269742	4.10827	16.4951	27.267
 508	1	1	-0.166682	-0.638983	10.7943	24.3224
 509	1	1	-0.277787	0.0749408	12.0127	24.2829
 510	1	1	-0.312482	3.39271	15.4497	26.6587
 511	1	9	0.442075	5.16732	14.8523	30.6163
 512	1	5	0.128262	3.60378	13.0732	29.0742
 513	1	3	-0.434358	1.96505	11.9874	27.262
 514	1	8	0.354457	2.26285	11.6379	28.1541
 515	1	1	-0.233188	3.75436	14.0255	28.582
 516	1	5	0.143867	-2.89149	9.21704	24.1423
 517	1	9	-0.2502	4.81905	13.4981	31.2857
 518	1	9	-0.249785	4.71085	15.9726	31.5839
 519	1	9	-0.32829	6.70655	14.9171	30.4746
 520	1	10	0.056572	3.61693	15.9913	31.6641
 521	1	10	0.044267	5.04039	16.9616	31.2446
 522	1	10	0.051935	5.12301	15.8194	32.589
 523	1	10	0.069302	7.19919	14.7928	31.4469
 524	1	10	0.077707	7.02632	15.8801	30.0586
 525	1	10	0.059383	7.06838	14.1267	29.8053
 526	1	10	0.048889	5.27983	13.4224	32.2788
 527	1	10	0.055177	5.18803	12.6549	30.6888
 528	1	10	0.04962	3.73485	13.3903	31.4144
 529	1	1	0.438909	-9.40961	-2.99328	17.1379
 530	1	1	0.108796	-9.1705	-4.07153	17.907
 531	1	2	-0.726889	-9.45356	-3.27136	15.8245
 532	1	3	-0.675747	-9.12971	-5.15099	17.0684
 533	1	1	-0.43042	-1.17453	2.17045	27.4086
 534	1	4	0.62373	-9.19511	-4.58771	15.7834
 535	1	1	0.00157	-3.16021	0.505705	26.3033
 536	1	5	0.178696	-5.29974	-4.18857	25.1409
 537	1	2	-0.592725	-4.26646	-1.7015	25.8555
 538	1	6	-0.000174	-8.45305	-2.7279	20.0225
 539	1	5	0.1602	-6.75088	-0.16359	22.7714
 540	1	4	0.461284	-4.16585	-0.372953	25.6685
 541	1	1	-0.167191	-8.9777	-1.67087	19.0774
 542	1	5	0.164364	-8.54447	-4.97569	19.6189
 543	1	1	-0.325009	-9.40402	-1.76439	17.7361
 544	1	8	0.422373	-8.87113	-6.09263	17.2972
 545	1	1	-0.217421	-8.75636	-3.9835	19.2424
 546	1	5	0.173851	-3.83928	2.31754	25.315
 547	1	5	0.197073	-0.424313	2.8245	27.8279
 548	1	6	0.024852	-7.04828	-2.4089	22.5174
 549	1	1	0.048807	-5.69549	-1.0266	24.2623
 550	1	1	0.060532	-1.18477	0.801072	27.7579
 551	1	5	0.140008	-6.71876	-4.51241	23.3288
 552	1	5	0.202663	-9.60262	-0.882059	17.1378
 553	1	1	-0.222969	-6.55455	-1.14804	23.1728
 554	1	1	0.35235	-5.20357	-2.06879	24.9515
 555	1	1	0.269742	-2.13047	2.72819	26.5337
 556	1	1	-0.166682	-6.5238	-3.45465	23.4781
 557	1	1	-0.277787	-5.6601	-3.32068	24.598
 558	1	1	-0.312482	-3.11555	1.88152	25.9954
 559	1	9	0.442075	-0.144366	0.195083	28.7447
 560	1	5	0.128262	-2.24411	-1.0635	27.4468
 561	1	3	-0.434358	-5.07927	0.0953074	24.7233
 562	1	8	0.354457	-5.12399	1.02509	24.3472
 563	1	1	-0.233188	-2.19889	-0.00740459	27.1972
 564	1	5	0.143867	-8.9396	-0.620926	19.3219
 565	1	9	-0.2502	-0.823557	-0.0683487	30.1073
 566	1	9	-0.249785	1.07007	1.1309	28.9959
 567	1	9	-0.32829	0.435252	-1.13509	28.2039
 568	1	10	0.056572	1.81808	0.643017	29.6334
 569	1	10	0.044267	0.769332	2.05352	29.5072
 570	1	10	0.051935	1.56139	1.39665	28.0512
 571	1	10	0.069302	1.22673	-1.51687	28.8608
 572	1	10	0.077707	0.864451	-0.989685	27.2048
 573	1	10	0.059383	-0.330506	-1.91573	28.1349
 574	1	10	0.048889	-1.22185	0.863483	30.5283
 575	1	10	0.055177	-0.112611	-0.490584	30.8285
 576	1	10	0.04962	-1.65768	-0.772674	30.0011
 577	1	1	0.438909	-6.62174	2.44233	5.69633
 578	1	1	0.108796	-7.24332	1.38439	5.09015
 579	1	2	-0.726889	-6.55611	3.52086	4.88304
 580	1	3	-0.675747	-7.62159	1.78955	3.84724
 581	1	1	-0.43042	-8.62318	-6.69781	14.5102
 582	1	4	0.62373	-7.15018	3.10612	3.74329
 583	1	1	0.00157	-8.18096	-5.202	12.1584
 584	1	5	0.178696	-6.62582	-4.78435	7.14244
 585	1	2	-0.592725	-7.43863	-4.94525	9.78761
 586	1	6	-0.000174	-6.83492	-0.0573268	6.98842
 587	1	5	0.1602	-7.57868	-0.528818	9.60507
 588	1	4	0.461284	-7.85306	-4.41182	10.9512
 589	1	1	-0.167191	-6.19583	1.05259	7.61897
 590	1	5	0.164364	-7.85403	-0.694081	5.16138
 591	1	1	-0.325009	-6.07406	2.3064	6.97281
 592	1	8	0.422373	-8.02362	1.2295	3.11778
 593	1	1	-0.217421	-7.36035	0.121594	5.68001
 594	1	5	0.173851	-8.79479	-3.50625	13.3574
 595	1	5	0.197073	-8.77466	-7.25066	15.4274
 596	1	6	0.024852	-6.95683	-1.37633	7.68962
 597	1	1	0.048807	-7.49519	-2.69543	9.64842
 598	1	1	0.060532	-8.22516	-7.37452	13.3329
 599	1	5	0.140008	-6.39306	-2.57606	5.96326
 600	1	5	0.202663	-5.55899	3.14161	7.43396
 601	1	1	-0.222969	-7.35535	-1.43561	9.05272
 602	1	1	0.35235	-7.2377	-3.86888	8.99258
 603	1	1	0.269742	-8.84991	-5.30499	14.5267
 604	1	1	-0.166682	-6.7025	-2.60282	7.00566
 605	1	1	-0.277787	-6.82706	-3.85329	7.65651
 606	1	1	-0.312482	-8.64494	-4.58095	13.3349
 607	1	9	0.442075	-7.94799	-8.90455	13.3114
 608	1	5	0.128262	-7.62611	-7.07204	11.2747
 609	1	3	-0.434358	-7.90312	-3.0152	10.9085
 610	1	8	0.354457	-8.15205	-2.39455	11.6578
 611	1	1	-0.233188	-7.99556	-6.59714	12.1773
 612	1	5	0.143867	-5.76431	0.919981	8.6084
 613	1	9	-0.2502	-8.459	-9.56332	12.0034
 614	1	9	-0.249785	-8.63295	-9.65203	14.4863
 615	1	9	-0.32829	-6.42429	-9.13596	13.4268
 616	1	10	0.056572	-9.7101	-9.44272	14.5056
 617	1	10	0.044267	-8.20413	-9.36636	15.4542
 618	1	10	0.051935	-8.50621	-10.7378	14.39
 619	1	10	0.069302	-6.18927	-10.2073	13.4422
 620	1	10	0.077707	-6.03593	-8.68561	14.3484
 621	1	10	0.059383	-5.89698	-8.67808	12.5807
 622	1	10	0.048889	-7.90031	-9.22188	11.125
 623	1	10	0.055177	-9.52059	-9.33533	11.8444
 624	1	10	0.04962	-8.35168	-10.6548	12.0431
 625	1	1	0.438909	0.0600579	12.455	-2.31281
 626	1	1	0.108796	-1.28289	12.6401	-2.50953
 627	1	2	-0.726889	0.782706	12.9133	-3.35425
 628	1	3	-0.675747	-1.44024	13.3078	-3.68473
 629	1	1	-0.43042	-7.68392	3.3352	1.28456
 630	1	4	0.62373	-0.143388	13.3902	-4.20558
 631	1	1	0.00157	-6.42525	5.85274	1.19465
 632	1	5	0.178696	-3.565	9.61334	3.46949
 633	1	2	-0.592725	-5.16771	7.73907	2.21842
 634	1	6	-0.000174	-1.82048	11.2844	-0.588373
 635	1	5	0.1602	-3.69859	9.53496	-1.53428
 636	1	4	0.461284	-5.66772	7.11875	1.13752
 637	1	1	-0.167191	-0.421515	11.1719	-0.335798