pySIMM System Object

2210 atoms
2439 bonds
4232 angles
6482 dihedrals
552 impropers

10 atom types
14 bond types
23 angle types
11 dihedral types
3 improper types

-189.551557 189.551557 xlo xhi
-189.551557 189.551557 ylo yhi
-189.551557 189.551557 zlo zhi

Masses

   1	12.01	# ca
   2	14.01	# nc
   3	14.01	# na
   4	12.01	# cd
   5	1.008	# ha
   6	12.01	# cp
   7	1.008	# h5
   8	1.008	# hn
   9	12.01	# c3
  10	1.008	# hc

Pair Coeffs

   1	0.086	3.3996695084235347	# ca
   2	0.17	3.249998523775958	# nc
   3	0.17	3.249998523775958	# na
   4	0.086	3.3996695084235347	# cd
   5	0.015	2.59964245953351	# ha
   6	0.086	3.3996695084235347	# cp
   7	0.015	2.421462715905442	# h5
   8	0.0157	1.069078461768407	# hn
   9	0.1094	3.3996695084235347	# c3
  10	0.0157	2.649532787749369	# hc

Bond Coeffs

   1	425.8	1.3802	# cd,na
   2	467.7	1.3517	# ca,nc
   3	345.8	1.086	# ca,ha
   4	351.8	1.0818	# cd,h5
   5	385.1	1.4555	# ca,cd
   6	351.4	1.4854	# cp,cp
   7	321.0	1.5156	# c3,ca
   8	525.4	1.3172	# cd,nc
   9	300.9	1.5375	# c3,c3
  10	330.6	1.0969	# c3,hc
  11	450.2	1.4058	# ca,cp
  12	420.5	1.384	# ca,na
  13	408.4	1.01	# hn,na
  14	461.1	1.3984	# ca,ca

Angle Coeffs

   1	66.72	118.38	# ca,cp,ca
   2	62.86	111.51	# c3,c3,c3
   3	66.26	120.69	# ca,ca,cp
   4	63.15	112.07	# c3,c3,ca
   5	67.4	113.15	# ca,na,cd
   6	46.34	109.8	# c3,c3,hc
   7	66.28	123.45	# ca,cd,na
   8	48.18	119.88	# ca,ca,ha
   9	67.6	123.24	# ca,cd,nc
  10	64.05	121.11	# ca,cp,cp
  11	46.75	125.5	# cd,na,hn
  12	66.62	120.02	# ca,ca,ca
  13	72.48	104.88	# ca,nc,cd
  14	74.9	112.22	# na,cd,nc
  15	46.63	125.54	# ca,na,hn
  16	65.02	120.79	# ca,ca,cd
  17	69.46	119.72	# ca,ca,nc
  18	47.98	119.86	# cp,ca,ha
  19	39.4	107.58	# hc,c3,hc
  20	63.53	120.77	# c3,ca,ca
  21	69.08	118.34	# ca,ca,na
  22	49.58	121.55	# h5,cd,na
  23	50.58	125.52	# h5,cd,nc

Dihedral Coeffs

   1	1	4.0	2	180	# X,ca,cd,X
   2	1	3.625	2	180	# X,ca,cp,X
   3	1	4.75	2	180	# X,cd,nc,X
   4	1	0.3	2	180	# X,ca,na,X
   5	1	3.625	2	180	# X,ca,ca,X
   6	1	1.7	2	180	# X,cd,na,X
   7	1	1.0	2	180	# X,cp,cp,X
   8	1	0.16	3	0	# hc,c3,c3,c3
   9	1	0.15555555555555556	3	0	# X,c3,c3,X
  10	1	0.0	2	0	# X,c3,ca,X
  11	1	4.8	2	180	# X,ca,nc,X

Improper Coeffs

   1	1.1	-1	2	# na,X,X,hn
   2	1.1	-1	2	# ca,ca,ca,c3
   3	1.1	-1	2	# ca,X,X,ha

Atoms

   1	1	1	0.438909	-43.75	31.0067	-43.1278
   2	1	1	0.108796	-44.2303	31.9065	-44.0387
   3	1	2	-0.726889	-42.6935	31.5032	-42.4523
   4	1	3	-0.675747	-43.4796	33.0341	-43.9466
   5	1	1	-0.43042	-55.0657	27.0324	-47.8516
   6	1	4	0.62373	-42.5348	32.741	-42.9555
   7	1	1	0.00157	-52.465	27.9913	-47.3598
   8	1	5	0.178696	-48.2132	30.6123	-48.9124
   9	1	2	-0.592725	-50.4079	29.2032	-48.025
  10	1	6	-0.000174	-45.9411	30.3769	-44.7813
  11	1	5	0.1602	-48.2413	28.9413	-44.1824
  12	1	4	0.461284	-51.1141	28.5263	-47.1062
  13	1	1	-0.167191	-45.4528	29.4459	-43.8149
  14	1	5	0.164364	-45.6567	32.3924	-45.5841
  15	1	1	-0.325009	-44.3479	29.7535	-42.9852
  16	1	8	0.422373	-43.5558	33.8745	-44.4858
  17	1	1	-0.217421	-45.3065	31.6427	-44.8838
  18	1	5	0.173851	-52.5617	28.7359	-49.392
  19	1	5	0.197073	-56.0715	26.6912	-48.0703
  20	1	6	0.024852	-47.092	30.0491	-45.6777
  21	1	1	0.048807	-49.2606	29.0664	-46.0926
  22	1	1	0.060532	-54.4758	26.7758	-46.5937
  23	1	5	0.140008	-46.2546	31.0704	-47.4088
  24	1	5	0.202663	-43.9563	29.0511	-42.2577
  25	1	1	-0.222969	-48.2023	29.2972	-45.2063
  26	1	1	0.35235	-49.2707	29.5287	-47.381
  27	1	1	0.269742	-54.3755	27.7264	-48.8507
  28	1	1	-0.166682	-47.1063	30.515	-47.0264
  29	1	1	-0.277787	-48.1948	30.2585	-47.8871
  30	1	1	-0.312482	-53.0837	28.195	-48.6074
  31	1	9	0.442075	-55.2632	25.9787	-45.5166
  32	1	5	0.128262	-52.6909	27.1158	-45.4121
  33	1	3	-0.434358	-50.4369	28.4097	-45.8882
  34	1	8	0.354457	-50.7683	27.9694	-45.0499
  35	1	1	-0.233188	-53.1719	27.2778	-46.3678
  36	1	5	0.143867	-45.9215	28.469	-43.7331
  37	1	9	-0.2502	-55.7738	24.6414	-46.1097
  38	1	9	-0.249785	-56.4762	26.8096	-45.0369
  39	1	9	-0.32829	-54.4151	25.6236	-44.2679
  40	1	10	0.056572	-57.1459	27.0514	-45.8709
  41	1	10	0.044267	-56.1453	27.7544	-44.5874
  42	1	10	0.051935	-57.0587	26.2612	-44.286
  43	1	10	0.069302	-53.5293	25.0404	-44.5493
  44	1	10	0.077707	-54.9968	25.0229	-43.5579
  45	1	10	0.059383	-54.0883	26.5271	-43.7387
  46	1	10	0.048889	-56.4975	24.8056	-46.9163
  47	1	10	0.055177	-56.2712	24.0329	-45.3445
  48	1	10	0.04962	-54.9394	24.0575	-46.5184
  49	1	1	0.438909	-32.1182	33.9197	-34.1969
  50	1	1	0.108796	-33.1674	33.1121	-33.8557
  51	1	2	-0.726889	-31.1379	33.8718	-33.2727
  52	1	3	-0.675747	-32.8822	32.5385	-32.6584
  53	1	1	-0.43042	-41.4347	35.0056	-43.0572
  54	1	4	0.62373	-31.5936	32.9964	-32.358
  55	1	1	0.00157	-39.5381	34.2451	-41.1305
  56	1	5	0.178696	-37.548	30.6911	-37.8492
  57	1	2	-0.592725	-38.5305	32.6132	-39.5603
  58	1	6	-0.000174	-34.2882	33.5343	-35.9508
  59	1	5	0.1602	-35.4516	35.2486	-37.8076
  60	1	4	0.461284	-38.5586	33.838	-40.1065
  61	1	1	-0.167191	-33.2123	34.4122	-36.2864
  62	1	5	0.164364	-35.058	32.2185	-34.3792
  63	1	1	-0.325009	-32.1173	34.6078	-35.4112
  64	1	8	0.422373	-33.3978	31.827	-32.1782
  65	1	1	-0.217421	-34.2606	32.884	-34.6886
  66	1	5	0.173851	-40.5595	32.3391	-41.1377
  67	1	5	0.197073	-42.184	35.3044	-43.7777
  68	1	6	0.024852	-35.4018	33.2534	-36.9098
  69	1	1	0.048807	-36.9296	33.9145	-38.6613
  70	1	1	0.060532	-40.4563	35.9428	-42.6642
  71	1	5	0.140008	-35.6437	31.1767	-36.2925
  72	1	5	0.202663	-31.2708	35.2327	-35.6735
  73	1	1	-0.222969	-35.8755	34.2505	-37.805
  74	1	1	0.35235	-37.5211	32.6803	-38.6722
  75	1	1	0.269742	-41.4875	33.7006	-42.5213
  76	1	1	-0.166682	-36.0132	31.9632	-36.9438
  77	1	1	-0.277787	-37.0777	31.6684	-37.8217
  78	1	1	-0.312482	-40.5276	33.3419	-41.5612
  79	1	9	0.442075	-40.4717	37.3713	-43.2761
  80	1	5	0.128262	-38.7581	36.234	-41.3529
  81	1	3	-0.434358	-37.5724	34.6809	-39.5855
  82	1	8	0.354457	-37.4045	35.6402	-39.8251
  83	1	1	-0.233188	-39.5169	35.5396	-41.6895
  84	1	5	0.143867	-33.2053	34.902	-37.2564
  85	1	9	-0.2502	-39.2258	38.2158	-42.9065
  86	1	9	-0.249785	-41.7246	38.1259	-42.7733
  87	1	9	-0.32829	-40.523	37.2989	-44.8235
  88	1	10	0.056572	-41.7651	39.1428	-43.1829
  89	1	10	0.044267	-41.7179	38.1998	-41.6784
  90	1	10	0.051935	-42.6456	37.6083	-43.0674
  91	1	10	0.069302	-41.45	36.839	-45.1825
  92	1	10	0.077707	-39.6813	36.7097	-45.2084
  93	1	10	0.059383	-40.467	38.3004	-45.2679
  94	1	10	0.048889	-38.3027	37.7113	-43.219
  95	1	10	0.055177	-39.1763	38.4015	-41.8267
  96	1	10	0.04962	-39.2543	39.1941	-43.4029
  97	1	1	0.438909	-19.1466	30.5863	-28.2525
  98	1	1	0.108796	-19.3972	30.7842	-29.5835
  99	1	2	-0.726889	-18.0738	29.8068	-28.0587
 100	1	3	-0.675747	-18.44	30.11	-30.288
 101	1	1	-0.43042	-31.3396	31.5322	-30.3202
 102	1	4	0.62373	-17.6336	29.5275	-29.2971
 103	1	1	0.00157	-28.6675	32.3411	-30.0052
 104	1	5	0.178696	-24.275	34.4815	-31.925
 105	1	2	-0.592725	-26.5833	33.4814	-30.7596
 106	1	6	-0.000174	-21.4309	31.9838	-29.0719
 107	1	5	0.1602	-23.8618	31.3851	-28.008
 108	1	4	0.461284	-27.2384	32.6856	-29.8975
 109	1	1	-0.167191	-21.1352	31.8042	-27.6886
 110	1	5	0.164364	-20.7412	31.5493	-31.1022
 111	1	1	-0.325009	-19.9852	31.1046	-27.269
 112	1	8	0.422373	-18.2614	30.1372	-31.2737
 113	1	1	-0.217421	-20.5238	31.4748	-30.0423
 114	1	5	0.173851	-29.0257	33.6015	-31.7221
 115	1	5	0.197073	-32.3661	31.2155	-30.4488
 116	1	6	0.024852	-22.7488	32.5472	-29.4841
 117	1	1	0.048807	-25.1534	32.5228	-29.3146
 118	1	1	0.060532	-30.5753	30.9525	-29.2853
 119	1	5	0.140008	-21.993	33.773	-31.1127
 120	1	5	0.202663	-19.7593	30.9286	-26.2232
 121	1	1	-0.222969	-23.9201	32.0983	-28.8235
 122	1	1	0.35235	-25.289	33.3455	-30.399
 123	1	1	0.269742	-30.7987	32.4874	-31.2113
 124	1	1	-0.166682	-22.8852	33.4297	-30.5959
 125	1	1	-0.277787	-24.1587	33.8429	-31.0559
 126	1	1	-0.312482	-29.4639	32.8869	-31.0269
 127	1	9	0.442075	-31.1927	29.8407	-28.3895
 128	1	5	0.128262	-28.6235	30.9628	-28.3594
 129	1	3	-0.434358	-26.3935	32.1134	-28.9467
 130	1	8	0.354457	-26.6401	31.4378	-28.2481
 131	1	1	-0.233188	-29.2424	31.3905	-29.1365
 132	1	5	0.143867	-21.8246	32.1893	-26.9412
 133	1	9	-0.2502	-32.3419	30.43	-27.5395
 134	1	9	-0.249785	-30.1729	29.1888	-27.4195
 135	1	9	-0.32829	-31.7593	28.6994	-29.2716
 136	1	10	0.056572	-30.6431	28.3867	-26.8367
 137	1	10	0.044267	-29.7767	29.9218	-26.7059
 138	1	10	0.051935	-29.3331	28.7469	-27.9709
 139	1	10	0.069302	-32.5734	29.0463	-29.917
 140	1	10	0.077707	-32.1569	27.8843	-28.6543
 141	1	10	0.059383	-30.973	28.2833	-29.9143
 142	1	10	0.048889	-32.7922	29.6618	-26.8982
 143	1	10	0.055177	-33.1345	30.8451	-28.173
 144	1	10	0.04962	-31.9701	31.2356	-26.894
 145	1	1	0.438909	-7.48988	25.2234	-21.7406
 146	1	1	0.108796	-7.72686	24.4484	-22.8434
 147	1	2	-0.726889	-6.38431	24.848	-21.0935
 148	1	3	-0.675747	-6.69493	23.5485	-22.9391
 149	1	1	-0.43042	-15.9718	28.3437	-30.8377
 150	1	4	0.62373	-5.93765	23.7858	-21.7789
 151	1	1	0.00157	-14.5757	27.3816	-28.5904
 152	1	5	0.178696	-14.2421	27.1972	-23.4203
 153	1	2	-0.592725	-14.346	27.1702	-26.1516
 154	1	6	-0.000174	-9.82777	25.5909	-23.2294
 155	1	5	0.1602	-10.3149	25.3918	-25.9705
 156	1	4	0.461284	-13.8706	26.9288	-27.3784
 157	1	1	-0.167191	-9.53028	26.4097	-22.0983
 158	1	5	0.164364	-9.07315	23.9474	-24.4702
 159	1	1	-0.325009	-8.36184	26.2261	-21.3398
 160	1	8	0.422373	-6.63064	22.7541	-23.5483
 161	1	1	-0.217421	-8.88787	24.5898	-23.6175
 162	1	5	0.173851	-16.0775	28.4185	-27.4479
 163	1	5	0.197073	-16.5192	28.7136	-31.6966
 164	1	6	0.024852	-11.0975	25.8451	-23.9785
 165	1	1	0.048807	-12.3469	26.1536	-26.0245
 166	1	1	0.060532	-14.8265	27.5327	-31.035
 167	1	5	0.140008	-12.2143	26.4047	-22.1897
 168	1	5	0.202663	-8.14107	26.8208	-20.4605
 169	1	1	-0.222969	-11.1714	25.7236	-25.3945
 170	1	1	0.35235	-13.3986	26.6931	-25.3337
 171	1	1	0.269742	-16.4373	28.6771	-29.5451
 172	1	1	-0.166682	-12.2394	26.3319	-23.2729
 173	1	1	-0.277787	-13.3945	26.7699	-23.9456
 174	1	1	-0.312482	-15.7299	28.1656	-28.4483
 175	1	9	0.442075	-14.385	27.1497	-32.4762
 176	1	5	0.128262	-13.2492	26.4558	-29.9922
 177	1	3	-0.434358	-12.6417	26.2578	-27.355
 178	1	8	0.354457	-12.1281	25.8965	-28.1356
 179	1	1	-0.233188	-14.128	27.0791	-29.8897
 180	1	5	0.143867	-10.2083	27.2111	-21.8169
 181	1	9	-0.2502	-13.0959	26.2883	-32.5222
 182	1	9	-0.249785	-14.1049	28.424	-33.3055
 183	1	9	-0.32829	-15.5037	26.339	-33.1716
 184	1	10	0.056572	-13.789	28.1697	-34.3249
 185	1	10	0.044267	-13.3076	29.0153	-32.84
 186	1	10	0.051935	-14.9981	29.0547	-33.3831
 187	1	10	0.069302	-15.7277	25.427	-32.6039
 188	1	10	0.077707	-15.207	26.043	-34.1855
 189	1	10	0.059383	-16.4301	26.9198	-33.2518
 190	1	10	0.048889	-12.8149	26.0568	-33.5575
 191	1	10	0.055177	-13.2402	25.3331	-32.0018
 192	1	10	0.04962	-12.2508	26.8146	-32.0614
 193	1	1	0.438909	-3.89974	20.0196	-9.39814
 194	1	1	0.108796	-4.97669	20.7585	-9.79835
 195	1	2	-0.726889	-4.195	19.2652	-8.32357
 196	1	3	-0.675747	-5.99053	20.534	-8.92137
 197	1	1	-0.43042	-4.24069	21.8677	-21.9342
 198	1	4	0.62373	-5.49215	19.5285	-8.08525
 199	1	1	0.00157	-3.60155	22.2837	-19.2139
 200	1	5	0.178696	-5.69569	24.3601	-15.0179
 201	1	2	-0.592725	-4.2969	23.3455	-17.124
 202	1	6	-0.000174	-3.88731	21.3586	-11.8739
 203	1	5	0.1602	-2.53974	20.5553	-14.2007
 204	1	4	0.461284	-3.53507	22.4315	-17.7424
 205	1	1	-0.167191	-2.73259	20.6611	-11.4057
 206	1	5	0.164364	-5.9525	21.8846	-11.3396
 207	1	1	-0.325009	-2.73555	19.9789	-10.1661
 208	1	8	0.422373	-6.93195	20.8695	-8.97946
 209	1	1	-0.217421	-5.02774	21.4169	-11.0242
 210	1	5	0.173851	-4.93433	23.9593	-19.3656
 211	1	5	0.197073	-4.53941	21.695	-22.9604
 212	1	6	0.024852	-3.95025	21.945	-13.2522
 213	1	1	0.048807	-3.37415	21.9685	-15.6125
 214	1	1	0.060532	-3.25723	21.0462	-21.3213
 215	1	5	0.140008	-5.4526	23.4371	-12.7206
 216	1	5	0.202663	-1.89739	19.375	-9.83586
 217	1	1	-0.222969	-3.19753	21.4056	-14.3397
 218	1	1	0.35235	-4.23372	23.008	-15.8314
 219	1	1	0.269742	-4.8421	22.9366	-21.2382
 220	1	1	-0.166682	-4.85522	23.0136	-13.52
 221	1	1	-0.277787	-5.00195	23.5525	-14.809
 222	1	1	-0.312482	-4.44536	23.1581	-19.9134
 223	1	9	0.442075	-2.54959	19.9027	-22.1058
 224	1	5	0.128262	-2.31659	20.572	-19.4183
 225	1	3	-0.434358	-2.87667	21.5908	-16.835
 226	1	8	0.354457	-2.27645	20.8148	-17.0485
 227	1	1	-0.233188	-2.98292	21.2485	-19.9424
 228	1	5	0.143867	-1.84538	20.6125	-12.0313
 229	1	9	-0.2502	-3.25608	18.5589	-21.8253
 230	1	9	-0.249785	-1.06463	19.783	-21.6873
 231	1	9	-0.32829	-2.55647	20.142	-23.64
 232	1	10	0.056572	-0.505448	19.1231	-22.3629
 233	1	10	0.044267	-0.953235	19.3754	-20.6762
 234	1	10	0.051935	-0.592156	20.7688	-21.7085
 235	1	10	0.069302	-3.5677	20.0707	-24.0568
 236	1	10	0.077707	-1.9484	19.391	-24.1608
 237	1	10	0.059383	-2.14827	21.1298	-23.8836
 238	1	10	0.048889	-2.75646	17.7344	-22.3496
 239	1	10	0.055177	-4.301	18.5915	-22.1574
 240	1	10	0.04962	-3.2508	18.3312	-20.7522
 241	1	1	0.438909	-7.22288	9.56866	-0.165548
 242	1	1	0.108796	-6.56682	10.7439	0.0876952
 243	1	2	-0.726889	-8.315	9.44463	0.612817
 244	1	3	-0.675747	-7.22663	11.3975	1.07863
 245	1	1	-0.43042	-7.72357	19.0005	-7.00462
 246	1	4	0.62373	-8.34873	10.5925	1.31678
 247	1	1	0.00157	-6.66708	16.6329	-5.92502
 248	1	5	0.178696	-2.67953	13.3798	-4.75761
 249	1	2	-0.592725	-4.82723	15.0012	-5.4831
 250	1	6	-0.000174	-5.48328	10.6667	-2.06334
 251	1	5	0.1602	-7.28851	12.0961	-3.30531
 252	1	4	0.461284	-6.12388	15.3537	-5.43309
 253	1	1	-0.167191	-6.07412	9.38875	-2.27524
 254	1	5	0.164364	-5.39806	12.3605	-0.712397
 255	1	1	-0.325009	-6.94305	8.8211	-1.31252
 256	1	8	0.422373	-7.23744	12.3959	1.2035
 257	1	1	-0.217421	-5.70443	11.3281	-0.832528
 258	1	5	0.173851	-4.78432	17.3025	-6.7308
 259	1	5	0.197073	-8.12883	19.8985	-7.45479
 260	1	6	0.024852	-5.18321	11.5632	-3.20591
 261	1	1	0.048807	-6.04713	13.4112	-4.47985
 262	1	1	0.060532	-8.5852	18.1416	-6.28706
 263	1	5	0.140008	-3.01324	11.4027	-3.22156
 264	1	5	0.202663	-7.52332	7.92987	-1.52593
 265	1	1	-0.222969	-6.28937	12.3075	-3.67401
 266	1	1	0.35235	-4.79353	13.8033	-4.85605
 267	1	1	0.269742	-6.35035	18.7103	-7.18918
 268	1	1	-0.166682	-3.87289	11.9341	-3.62316
 269	1	1	-0.277787	-3.67408	13.0486	-4.47836
 270	1	1	-0.312482	-5.83651	17.5483	-6.59001
 271	1	9	0.442075	-10.0842	18.5138	-6.10087
 272	1	5	0.128262	-8.66647	16.2446	-5.24676
 273	1	3	-0.434358	-6.92439	14.3737	-4.85204
 274	1	8	0.354457	-7.92055	14.3759	-4.73491
 275	1	1	-0.233188	-8.03271	16.9505	-5.76897
 276	1	5	0.143867	-5.98547	8.92526	-3.25548
 277	1	9	-0.2502	-10.7456	18.8052	-7.47036
 278	1	9	-0.249785	-10.1829	19.7765	-5.21247
 279	1	9	-0.32829	-10.9199	17.4027	-5.41504
 280	1	10	0.056572	-11.2303	20.0612	-5.04902
 281	1	10	0.044267	-9.67539	20.6314	-5.67517
 282	1	10	0.051935	-9.72432	19.6015	-4.23161
 283	1	10	0.069302	-10.8943	16.475	-6.00096
 284	1	10	0.077707	-11.9714	17.704	-5.32485
 285	1	10	0.059383	-10.5537	17.1891	-4.40439
 286	1	10	0.048889	-10.3135	19.6896	-7.95248
 287	1	10	0.055177	-11.8218	18.9885	-7.35903
 288	1	10	0.04962	-10.6174	17.953	-8.14979
 289	1	1	0.438909	-19.3738	5.90134	7.12618
 290	1	1	0.108796	-18.1766	5.27511	6.92157
 291	1	2	-0.726889	-20.1305	5.23306	8.02065
 292	1	3	-0.675747	-18.1277	4.1839	7.72917
 293	1	1	-0.43042	-9.49306	12.3283	2.74735
 294	1	4	0.62373	-19.349	4.20611	8.4128
 295	1	1	0.00157	-11.8759	10.8325	2.75888
 296	1	5	0.178696	-14.1624	6.24216	2.07893
 297	1	2	-0.592725	-13.1725	8.78986	2.25492
 298	1	6	-0.000174	-17.4822	6.94699	5.32702
 299	1	5	0.1602	-16.4987	9.53581	5.05626
 300	1	4	0.461284	-13.0962	10.0067	2.81186
 301	1	1	-0.167191	-18.71	7.62983	5.57647
 302	1	5	0.164364	-16.2796	5.2116	5.8949
 303	1	1	-0.325009	-19.6777	7.09503	6.46292
 304	1	8	0.422373	-17.4934	3.40758	7.66664
 305	1	1	-0.217421	-17.215	5.74353	6.03026
 306	1	5	0.173851	-10.7593	9.3926	1.59195
 307	1	5	0.197073	-8.56682	12.8849	2.74511
 308	1	6	0.024852	-16.4623	7.46139	4.36705
 309	1	1	0.048807	-14.9639	9.17618	3.56397
 310	1	1	0.060532	-10.6124	12.836	3.44303
 311	1	5	0.140008	-16.0833	5.50185	3.51198
 312	1	5	0.202663	-20.6169	7.59664	6.66845
 313	1	1	-0.222969	-16.0501	8.8209	4.37468
 314	1	1	0.35235	-14.3023	8.27597	2.77102
 315	1	1	0.269742	-9.53072	11.0872	2.07217
 316	1	1	-0.166682	-15.7873	6.54589	3.50957
 317	1	1	-0.277787	-14.7146	6.94813	2.69016
 318	1	1	-0.312482	-10.7303	10.3575	2.09396
 319	1	9	0.442075	-10.57	14.1729	4.23412
 320	1	5	0.128262	-12.6669	12.4377	3.95961
 321	1	3	-0.434358	-14.2412	10.3328	3.54679
 322	1	8	0.354457	-14.3947	11.1686	4.08085
 323	1	1	-0.233188	-11.7977	12.0708	3.4263
 324	1	5	0.143867	-18.9089	8.56562	5.05846
 325	1	9	-0.2502	-10.7938	13.8951	5.74027
 326	1	9	-0.249785	-11.6741	15.1301	3.72198
 327	1	9	-0.32829	-9.21909	14.9239	4.10543
 328	1	10	0.056572	-11.5571	15.311	2.64597
 329	1	10	0.044267	-11.6282	16.0981	4.23655
 330	1	10	0.051935	-12.6761	14.7175	3.88635
 331	1	10	0.069302	-8.99963	15.1637	3.05761
 332	1	10	0.077707	-8.39296	14.325	4.51004
 333	1	10	0.059383	-9.23995	15.8685	4.66334
 334	1	10	0.048889	-10.7548	14.8239	6.32312
 335	1	10	0.055177	-10.0188	13.2212	6.1265
 336	1	10	0.04962	-11.7685	13.4276	5.92225
 337	1	1	0.438909	-10.8375	2.89205	16.0912
 338	1	1	0.108796	-11.0409	1.57683	16.4146
 339	1	2	-0.726889	-9.81545	3.42906	16.7766
 340	1	3	-0.675747	-10.0774	1.23266	17.3222
 341	1	1	-0.43042	-20.9874	3.25387	10.0801
 342	1	4	0.62373	-9.34989	2.41871	17.5267
 343	1	1	0.00157	-18.9972	1.58298	11.1659
 344	1	5	0.178696	-17.1642	-0.591793	15.5273
 345	1	2	-0.592725	-18.0564	0.245922	13.0537
 346	1	6	-0.000174	-12.968	1.45424	14.9535
 347	1	5	0.1602	-13.9419	1.59498	12.3902
 348	1	4	0.461284	-17.9015	0.898322	11.8877
 349	1	1	-0.167191	-12.7144	2.81398	14.601
 350	1	5	0.164364	-12.269	-0.203861	16.201
 351	1	1	-0.325009	-11.6532	3.54441	15.1726
 352	1	8	0.422373	-9.95227	0.356394	17.7909
 353	1	1	-0.217421	-12.1038	0.822786	15.8936
 354	1	5	0.173851	-17.7311	2.39918	9.62239
 355	1	5	0.197073	-21.7147	3.94984	9.67375
 356	1	6	0.024852	-14.1962	0.795375	14.4059
 357	1	1	0.048807	-15.8848	0.69213	12.6745
 358	1	1	0.060532	-21.3251	2.40428	11.1583
 359	1	5	0.140008	-14.8394	-0.0411517	16.3064
 360	1	5	0.202663	-11.4745	4.58847	14.9408
 361	1	1	-0.222969	-14.5914	1.04796	13.0651
 362	1	1	0.35235	-16.7989	0.156218	13.5402
 363	1	1	0.269742	-19.7047	3.24982	9.49696
 364	1	1	-0.166682	-15.1099	0.117538	15.2659
 365	1	1	-0.277787	-16.4222	-0.200162	14.8396
 366	1	1	-0.312482	-18.7318	2.37957	10.0322
 367	1	9	0.442075	-22.7289	2.41429	11.8251
 368	1	5	0.128262	-20.5091	0.983362	12.5685
 369	1	3	-0.434358	-16.5573	1.07639	11.5566
 370	1	8	0.354457	-16.1975	1.56796	10.762
 371	1	1	-0.233188	-20.3056	1.58371	11.6862
 372	1	5	0.143867	-13.3899	3.32298	13.9182
 373	1	9	-0.2502	-23.2893	0.974316	11.9332
 374	1	9	-0.249785	-23.7732	3.24828	11.0376
 375	1	9	-0.32829	-22.6281	3.02036	13.2445
 376	1	10	0.056572	-23.8673	2.88563	10.0064
 377	1	10	0.044267	-23.4964	4.30961	11.01
 378	1	10	0.051935	-24.7633	3.18285	11.5059
 379	1	10	0.069302	-21.9602	2.42851	13.8819
 380	1	10	0.077707	-23.6111	3.0585	13.7295
 381	1	10	0.059383	-22.2304	4.04212	13.1998
 382	1	10	0.048889	-23.3391	0.504078	10.9433
 383	1	10	0.055177	-24.3001	0.97546	12.3596
 384	1	10	0.04962	-22.6649	0.343006	12.5759
 385	1	1	0.438909	-2.92271	11.7727	24.8069
 386	1	1	0.108796	-2.15343	10.9914	23.9868
 387	1	2	-0.726889	-2.18288	12.3827	25.7526
 388	1	3	-0.675747	-0.858598	11.1248	24.3869
 389	1	1	-0.43042	-7.63455	1.47592	19.1422
 390	1	4	0.62373	-0.926656	11.9736	25.5006
 391	1	1	0.00157	-6.61054	4.06115	19.6062
 392	1	5	0.178696	-7.23382	9.25813	19.3897
 393	1	2	-0.592725	-6.7436	6.53757	19.4362
 394	1	6	-0.000174	-4.09853	10.1999	22.7986
 395	1	5	0.1602	-3.71557	7.49965	22.4988
 396	1	4	0.461284	-6.15884	5.43097	19.923
 397	1	1	-0.167191	-4.88988	11.0491	23.6268
 398	1	5	0.164364	-2.05624	9.54323	22.3763
 399	1	1	-0.325009	-4.30669	11.8347	24.6466
 400	1	8	0.422373	-0.0422077	10.6761	24.0136
 401	1	1	-0.217421	-2.69094	10.1759	22.9873
 402	1	5	0.173851	-8.10129	4.71215	18.1939
 403	1	5	0.197073	-8.05163	0.494973	18.9615
 404	1	6	0.024852	-4.75268	9.29392	21.8109
 405	1	1	0.048807	-5.16171	7.0798	20.9396
 406	1	1	0.060532	-6.52837	1.62781	20.0135
 407	1	5	0.140008	-6.00723	10.8342	20.9296
 408	1	5	0.202663	-4.89981	12.4522	25.3117
 409	1	1	-0.222969	-4.44279	7.90877	21.8058
 410	1	1	0.35235	-6.13349	7.54394	20.0947
 411	1	1	0.269742	-8.20185	2.57584	18.4601
 412	1	1	-0.166682	-5.75889	9.77577	20.924
 413	1	1	-0.277787	-6.44886	8.90467	20.05
 414	1	1	-0.312482	-7.66032	3.85264	18.6962
 415	1	9	0.442075	-5.87933	0.421297	20.7523
 416	1	5	0.128262	-5.24427	3.08756	20.9506
 417	1	3	-0.434358	-5.14026	5.72237	20.8337
 418	1	8	0.354457	-4.59196	5.06677	21.3579
 419	1	1	-0.233188	-6.04859	2.9364	20.2419
 420	1	5	0.143867	-5.97037	11.0526	23.5021
 421	1	9	-0.2502	-6.20118	-0.93593	20.0736
 422	1	9	-0.249785	-6.40126	0.368476	22.2057
 423	1	9	-0.32829	-4.33289	0.539743	20.789
 424	1	10	0.056572	-5.96012	-0.473699	22.7535
 425	1	10	0.044267	-7.49216	0.252042	22.223
 426	1	10	0.051935	-6.15402	1.29082	22.7457
 427	1	10	0.069302	-3.93238	0.698712	19.7799
 428	1	10	0.077707	-3.87678	-0.372623	21.193
 429	1	10	0.059383	-3.99924	1.36732	21.4249
 430	1	10	0.048889	-5.65208	-1.75682	20.5518
 431	1	10	0.055177	-5.91931	-0.917452	19.0132
 432	1	10	0.04962	-7.26719	-1.1805	20.1491
 433	1	1	0.438909	12.4038	9.58494	27.1382
 434	1	1	0.108796	12.0503	9.76293	25.8283
 435	1	2	-0.726889	13.7064	9.26814	27.2683
 436	1	3	-0.675747	13.1666	9.5724	25.0729
 437	1	1	-0.43042	0.0768333	13.0995	27.5215
 438	1	4	0.62373	14.1607	9.23658	26.0033
 439	1	1	0.00157	2.64697	12.2023	26.8184
 440	1	5	0.178696	5.95591	9.68862	23.5979
 441	1	2	-0.592725	4.26438	11.0487	25.3199
 442	1	6	-0.000174	9.73666	10.1386	26.4198
 443	1	5	0.1602	7.83468	11.5382	27.8603
 444	1	4	0.461284	3.99342	11.7296	26.4466
 445	1	1	-0.167191	10.1193	9.96426	27.7856
 446	1	5	0.164364	10.5069	10.166	24.369
 447	1	1	-0.325009	11.4549	9.68623	28.1535
 448	1	8	0.422373	13.2493	9.57954	24.0724
 449	1	1	-0.217421	10.7419	10.0343	25.4192
 450	1	5	0.173851	1.69721	11.3331	25.0998
 451	1	5	0.197073	-0.931213	13.4211	27.7666
 452	1	6	0.024852	8.30617	10.3953	26.0546
 453	1	1	0.048807	6.12181	11.2958	26.5659
 454	1	1	0.060532	1.15941	13.4055	28.3762
 455	1	5	0.140008	8.37363	9.31806	24.1618
 456	1	5	0.202663	11.7502	9.52463	29.184
 457	1	1	-0.222969	7.45817	11.1223	26.9325
 458	1	1	0.35235	5.58704	10.7928	25.4117
 459	1	1	0.269742	0.241025	12.3404	26.3436
 460	1	1	-0.166682	7.74909	9.8943	24.8384
 461	1	1	-0.277787	6.38708	10.0873	24.5099
 462	1	1	-0.312482	1.53798	11.9096	26.0048
 463	1	9	0.442075	0.990498	14.1958	29.7043
 464	1	5	0.128262	3.28008	13.1593	28.6445
 465	1	3	-0.434358	5.12305	11.9222	27.243
 466	1	8	0.354457	5.16439	12.3745	28.1376
 467	1	1	-0.233188	2.4364	12.939	28.0012
 468	1	5	0.143867	9.36262	10.0078	28.5639
 469	1	9	-0.2502	1.39749	13.3008	30.9002
 470	1	9	-0.249785	-0.463437	14.6715	29.9535
 471	1	9	-0.32829	1.88887	15.4567	29.6996
 472	1	10	0.056572	-0.807889	15.3247	29.1419
 473	1	10	0.044267	-0.53794	15.2389	30.8898
 474	1	10	0.051935	-1.15065	13.8195	30.0295
 475	1	10	0.069302	1.63424	16.1071	28.8536
 476	1	10	0.077707	2.95036	15.1983	29.6189
 477	1	10	0.059383	1.75974	16.0355	30.6229
 478	1	10	0.048889	2.45152	13.0052	30.8424
 479	1	10	0.055177	0.791624	12.3861	30.92
 480	1	10	0.04962	1.25063	13.8246	31.8531
 481	1	1	0.438909	20.3324	5.08949	14.8162
 482	1	1	0.108796	21.164	5.78377	15.6551
 483	1	2	-0.726889	20.9101	4.8414	13.637
 484	1	3	-0.675747	22.3615	5.94062	15.0101
 485	1	1	-0.43042	16.4766	8.42806	26.6119
 486	1	4	0.62373	22.1252	5.4046	13.7365
 487	1	1	0.00157	17.1828	8.26124	23.9022
 488	1	5	0.178696	15.8058	8.70687	18.9094
 489	1	2	-0.592725	16.6673	8.52672	21.5072
 490	1	6	-0.000174	19.3376	6.16332	17.1817
 491	1	5	0.1602	20.1209	6.31223	19.8558
 492	1	4	0.461284	17.5061	8.12708	22.4731
 493	1	1	-0.167191	18.5153	5.36224	16.3391
 494	1	5	0.164364	21.347	6.98835	17.4529
 495	1	1	-0.325009	19.0092	4.8173	15.142
 496	1	8	0.422373	23.1554	6.48151	15.299
 497	1	1	-0.217421	20.7082	6.35143	16.8506
 498	1	5	0.173851	15.2273	9.0611	23.5139
 499	1	5	0.197073	16.1597	8.47466	27.6492
 500	1	6	0.024852	18.6912	6.88807	18.3059
 501	1	1	0.048807	18.4594	7.48571	20.6255
 502	1	1	0.060532	17.7694	7.96608	26.2756
 503	1	5	0.140008	17.0827	7.62024	17.0387
 504	1	5	0.202663	18.378	4.269	14.4522
 505	1	1	-0.222969	19.211	6.85675	19.6257
 506	1	1	0.35235	17.2669	8.11489	20.378
 507	1	1	0.269742	15.5386	8.82062	25.6352
 508	1	1	-0.166682	17.474	7.58426	18.0526
 509	1	1	-0.277787	16.7517	8.20676	19.0877
 510	1	1	-0.312482	15.9272	8.76241	24.2867
 511	1	9	0.442075	18.7887	7.53344	27.3669
 512	1	5	0.128262	19.0451	7.4566	24.6048
 513	1	3	-0.434358	18.6585	7.51305	21.9734
 514	1	8	0.354457	19.3878	7.0729	22.504
 515	1	1	-0.233188	18.0847	7.8563	24.9036
 516	1	5	0.143867	17.4692	5.21417	16.5984
 517	1	9	-0.2502	18.6161	6.02614	27.6576
 518	1	9	-0.249785	18.5909	8.31936	28.6894
 519	1	9	-0.32829	20.2547	7.78196	26.9224
 520	1	10	0.056572	17.6434	8.06132	29.1765
 521	1	10	0.044267	18.6006	9.40097	28.5037
 522	1	10	0.051935	19.3876	8.0931	29.4085
 523	1	10	0.069302	20.9526	7.61513	27.7521
 524	1	10	0.077707	20.3827	8.81591	26.578
 525	1	10	0.059383	20.5573	7.10581	26.1149
 526	1	10	0.048889	19.3246	5.68734	28.4238
 527	1	10	0.055177	18.7842	5.43217	26.7507
 528	1	10	0.04962	17.6005	5.81322	28.0143
 529	1	1	0.438909	16.5379	-2.98395	5.09323
 530	1	1	0.108796	17.7185	-2.85193	4.46577
 531	1	2	-0.726889	15.6902	-3.78865	4.43059
 532	1	3	-0.675747	17.6817	-3.61669	3.33808
 533	1	1	-0.43042	24.4115	5.79472	12.6484
 534	1	4	0.62373	16.3477	-4.03477	3.28184
 535	1	1	0.00157	23.3158	4.98394	10.1803
 536	1	5	0.178696	23.732	2.52335	5.63986
 537	1	2	-0.592725	23.4366	4.08747	7.87778
 538	1	6	-0.000174	18.5331	-0.778611	5.8176
 539	1	5	0.1602	19.3968	2.66485	7.95697
 540	1	4	0.461284	22.7218	4.47298	8.94042
 541	1	1	-0.167191	17.1867	-1.0889	6.42276
 542	1	5	0.164364	19.4976	-1.96753	4.11786
 543	1	1	-0.325009	16.258	-2.1162	6.1208
 544	1	8	0.422373	18.3243	-3.59294	2.5688
 545	1	1	-0.217421	18.6497	-1.87147	4.78608
 546	1	5	0.173851	21.4703	4.81627	11.2673
 547	1	5	0.197073	24.819	6.07119	13.6123
 548	1	6	0.024852	20.3846	1.35453	6.39017
 549	1	1	0.048807	21.3105	3.35039	7.74113
 550	1	1	0.060532	25.2608	5.68603	11.5143
 551	1	5	0.140008	22.1303	1.03101	4.9439
 552	1	5	0.202663	15.2802	-2.15303	6.58881
 553	1	1	-0.222969	20.2865	2.47699	7.37242
 554	1	1	0.35235	22.5398	3.35954	7.18984
 555	1	1	0.269742	23.0454	5.44184	12.5729
 556	1	1	-0.166682	21.7437	1.62363	5.76783
 557	1	1	-0.277787	22.7614	2.52999	6.12669
 558	1	1	-0.312482	22.5209	5.07451	11.3258
 559	1	9	0.442075	26.7985	5.90135	11.5784
 560	1	5	0.128262	25.3106	5.12659	9.41815
 561	1	3	-0.434358	21.3676	4.14914	8.8334
 562	1	8	0.354457	20.6548	4.30708	9.52222
 563	1	1	-0.233188	24.6854	5.26559	10.2957
 564	1	5	0.143867	16.7463	-0.449163	7.17608
 565	1	9	-0.2502	27.2583	6.58068	12.8932
 566	1	9	-0.249785	27.2897	6.79321	10.4089
 567	1	9	-0.32829	27.5032	4.52779	11.4848
 568	1	10	0.056572	28.3588	7.01871	10.507
 569	1	10	0.044267	26.7426	7.74382	10.3883
 570	1	10	0.051935	27.1556	6.30405	9.43708
 571	1	10	0.069302	28.5932	4.63401	11.5451
 572	1	10	0.077707	27.267	4.02626	10.5377
 573	1	10	0.059383	27.1784	3.86848	12.2995
 574	1	10	0.048889	26.757	7.54684	13.0303
 575	1	10	0.055177	28.3402	6.76344	12.8799
 576	1	10	0.04962	27.049	5.94802	13.764
 577	1	1	0.438909	5.0477	-2.55826	6.07956
 578	1	1	0.108796	5.63294	-3.78116	5.88594
 579	1	2	-0.726889	3.88548	-2.66763	6.75245
 580	1	3	-0.675747	4.84882	-4.71607	6.49549
 581	1	1	-0.43042	16.2264	-4.13909	0.754117
 582	1	4	0.62373	3.74754	-3.99069	6.96899
 583	1	1	0.00157	13.4255	-4.36152	0.943111
 584	1	5	0.178696	8.83811	-2.1137	-0.145527
 585	1	2	-0.592725	11.1299	-3.61534	0.314875
 586	1	6	-0.000174	7.10574	-2.86418	4.20364
 587	1	5	0.1602	9.41028	-4.32617	4.31494
 588	1	4	0.461284	11.9696	-4.25924	1.14478
 589	1	1	-0.167191	6.5368	-1.58463	4.46385
 590	1	5	0.164364	7.02672	-4.97809	4.73671
 591	1	1	-0.325009	5.50424	-1.42074	5.41274
 592	1	8	0.422373	4.92656	-5.714	6.4314
 593	1	1	-0.217421	6.6577	-3.98207	4.95787
 594	1	5	0.173851	13.7911	-4.65582	3.05117
 595	1	5	0.197073	17.2968	-3.99491	0.710555
 596	1	6	0.024852	8.10809	-3.05266	3.1156
 597	1	1	0.048807	10.1621	-4.00969	2.31304
 598	1	1	0.060532	15.4478	-3.9813	-0.419634
 599	1	5	0.140008	7.09342	-1.80794	1.64944
 600	1	5	0.202663	5.00966	-0.465389	5.54986
 601	1	1	-0.222969	9.24064	-3.8665	3.34774
 602	1	1	0.35235	10.0348	-3.41734	1.08645
 603	1	1	0.269742	15.6237	-4.32739	2.01744
 604	1	1	-0.166682	7.96505	-2.4291	1.83935
 605	1	1	-0.277787	8.92496	-2.61135	0.813259
 606	1	1	-0.312482	14.2411	-4.54433	2.07099
 607	1	9	0.442075	16.1115	-3.63497	-1.7866
 608	1	5	0.128262	13.3899	-3.92464	-1.14364
 609	1	3	-0.434358	11.3769	-4.59795	2.36025
 610	1	8	0.354457	11.8254	-5.01997	3.15209
 611	1	1	-0.233188	14.0411	-4.08289	-0.290542
 612	1	5	0.143867	6.87649	-0.726557	3.88762
 613	1	9	-0.2502	16.4798	-4.94887	-2.51066
 614	1	9	-0.249785	17.4049	-2.79147	-1.61954
 615	1	9	-0.32829	15.1858	-2.79253	-2.70171
 616	1	10	0.056572	18.2128	-3.36864	-1.15668
 617	1	10	0.044267	17.2127	-1.90292	-1.00458
 618	1	10	0.051935	17.7808	-2.45083	-2.59317
 619	1	10	0.069302	15.6948	-2.50831	-3.63157
 620	1	10	0.077707	14.8702	-1.87308	-2.19256
 621	1	10	0.059383	14.2884	-3.34221	-2.99015
 622	1	10	0.048889	15.5996	-5.59159	-2.61484
 623	1	10	0.055177	17.2323	-5.50752	-1.94089
 624	1	10	0.04962	16.8856	-4.74969	-3.51126
 625	1	1	0.438909	-9.00216	0.0652682	8.49084
 626	1	1	0.108796	-8.60666	-1.03339	9.20686
 627	1	2	-0.726889	-10.3431	0.198448	8.4806
 628	1	3	-0.675747	-9.72634	-1.62253	9.70895
 629	1	1	-0.43042	2.35429	-5.9992	7.67278
 630	1	4	0.62373	-10.7786	-0.844327	9.20939
 631	1	1	0.00157	0.134718	-4.32968	8.12056
 632	1	5	0.178696	-1.73949	0.489555	8.61439
 633	1	2	-0.592725	-0.853616	-2.09234	8.3609
 634	1	6	-0.000174	-6.28812	-0.657357	8.65559
 635	1	5	0.1602	-5.11867	-3.20319	8.64197
 636	1	4	0.461284	-1.00665	-3.42076	8.33213
 637	1	1	-0.167191	-6.7086	0.499513	7.92998