pySIMM System Object

1730 atoms
1909 bonds
3312 angles
5072 dihedrals
432 impropers

10 atom types
14 bond types
23 angle types
11 dihedral types
3 improper types

-174.319458 174.319458 xlo xhi
-174.319458 174.319458 ylo yhi
-174.319458 174.319458 zlo zhi

Masses

   1	12.01	# ca
   2	14.01	# nc
   3	14.01	# na
   4	12.01	# cd
   5	1.008	# ha
   6	12.01	# cp
   7	1.008	# h5
   8	1.008	# hn
   9	12.01	# c3
  10	1.008	# hc

Pair Coeffs

   1	0.086	3.3996695084235347	# ca
   2	0.17	3.249998523775958	# nc
   3	0.17	3.249998523775958	# na
   4	0.086	3.3996695084235347	# cd
   5	0.015	2.59964245953351	# ha
   6	0.086	3.3996695084235347	# cp
   7	0.015	2.421462715905442	# h5
   8	0.0157	1.069078461768407	# hn
   9	0.1094	3.3996695084235347	# c3
  10	0.0157	2.649532787749369	# hc

Bond Coeffs

   1	425.8	1.3802	# cd,na
   2	467.7	1.3517	# ca,nc
   3	345.8	1.086	# ca,ha
   4	351.8	1.0818	# cd,h5
   5	385.1	1.4555	# ca,cd
   6	351.4	1.4854	# cp,cp
   7	321.0	1.5156	# c3,ca
   8	525.4	1.3172	# cd,nc
   9	300.9	1.5375	# c3,c3
  10	330.6	1.0969	# c3,hc
  11	450.2	1.4058	# ca,cp
  12	420.5	1.384	# ca,na
  13	408.4	1.01	# hn,na
  14	461.1	1.3984	# ca,ca

Angle Coeffs

   1	66.72	118.38	# ca,cp,ca
   2	62.86	111.51	# c3,c3,c3
   3	66.26	120.69	# ca,ca,cp
   4	63.15	112.07	# c3,c3,ca
   5	67.4	113.15	# ca,na,cd
   6	46.34	109.8	# c3,c3,hc
   7	66.28	123.45	# ca,cd,na
   8	48.18	119.88	# ca,ca,ha
   9	67.6	123.24	# ca,cd,nc
  10	64.05	121.11	# ca,cp,cp
  11	46.75	125.5	# cd,na,hn
  12	66.62	120.02	# ca,ca,ca
  13	72.48	104.88	# ca,nc,cd
  14	74.9	112.22	# na,cd,nc
  15	46.63	125.54	# ca,na,hn
  16	65.02	120.79	# ca,ca,cd
  17	69.46	119.72	# ca,ca,nc
  18	47.98	119.86	# cp,ca,ha
  19	39.4	107.58	# hc,c3,hc
  20	63.53	120.77	# c3,ca,ca
  21	69.08	118.34	# ca,ca,na
  22	49.58	121.55	# h5,cd,na
  23	50.58	125.52	# h5,cd,nc

Dihedral Coeffs

   1	1	4.0	2	180	# X,ca,cd,X
   2	1	3.625	2	180	# X,ca,cp,X
   3	1	4.75	2	180	# X,cd,nc,X
   4	1	0.3	2	180	# X,ca,na,X
   5	1	3.625	2	180	# X,ca,ca,X
   6	1	1.7	2	180	# X,cd,na,X
   7	1	1.0	2	180	# X,cp,cp,X
   8	1	0.16	3	0	# hc,c3,c3,c3
   9	1	0.15555555555555556	3	0	# X,c3,c3,X
  10	1	0.0	2	0	# X,c3,ca,X
  11	1	4.8	2	180	# X,ca,nc,X

Improper Coeffs

   1	1.1	-1	2	# na,X,X,hn
   2	1.1	-1	2	# ca,ca,ca,c3
   3	1.1	-1	2	# ca,X,X,ha

Atoms

   1	1	1	0.438909	-43.7901	-17.753	-13.0684
   2	1	1	0.108796	-43.485	-17.8971	-11.743
   3	1	2	-0.726889	-44.2891	-16.5295	-13.333
   4	1	3	-0.675747	-43.801	-16.7308	-11.117
   5	1	1	-0.43042	-36.8858	-26.3127	-6.39626
   6	1	4	0.62373	-44.2868	-15.9063	-12.1413
   7	1	1	0.00157	-38.6132	-24.9311	-8.14629
   8	1	5	0.178696	-42.0577	-24.8485	-12.1097
   9	1	2	-0.592725	-40.2527	-24.8226	-10.0133
  10	1	6	-0.000174	-42.6784	-20.1508	-12.0859
  11	1	5	0.1602	-40.8464	-20.4531	-10.0299
  12	1	4	0.461284	-39.5174	-24.2157	-9.06719
  13	1	1	-0.167191	-43.0074	-19.9953	-13.4674
  14	1	5	0.164364	-42.7206	-19.133	-10.1468
  15	1	1	-0.325009	-43.5644	-18.795	-13.9674
  16	1	8	0.422373	-43.7131	-16.5045	-10.1456
  17	1	1	-0.217421	-42.9324	-19.0619	-11.2069
  18	1	5	0.173851	-39.0304	-26.8887	-8.97267
  19	1	5	0.197073	-36.2359	-26.8877	-5.74725
  20	1	6	0.024852	-42.066	-21.4186	-11.5711
  21	1	1	0.048807	-40.5992	-22.5999	-10.0508
  22	1	1	0.060532	-36.9944	-24.9076	-6.27571
  23	1	5	0.140008	-43.1016	-22.7318	-12.9669
  24	1	5	0.202663	-43.8048	-18.6615	-15.0163
  25	1	1	-0.222969	-41.1433	-21.3889	-10.489
  26	1	1	0.35235	-40.9117	-23.8083	-10.6107
  27	1	1	0.269742	-37.6165	-27.0144	-7.36203
  28	1	1	-0.166682	-42.3863	-22.6837	-12.1506
  29	1	1	-0.277787	-41.8135	-23.8855	-11.6743
  30	1	1	-0.312482	-38.4717	-26.3286	-8.22798
  31	1	9	0.442075	-36.2058	-24.089	-5.21521
  32	1	5	0.128262	-37.9706	-23.1653	-7.0844
  33	1	3	-0.434358	-39.7007	-22.8309	-9.05416
  34	1	8	0.354457	-39.2479	-22.1668	-8.45451
  35	1	1	-0.233188	-37.869	-24.2412	-7.16409
  36	1	5	0.143867	-42.8018	-20.8066	-14.1607
  37	1	9	-0.2502	-35.2494	-24.9587	-4.35962
  38	1	9	-0.249785	-37.1916	-23.3926	-4.24635
  39	1	9	-0.32829	-35.3401	-23.0071	-5.90621
  40	1	10	0.056572	-37.8291	-24.1333	-3.74743
  41	1	10	0.044267	-37.8447	-22.6878	-4.77423
  42	1	10	0.051935	-36.6538	-22.8318	-3.47147
  43	1	10	0.069302	-34.6498	-23.4677	-6.62404
  44	1	10	0.077707	-34.7439	-22.4516	-5.17166
  45	1	10	0.059383	-35.9553	-22.2804	-6.44882
  46	1	10	0.048889	-35.804	-25.72	-3.797
  47	1	10	0.055177	-34.7043	-24.3444	-3.63188
  48	1	10	0.04962	-34.5062	-25.463	-4.9899
  49	1	1	0.438909	-49.0053	-4.86198	-18.5415
  50	1	1	0.108796	-48.4233	-5.77988	-19.3727
  51	1	2	-0.726889	-49.0734	-3.64698	-19.1096
  52	1	3	-0.675747	-48.1534	-5.15238	-20.5539
  53	1	1	-0.43042	-44.6896	-13.9026	-10.6523
  54	1	4	0.62373	-48.509	-3.81579	-20.3166
  55	1	1	0.00157	-45.6391	-12.4081	-12.8419
  56	1	5	0.178696	-46.976	-11.9616	-17.9053
  57	1	2	-0.592725	-46.2739	-12.1291	-15.2323
  58	1	6	-0.000174	-48.3339	-7.42221	-17.597
  59	1	5	0.1602	-47.5634	-7.92896	-14.9948
  60	1	4	0.461284	-46.1488	-11.6344	-13.9898
  61	1	1	-0.167191	-49.0196	-6.48044	-16.7696
  62	1	5	0.164364	-47.5045	-7.7219	-19.6037
  63	1	1	-0.325009	-49.3495	-5.18954	-17.2333
  64	1	8	0.422373	-47.6182	-5.50176	-21.3256
  65	1	1	-0.217421	-48.0536	-7.05901	-18.9451
  66	1	5	0.173851	-45.2582	-14.1904	-13.9984
  67	1	5	0.197073	-44.3248	-14.4915	-9.8229
  68	1	6	0.024852	-47.8343	-8.71415	-17.0227
  69	1	1	0.048807	-46.9729	-9.99501	-15.1592
  70	1	1	0.060532	-45.1059	-12.5678	-10.4378
  71	1	5	0.140008	-47.9187	-9.84719	-18.8824
  72	1	5	0.202663	-49.8092	-4.44321	-16.595
  73	1	1	-0.222969	-47.4786	-8.7897	-15.6479
  74	1	1	0.35235	-46.7895	-11.1023	-15.9392
  75	1	1	0.269742	-44.7352	-14.5039	-11.9317
  76	1	1	-0.166682	-47.646	-9.87606	-17.8317
  77	1	1	-0.277787	-47.122	-11.076	-17.2959
  78	1	1	-0.312482	-45.2151	-13.7381	-13.0087
  79	1	9	0.442075	-45.0891	-11.8917	-9.03677
  80	1	5	0.128262	-45.9074	-10.8211	-11.4077
  81	1	3	-0.434358	-46.5653	-10.3049	-13.8994
  82	1	8	0.354457	-46.5628	-9.72084	-13.0843
  83	1	1	-0.233188	-45.574	-11.8419	-11.5526
  84	1	5	0.143867	-49.2682	-6.7431	-15.7455
  85	1	9	-0.2502	-46.5346	-11.5476	-8.60499
  86	1	9	-0.249785	-44.2525	-10.5888	-9.07263
  87	1	9	-0.32829	-44.4798	-12.7918	-7.93094
  88	1	10	0.056572	-44.199	-10.1286	-8.07787
  89	1	10	0.044267	-44.6845	-9.84632	-9.75345
  90	1	10	0.051935	-43.2275	-10.7959	-9.40464
  91	1	10	0.069302	-43.4441	-13.0625	-8.17114
  92	1	10	0.077707	-45.0651	-13.7105	-7.80342
  93	1	10	0.059383	-44.4704	-12.2737	-6.96364
  94	1	10	0.048889	-47.1539	-12.4528	-8.57107
  95	1	10	0.055177	-47.0053	-10.8453	-9.30299
  96	1	10	0.04962	-46.5509	-11.0881	-7.60865
  97	1	1	0.438909	-42.92	7.58015	-18.0409
  98	1	1	0.108796	-44.0665	7.56405	-17.2962
  99	1	2	-0.726889	-41.9427	8.27318	-17.4345
 100	1	3	-0.675747	-43.841	8.30984	-16.1748
 101	1	1	-0.43042	-47.6478	-2.89368	-22.5159
 102	1	4	0.62373	-42.4866	8.66421	-16.2698
 103	1	1	0.00157	-47.8251	-0.271123	-21.501
 104	1	5	0.178696	-48.1461	2.65651	-17.2341
 105	1	2	-0.592725	-48.1651	1.28831	-19.611
 106	1	6	-0.000174	-45.0634	5.89416	-18.7469
 107	1	5	0.1602	-45.6299	4.53802	-21.132
 108	1	4	0.461284	-47.7555	1.06053	-20.868
 109	1	1	-0.167191	-43.8817	5.97691	-19.5486
 110	1	5	0.164364	-46.0179	6.72034	-16.9504
 111	1	1	-0.325009	-42.8052	6.82168	-19.2023
 112	1	8	0.422373	-44.4261	8.39416	-15.3661
 113	1	1	-0.217421	-45.1552	6.74299	-17.6044
 114	1	5	0.173851	-48.6847	-1.19898	-19.7557
 115	1	5	0.197073	-47.567	-3.91026	-22.8765
 116	1	6	0.024852	-46.0822	4.81637	-19.0026
 117	1	1	0.048807	-46.9932	3.04245	-20.387
 118	1	1	0.060532	-47.2446	-1.8132	-23.3366
 119	1	5	0.140008	-46.7476	4.69258	-16.9252
 120	1	5	0.202663	-41.8738	6.82833	-19.7578
 121	1	1	-0.222969	-46.1934	4.18572	-20.2764
 122	1	1	0.35235	-47.6625	2.50223	-19.3238
 123	1	1	0.269742	-48.1796	-2.68615	-21.224
 124	1	1	-0.166682	-46.8434	4.27375	-17.9209
 125	1	1	-0.277787	-47.639	3.11873	-18.0744
 126	1	1	-0.312482	-48.308	-1.36528	-20.7635
 127	1	9	0.442075	-46.6812	-2.01541	-24.7711
 128	1	5	0.128262	-46.9472	0.32487	-23.3757
 129	1	3	-0.434358	-47.099	2.16229	-21.425
 130	1	8	0.354457	-46.6222	2.18964	-22.307
 131	1	1	-0.233188	-47.3142	-0.51147	-22.7919
 132	1	5	0.143867	-43.7541	5.3146	-20.3985
 133	1	9	-0.2502	-45.1833	-1.63133	-24.8031
 134	1	9	-0.249785	-47.453	-1.13002	-25.781
 135	1	9	-0.32829	-46.7976	-3.47789	-25.2739
 136	1	10	0.056572	-47.1062	-1.30664	-26.8068
 137	1	10	0.044267	-47.3212	-0.0624425	-25.5712
 138	1	10	0.051935	-48.5273	-1.35111	-25.7445
 139	1	10	0.069302	-46.1962	-4.15877	-24.6596
 140	1	10	0.077707	-46.4365	-3.56702	-26.3061
 141	1	10	0.059383	-47.8411	-3.81735	-25.2571
 142	1	10	0.048889	-44.7595	-1.7763	-25.8049
 143	1	10	0.055177	-44.6114	-2.25018	-24.1002
 144	1	10	0.04962	-45.0334	-0.58141	-24.525
 145	1	1	0.438909	-29.5751	8.54285	-12.6253
 146	1	1	0.108796	-30.3575	9.54335	-12.1157
 147	1	2	-0.726889	-28.3365	8.57966	-12.1224
 148	1	3	-0.675747	-29.5948	10.2557	-11.2295
 149	1	1	-0.43042	-42.2669	9.65938	-13.9381
 150	1	4	0.62373	-28.3272	9.65832	-11.3256
 151	1	1	0.00157	-39.4705	9.78602	-14.2495
 152	1	5	0.178696	-35.2659	8.67369	-17.1193
 153	1	2	-0.592725	-37.4164	9.39012	-15.5629
 154	1	6	-0.000174	-32.1852	8.8969	-13.5574
 155	1	5	0.1602	-34.4992	9.73994	-12.2783
 156	1	4	0.461284	-38.0067	9.73726	-14.41
 157	1	1	-0.167191	-31.3674	7.83302	-14.0395
 158	1	5	0.164364	-32.2563	10.5895	-12.1693
 159	1	1	-0.325009	-30.0504	7.6525	-13.5798
 160	1	8	0.422373	-29.8112	11.1415	-10.812
 161	1	1	-0.217421	-31.6686	9.76226	-12.5511
 162	1	5	0.173851	-39.8408	9.07456	-16.2484
 163	1	5	0.197073	-43.3402	9.58365	-13.83
 164	1	6	0.024852	-33.5452	9.09612	-14.1377
 165	1	1	0.048807	-35.887	9.63657	-13.936
 166	1	1	0.060532	-41.4761	10.1377	-12.8636
 167	1	5	0.140008	-32.9595	8.49454	-16.1493
 168	1	5	0.202663	-29.4099	6.86201	-13.9588
 169	1	1	-0.222969	-34.6293	9.53847	-13.3353
 170	1	1	0.35235	-36.1121	9.32222	-15.2483
 171	1	1	0.269742	-41.6897	9.26918	-15.1686
 172	1	1	-0.166682	-33.7835	8.81104	-15.5158
 173	1	1	-0.277787	-35.07	8.91995	-16.0812
 174	1	1	-0.312482	-40.2981	9.38725	-15.3112
 175	1	9	0.442075	-42.0803	10.5978	-11.5075
 176	1	5	0.128262	-39.4453	10.4812	-12.2133
 177	1	3	-0.434358	-37.0892	9.94491	-13.3757
 178	1	8	0.354457	-37.2897	10.1024	-12.406
 179	1	1	-0.233188	-40.0751	10.1619	-13.0358
 180	1	5	0.143867	-31.7631	7.14025	-14.7782
 181	1	9	-0.2502	-41.6249	12.0425	-11.183
 182	1	9	-0.249785	-41.609	9.65728	-10.3726
 183	1	9	-0.32829	-43.6305	10.5981	-11.4981
 184	1	10	0.056572	-42.0412	9.95555	-9.40932
 185	1	10	0.044267	-40.5177	9.67043	-10.2662
 186	1	10	0.051935	-41.9147	8.62335	-10.5762
 187	1	10	0.069302	-44.0266	11.2539	-12.2836
 188	1	10	0.077707	-44.0162	10.9624	-10.5377
 189	1	10	0.059383	-44.0289	9.58742	-11.6493
 190	1	10	0.048889	-42.0847	12.4038	-10.2546
 191	1	10	0.055177	-41.9113	12.7274	-11.9911
 192	1	10	0.04962	-40.538	12.1076	-11.057
 193	1	1	0.438909	-15.5555	5.31261	-11.2329
 194	1	1	0.108796	-16.3618	4.8935	-12.2494
 195	1	2	-0.726889	-14.4078	4.6134	-11.1937
 196	1	3	-0.675747	-15.7112	3.90595	-12.9223
 197	1	1	-0.43042	-27.0392	11.1599	-9.708
 198	1	4	0.62373	-14.5091	3.75114	-12.2218
 199	1	1	0.00157	-24.6433	9.85111	-10.4309
 200	1	5	0.178696	-22.3831	6.52791	-13.705
 201	1	2	-0.592725	-23.4583	8.30626	-11.93
 202	1	6	-0.000174	-18.1222	6.44566	-11.6201
 203	1	5	0.1602	-19.4815	8.40339	-10.0846
 204	1	4	0.461284	-23.4273	9.15336	-10.8923
 205	1	1	-0.167191	-17.2453	6.89729	-10.5794
 206	1	5	0.164364	-18.2116	4.99917	-13.2889
 207	1	1	-0.325009	-15.9657	6.33038	-10.3758
 208	1	8	0.422373	-16.046	3.34671	-13.683
 209	1	1	-0.217421	-17.6342	5.41132	-12.4756
 210	1	5	0.173851	-25.8893	8.72154	-11.7688
 211	1	5	0.197073	-27.9692	11.6474	-9.44716
 212	1	6	0.024852	-19.5225	6.99605	-11.7823
 213	1	1	0.048807	-21.3914	8.3847	-11.0622
 214	1	1	0.060532	-25.8264	11.534	-9.07192
 215	1	5	0.140008	-20.0425	5.78096	-13.5399
 216	1	5	0.202663	-15.3102	6.65126	-9.5736
 217	1	1	-0.222969	-20.061	7.97954	-10.893
 218	1	1	0.35235	-22.2013	7.85488	-12.0252
 219	1	1	0.269742	-27.0792	10.1224	-10.6642
 220	1	1	-0.166682	-20.3855	6.50773	-12.8168
 221	1	1	-0.277787	-21.7241	6.92314	-12.938
 222	1	1	-0.312482	-25.871	9.50223	-11.0104
 223	1	9	0.442075	-25.7578	12.6526	-7.99351
 224	1	5	0.128262	-23.7016	11.1205	-8.97025
 225	1	3	-0.434358	-22.1493	9.2613	-10.3318
 226	1	8	0.354457	-21.8781	9.81603	-9.54077
 227	1	1	-0.233188	-24.6417	10.8493	-9.43794
 228	1	5	0.143867	-17.5552	7.68053	-9.89868
 229	1	9	-0.2502	-24.7539	13.7512	-8.42127
 230	1	9	-0.249785	-25.3013	12.0524	-6.64228
 231	1	9	-0.32829	-27.1194	13.3538	-7.74978
 232	1	10	0.056572	-25.2671	12.8215	-5.86031
 233	1	10	0.044267	-24.3012	11.6094	-6.71721
 234	1	10	0.051935	-25.994	11.2668	-6.31517
 235	1	10	0.069302	-27.4927	13.8183	-8.67107
 236	1	10	0.077707	-27.022	14.1466	-6.99743
 237	1	10	0.059383	-27.8715	12.6445	-7.38297
 238	1	10	0.048889	-24.7225	14.5653	-7.68602
 239	1	10	0.055177	-25.0407	14.1811	-9.38923
 240	1	10	0.04962	-23.7358	13.3567	-8.51633
 241	1	1	0.438909	-2.90665	-1.06482	-7.05027
 242	1	1	0.108796	-3.77369	-0.361713	-6.26285
 243	1	2	-0.726889	-1.94499	-1.66132	-6.31026
 244	1	3	-0.675747	-3.36203	-0.468518	-4.98131
 245	1	1	-0.43042	-13.531	1.97476	-13.7488
 246	1	4	0.62373	-2.25361	-1.31597	-5.04498
 247	1	1	0.00157	-11.3437	1.65596	-12.0074
 248	1	5	0.178696	-8.74899	3.28649	-7.81603
 249	1	2	-0.592725	-10.0696	2.31282	-10.0054
 250	1	6	-0.000174	-5.19969	0.188997	-8.12391
 251	1	5	0.1602	-6.71657	-0.531396	-10.3587
 252	1	4	0.461284	-10.2091	1.52421	-11.0796
 253	1	1	-0.167191	-4.27888	-0.517452	-8.95984
 254	1	5	0.164364	-5.60325	0.73264	-6.03884
 255	1	1	-0.325009	-3.12844	-1.15321	-8.42692
 256	1	8	0.422373	-3.8031	-0.103867	-4.15937
 257	1	1	-0.217421	-4.92361	0.255908	-6.73475
 258	1	5	0.173851	-12.2974	3.18559	-10.8224
 259	1	5	0.197073	-14.3645	2.13313	-14.4189
 260	1	6	0.024852	-6.45694	0.813545	-8.64632
 261	1	1	0.048807	-8.33047	0.897643	-10.1731
 262	1	1	0.060532	-12.5041	1.06287	-14.0961
 263	1	5	0.140008	-6.55605	2.34335	-7.08792
 264	1	5	0.202663	-2.4367	-1.71139	-9.04771
 265	1	1	-0.222969	-7.11809	0.306192	-9.80008
 266	1	1	0.35235	-8.90397	1.92167	-9.46994
 267	1	1	0.269742	-13.4643	2.75504	-12.5716
 268	1	1	-0.166682	-7.0542	1.9085	-7.94799
 269	1	1	-0.277787	-8.28556	2.46156	-8.34697
 270	1	1	-0.312482	-12.3571	2.58691	-11.7296
 271	1	9	0.442075	-12.4767	0.299557	-15.4496
 272	1	5	0.128262	-10.6311	0.213962	-13.4368
 273	1	3	-0.434358	-9.1562	0.614646	-11.2218
 274	1	8	0.354457	-9.04576	-0.0789707	-11.9385
 275	1	1	-0.233188	-11.4317	0.902791	-13.1926
 276	1	5	0.143867	-4.46297	-0.572904	-10.0291
 277	1	9	-0.2502	-12.338	-1.22526	-15.218
 278	1	9	-0.249785	-11.2765	0.79494	-16.293
 279	1	9	-0.32829	-13.755	0.517243	-16.2997
 280	1	10	0.056572	-11.2428	0.294712	-17.2688
 281	1	10	0.044267	-10.3232	0.602589	-15.7862
 282	1	10	0.051935	-11.3485	1.87593	-16.4691
 283	1	10	0.069302	-14.649	0.187407	-15.7568
 284	1	10	0.077707	-13.704	-0.0529119	-17.2357
 285	1	10	0.059383	-13.8762	1.57389	-16.5694
 286	1	10	0.048889	-11.398	-1.47634	-14.7133
 287	1	10	0.055177	-12.3521	-1.76995	-16.1704
 288	1	10	0.04962	-13.1632	-1.59825	-14.5994
 289	1	1	0.438909	5.25488	-10.3757	1.37163
 290	1	1	0.108796	5.8742	-10.3513	0.149561
 291	1	2	-0.726889	6.07497	-10.7771	2.34388
 292	1	3	-0.675747	7.12539	-10.8888	0.325316
 293	1	1	-0.43042	-2.08581	-1.42752	-2.54923
 294	1	4	0.62373	7.22786	-11.0487	1.71866
 295	1	1	0.00157	0.00580726	-3.297	-2.69582
 296	1	5	0.178696	3.25073	-6.86317	-4.95892
 297	1	2	-0.592725	1.62444	-4.90696	-3.78342
 298	1	6	-0.000174	4.06718	-9.01223	-0.74668
 299	1	5	0.1602	2.67784	-6.81646	0.000128924
 300	1	4	0.461284	1.04633	-4.33919	-2.70665
 301	1	1	-0.167191	3.36488	-9.2426	0.476721
 302	1	5	0.164364	5.90721	-9.47721	-1.83991
 303	1	1	-0.325009	3.97203	-9.88913	1.56214
 304	1	8	0.422373	7.85158	-11.0034	-0.353987
 305	1	1	-0.217421	5.33332	-9.64137	-0.936026
 306	1	5	0.173851	-0.155717	-3.07823	-4.84074
 307	1	5	0.197073	-2.89979	-0.719321	-2.50235
 308	1	6	0.024852	3.52947	-7.95841	-1.66754
 309	1	1	0.048807	2.25632	-5.92671	-1.88984
 310	1	1	0.060532	-1.57046	-1.95373	-1.34966
 311	1	5	0.140008	4.29557	-8.70352	-3.56362
 312	1	5	0.202663	3.50799	-9.944	2.54086
 313	1	1	-0.222969	2.80945	-6.89461	-1.07234
 314	1	1	0.35235	2.36835	-5.90867	-3.24735
 315	1	1	0.269742	-1.59365	-1.82383	-3.81759
 316	1	1	-0.166682	3.72297	-7.91782	-3.08338
 317	1	1	-0.277787	3.14163	-6.89079	-3.88042
 318	1	1	-0.312482	-0.533051	-2.74962	-3.87348
 319	1	9	0.442075	-2.13162	-1.60108	0.0561837
 320	1	5	0.128262	-0.132153	-3.29567	-0.536629
 321	1	3	-0.434358	1.46193	-4.91099	-1.51206
 322	1	8	0.354457	1.10219	-4.71769	-0.597191
 323	1	1	-0.233188	-0.522645	-2.87925	-1.45555
 324	1	5	0.143867	2.37146	-8.82772	0.623328
 325	1	9	-0.2502	-2.71144	-2.87245	0.724964
 326	1	9	-0.249785	-3.26335	-0.543287	0.0160274
 327	1	9	-0.32829	-1.00327	-1.0369	0.952939
 328	1	10	0.056572	-2.90948	0.394894	-0.428828
 329	1	10	0.044267	-3.62221	-0.315632	1.02785
 330	1	10	0.051935	-4.12266	-0.905552	-0.56205
 331	1	10	0.069302	-0.537149	-0.163541	0.479961
 332	1	10	0.077707	-0.218591	-1.78014	1.13366
 333	1	10	0.059383	-1.39312	-0.726582	1.93035
 334	1	10	0.048889	-3.12031	-2.6453	1.71753
 335	1	10	0.055177	-1.94745	-3.6483	0.851959
 336	1	10	0.04962	-3.51957	-3.29599	0.115189
 337	1	1	0.438909	18.9011	-14.5551	-0.352485
 338	1	1	0.108796	18.1797	-14.2022	0.750824
 339	1	2	-0.726889	20.005	-13.7609	-0.478654
 340	1	3	-0.675747	18.7598	-13.1485	1.32757
 341	1	1	-0.43042	8.44938	-11.1277	3.87329
 342	1	4	0.62373	19.8056	-12.8238	0.475728
 343	1	1	0.00157	10.4943	-12.7035	2.81424
 344	1	5	0.178696	13.8536	-16.5235	3.85942
 345	1	2	-0.592725	12.0807	-14.5536	3.1826
 346	1	6	-0.000174	16.3426	-15.6322	0.213739
 347	1	5	0.1602	14.0073	-14.5602	-0.728722
 348	1	4	0.461284	11.4837	-13.6952	2.34484
 349	1	1	-0.167191	17.0582	-16.0339	-0.95695
 350	1	5	0.164364	16.4042	-14.3207	1.94372
 351	1	1	-0.325009	18.3576	-15.5063	-1.23621
 352	1	8	0.422373	18.4488	-12.622	2.12148
 353	1	1	-0.217421	16.9385	-14.6979	1.07718
 354	1	5	0.173851	9.50847	-12.419	0.904755
 355	1	5	0.197073	7.61434	-10.5645	4.27782
 356	1	6	0.024852	14.9569	-15.9778	0.630601
 357	1	1	0.048807	12.8661	-14.8372	1.09345
 358	1	1	0.060532	9.50849	-11.4806	4.72157
 359	1	5	0.140008	15.6917	-17.1631	2.29187
 360	1	5	0.202663	18.8939	-15.7603	-2.14367
 361	1	1	-0.222969	13.9026	-15.1269	0.191594
 362	1	1	0.35235	12.8998	-15.2706	2.39273
 363	1	1	0.269742	8.42838	-11.4413	2.49987
 364	1	1	-0.166682	14.8531	-16.5795	1.91864
 365	1	1	-0.277787	13.8379	-16.2072	2.82159
 366	1	1	-0.312482	9.52904	-12.1351	1.95003
 367	1	9	0.442075	9.53943	-10.9839	6.19612
 368	1	5	0.128262	11.243	-12.762	4.83053
 369	1	3	-0.434358	11.8969	-13.8725	1.0189
 370	1	8	0.354457	11.6541	-13.3065	0.227817
 371	1	1	-0.233188	10.4705	-12.3572	4.18435
 372	1	5	0.143867	16.5904	-16.728	-1.65135
 373	1	9	-0.2502	10.9783	-10.9328	6.77152
 374	1	9	-0.249785	8.67999	-11.9229	7.0675
 375	1	9	-0.32829	8.97797	-9.53968	6.33039
 376	1	10	0.056572	9.07011	-12.9473	7.02982
 377	1	10	0.044267	7.64358	-11.9438	6.70718
 378	1	10	0.051935	8.67089	-11.5951	8.11422
 379	1	10	0.069302	9.49576	-8.85557	5.64619
 380	1	10	0.077707	9.10843	-9.15727	7.35036
 381	1	10	0.059383	7.90449	-9.49179	6.11515
 382	1	10	0.048889	11.4183	-11.9328	6.85573
 383	1	10	0.055177	10.9834	-10.4947	7.77774
 384	1	10	0.04962	11.6291	-10.319	6.13583
 385	1	1	0.438909	30.5002	-11.1922	5.8566
 386	1	1	0.108796	29.1948	-11.119	6.26334
 387	1	2	-0.726889	31.1759	-12.0965	6.56381
 388	1	3	-0.675747	29.0476	-11.9243	7.36416
 389	1	1	-0.43042	19.6255	-10.4891	1.20957
 390	1	4	0.62373	30.2685	-12.6106	7.40983
 391	1	1	0.00157	22.3206	-9.93777	0.775573
 392	1	5	0.178696	25.8553	-6.66707	2.47427
 393	1	2	-0.592725	24.1989	-8.44179	1.27202
 394	1	6	-0.000174	28.622	-10.0212	4.19077
 395	1	5	0.1602	27.0259	-11.539	2.54431
 396	1	4	0.461284	23.7601	-9.6616	0.937876
 397	1	1	-0.167191	29.9983	-10.0084	3.83698
 398	1	5	0.164364	27.1617	-10.6135	5.70337
 399	1	1	-0.325009	30.9547	-10.6115	4.67517
 400	1	8	0.422373	28.1878	-12.2221	7.78818
 401	1	1	-0.217421	28.2128	-10.5669	5.43793
 402	1	5	0.173851	22.459	-12.0034	0.0746394
 403	1	5	0.197073	18.5774	-10.6977	1.37771
 404	1	6	0.024852	27.6003	-9.54602	3.23266
 405	1	1	0.048807	25.7605	-9.97279	1.72856
 406	1	1	0.060532	20.0707	-9.18216	1.43542
 407	1	5	0.140008	27.8684	-7.47683	3.78559
 408	1	5	0.202663	31.9903	-10.736	4.3803
 409	1	1	-0.222969	26.8295	-10.4733	2.48016
 410	1	1	0.35235	25.4235	-8.64686	1.76118
 411	1	1	0.269742	20.4473	-11.5003	0.661821
 412	1	1	-0.166682	27.2941	-8.1625	3.17657
 413	1	1	-0.277787	26.1874	-7.69928	2.44167
 414	1	1	-0.312482	21.8063	-11.2108	0.426563
 415	1	9	0.442075	19.1032	-8.13581	2.0506
 416	1	5	0.128262	21.8224	-7.94456	1.42652
 417	1	3	-0.434358	24.7439	-10.6432	1.09831
 418	1	8	0.354457	24.5901	-11.6349	1.06744
 419	1	1	-0.233188	21.4255	-8.92391	1.18423
 420	1	5	0.143867	30.2984	-9.6147	2.86881
 421	1	9	-0.2502	17.7655	-8.10174	1.2663
 422	1	9	-0.249785	19.6865	-6.70067	2.07818
 423	1	9	-0.32829	18.7783	-8.54164	3.50592
 424	1	10	0.056572	20.0254	-6.39278	1.08317
 425	1	10	0.044267	20.5431	-6.63754	2.76136
 426	1	10	0.051935	18.9412	-5.97449	2.42457
 427	1	10	0.069302	19.6941	-8.57616	4.10892
 428	1	10	0.077707	18.3156	-9.53475	3.54641
 429	1	10	0.059383	18.0877	-7.82748	3.97083
 430	1	10	0.048889	17.153	-7.2377	1.55002
 431	1	10	0.055177	17.165	-9.00066	1.44597
 432	1	10	0.04962	17.9561	-8.05617	0.19567
 433	1	1	0.438909	34.4818	-20.4048	-0.856483
 434	1	1	0.108796	35.233	-19.311	-0.514161
 435	1	2	-0.726889	34.7405	-20.8302	-2.10821
 436	1	3	-0.675747	35.9817	-18.9858	-1.61178
 437	1	1	-0.43042	29.791	-14.4608	9.1418
 438	1	4	0.62373	35.6479	-19.9567	-2.57355
 439	1	1	0.00157	31.6742	-16.0772	7.79486
 440	1	5	0.178696	34.7871	-20.1463	6.33586
 441	1	2	-0.592725	33.1253	-18.0424	7.09886
 442	1	6	-0.000174	34.3189	-19.3072	1.73009
 443	1	5	0.1602	33.0492	-17.0667	2.78041
 444	1	4	0.461284	32.4726	-16.8953	6.8524
 445	1	1	-0.167191	33.5004	-20.4039	1.33617
 446	1	5	0.164364	35.8362	-17.8927	1.02367
 447	1	1	-0.325009	33.5755	-20.9618	0.0423115
 448	1	8	0.422373	36.6147	-18.2152	-1.72413
 449	1	1	-0.217421	35.195	-18.729	0.765626
 450	1	5	0.173851	31.9441	-14.3698	6.53763
 451	1	5	0.197073	29.0321	-13.8462	9.61114
 452	1	6	0.024852	34.2367	-18.8592	3.15637
 453	1	1	0.048807	33.2509	-17.5105	4.89961
 454	1	1	0.060532	30.1298	-15.7287	9.69185
 455	1	5	0.140008	35.3181	-20.58	3.91042
 456	1	5	0.202663	32.967	-21.8066	-0.259284
 457	1	1	-0.222969	33.4858	-17.7166	3.53229
 458	1	1	0.35235	33.643	-18.376	5.88617
 459	1	1	0.269742	30.5033	-13.9293	8.04835
 460	1	1	-0.166682	34.7386	-19.7039	4.19015
 461	1	1	-0.277787	34.4418	-19.4753	5.55697
 462	1	1	-0.312482	31.4281	-14.7585	7.40794
 463	1	9	0.442075	29.3763	-16.2489	10.9558
 464	1	5	0.128262	31.3259	-17.5295	9.33375
 465	1	3	-0.434358	32.5344	-16.5322	5.50131
 466	1	8	0.354457	32.0208	-15.7879	5.06504
 467	1	1	-0.233188	31.094	-16.5222	9.0024
 468	1	5	0.143867	32.8124	-20.8302	2.06288
 469	1	9	-0.2502	30.1245	-17.3901	11.6915
 470	1	9	-0.249785	27.986	-16.7762	10.5332
 471	1	9	-0.32829	29.1608	-15.1216	12.003
 472	1	10	0.056572	27.4044	-15.9915	10.0345
 473	1	10	0.044267	27.4115	-17.1232	11.4017
 474	1	10	0.051935	28.0871	-17.6156	9.83426
 475	1	10	0.069302	28.7422	-15.5234	12.9347
 476	1	10	0.077707	28.4588	-14.3593	11.6487
 477	1	10	0.059383	30.1102	-14.6292	12.2475
 478	1	10	0.048889	29.5931	-17.6815	12.6069
 479	1	10	0.055177	31.1353	-17.0741	11.9778
 480	1	10	0.04962	30.2024	-18.2896	11.07
 481	1	1	0.438909	35.7137	-9.53906	-9.41053
 482	1	1	0.108796	36.858	-10.0697	-9.94742
 483	1	2	-0.726889	35.6263	-8.2156	-9.63175
 484	1	3	-0.675747	37.5074	-9.06711	-10.6038
 485	1	1	-0.43042	35.8431	-21.0433	-4.85797
 486	1	4	0.62373	36.7518	-7.92468	-10.3081
 487	1	1	0.00157	37.0909	-18.7557	-5.87724
 488	1	5	0.178696	38.5066	-13.9043	-4.87292
 489	1	2	-0.592725	37.9913	-16.4877	-5.58051
 490	1	6	-0.000174	36.5623	-12.105	-8.69194
 491	1	5	0.1602	36.5268	-14.8285	-9.39214
 492	1	4	0.461284	37.53	-17.4476	-6.3928
 493	1	1	-0.167191	35.3278	-11.5804	-8.21176
 494	1	5	0.164364	38.3181	-11.6743	-9.91312
 495	1	1	-0.325009	34.8915	-10.2876	-8.57059
 496	1	8	0.422373	38.4314	-9.0902	-10.9928
 497	1	1	-0.217421	37.3371	-11.3358	-9.59711
 498	1	5	0.173851	37.1022	-18.0591	-3.84236
 499	1	5	0.197073	35.3065	-21.8964	-4.45152
 500	1	6	0.024852	37.1533	-13.2725	-7.98944
 501	1	1	0.048807	37.4554	-15.6349	-7.59331
 502	1	1	0.060532	36.2161	-21.029	-6.22206
 503	1	5	0.140008	37.8282	-12.001	-6.36672
 504	1	5	0.202663	34.0086	-9.83528	-8.13351
 505	1	1	-0.222969	37.0184	-14.6109	-8.44919
 506	1	1	0.35235	37.9375	-15.3801	-6.33481
 507	1	1	0.269742	36.1465	-19.9819	-3.97779
 508	1	1	-0.166682	37.7477	-13.0259	-6.72149
 509	1	1	-0.277787	38.1404	-14.0803	-5.87831
 510	1	1	-0.312482	36.8722	-18.8958	-4.49292
 511	1	9	0.442075	35.9697	-22.2777	-7.11799
 512	1	5	0.128262	36.9653	-19.7247	-7.78959
 513	1	3	-0.434358	37.2864	-16.9893	-7.69331
 514	1	8	0.354457	36.7982	-17.4917	-8.413
 515	1	1	-0.233188	36.7585	-19.8261	-6.73048
 516	1	5	0.143867	34.766	-12.1489	-7.47328
 517	1	9	-0.2502	36.4526	-23.5665	-6.40188
 518	1	9	-0.249785	36.7279	-22.2195	-8.47103
 519	1	9	-0.32829	34.4621	-22.4142	-7.422
 520	1	10	0.056572	36.6002	-23.1544	-9.03191
 521	1	10	0.044267	37.804	-22.0728	-8.31175
 522	1	10	0.051935	36.3552	-21.4094	-9.1085
 523	1	10	0.069302	33.883	-22.5021	-6.4946
 524	1	10	0.077707	34.2617	-23.3037	-8.03207
 525	1	10	0.059383	34.0953	-21.5356	-7.96668
 526	1	10	0.048889	35.8835	-23.7652	-5.48677
 527	1	10	0.055177	37.5124	-23.4835	-6.12975
 528	1	10	0.04962	36.3391	-24.4459	-7.04835
 529	1	1	0.438909	26.8962	-0.329899	-5.59685
 530	1	1	0.108796	27.4519	0.750734	-6.17812
 531	1	2	-0.726889	25.8103	-0.0756649	-4.88037
 532	1	3	-0.675747	26.6019	1.80504	-5.88261
 533	1	1	-0.43042	38.3133	-6.2432	-11.3809
 534	1	4	0.62373	25.6301	1.23999	-5.01955
 535	1	1	0.00157	36.8716	-4.11437	-10.2036
 536	1	5	0.178696	35.1722	0.891598	-9.28709
 537	1	2	-0.592725	36.2049	-1.7116	-9.68348
 538	1	6	-0.000174	29.6186	-0.52424	-6.90233
 539	1	5	0.1602	32.8951	-2.96924	-7.36972
 540	1	4	0.461284	36.0837	-3.04731	-9.53484
 541	1	1	-0.167191	28.701	-1.6195	-6.39277
 542	1	5	0.164364	29.0059	1.65613	-7.21025
 543	1	1	-0.325009	27.4658	-1.55046	-5.74733
 544	1	8	0.422373	26.7436	2.78231	-6.06988
 545	1	1	-0.217421	28.712	0.687476	-6.82275
 546	1	5	0.173851	35.6235	-5.70334	-9.41174
 547	1	5	0.197073	38.8682	-7.06786	-11.8074
 548	1	6	0.024852	32.381	-0.765084	-7.69052
 549	1	1	0.048807	34.4419	-2.19502	-8.38563
 550	1	1	0.060532	38.7164	-4.91482	-11.6495
 551	1	5	0.140008	33.085	1.30537	-8.29357
 552	1	5	0.202663	26.9755	-2.42316	-5.32977
 553	1	1	-0.222969	33.2301	-2.00917	-7.73756
 554	1	1	0.35235	35.1378	-1.22259	-8.99075
 555	1	1	0.269742	37.1836	-6.53196	-10.5935
 556	1	1	-0.166682	33.3498	0.253833	-8.24212
 557	1	1	-0.277787	34.6263	0.0591641	-8.85662
 558	1	1	-0.312482	36.4814	-5.45784	-10.0256
 559	1	9	0.442075	39.9593	-4.66406	-12.5548
 560	1	5	0.128262	38.2784	-2.82725	-11.1805
 561	1	3	-0.434358	35.0353	-3.37647	-8.67988
 562	1	8	0.354457	34.717	-4.30152	-8.46077
 563	1	1	-0.233188	37.985	-3.86219	-11.0345
 564	1	5	0.143867	28.9792	-2.66756	-6.38958
 565	1	9	-0.2502	41.2447	-4.92284	-11.7362
 566	1	9	-0.249785	40.0122	-3.22285	-13.1176
 567	1	9	-0.32829	39.9776	-5.61354	-13.7857
 568	1	10	0.056572	40.1597	-2.48567	-12.3199
 569	1	10	0.044267	39.0846	-2.97986	-13.6513
 570	1	10	0.051935	40.8447	-3.10633	-13.8231
 571	1	10	0.069302	40.8068	-5.366	-14.4604
 572	1	10	0.077707	39.044	-5.52791	-14.3554
 573	1	10	0.059383	40.1124	-6.66304	-13.5027
 574	1	10	0.048889	41.2906	-5.96459	-11.3951
 575	1	10	0.055177	41.2753	-4.27777	-10.8494
 576	1	10	0.04962	42.1427	-4.72362	-12.3346
 577	1	1	0.438909	13.754	5.11671	-5.89073
 578	1	1	0.108796	14.4671	5.14123	-7.05692
 579	1	2	-0.726889	12.6238	4.39739	-6.02111
 580	1	3	-0.675747	13.7307	4.5048	-8.01243
 581	1	1	-0.43042	23.9345	1.15495	-3.19864
 582	1	4	0.62373	12.656	3.96626	-7.29458
 583	1	1	0.00157	22.8288	3.62416	-3.85421
 584	1	5	0.178696	20.7254	5.93429	-7.95227
 585	1	2	-0.592725	22.0194	5.16238	-5.63318
 586	1	6	-0.000174	16.4592	5.91958	-5.90241
 587	1	5	0.1602	18.1251	5.64613	-3.69594
 588	1	4	0.461284	21.9787	4.72021	-4.36486
 589	1	1	-0.167191	15.6538	6.02202	-4.72277
 590	1	5	0.164364	16.3773	5.32058	-8.01226
 591	1	1	-0.325009	14.3029	5.60311	-4.70578
 592	1	8	0.422373	14.0622	4.15961	-8.89339
 593	1	1	-0.217421	15.8186	5.49075	-7.10171
 594	1	5	0.173851	24.2901	3.6804	-5.45317
 595	1	5	0.197073	24.3196	0.162498	-2.98912
 596	1	6	0.024852	17.9629	6.04104	-5.84672
 597	1	1	0.048807	20.044	5.65706	-4.66053
 598	1	1	0.060532	22.9052	1.64768	-2.38233
 599	1	5	0.140008	18.2619	6.32118	-7.98979
 600	1	5	0.202663	13.7214	5.56501	-3.79074
 601	1	1	-0.222969	18.6562	5.81729	-4.62462
 602	1	1	0.35235	20.7765	5.66992	-5.8158
 603	1	1	0.269742	24.5132	1.88471	-4.26365
 604	1	1	-0.166682	18.7509	6.15693	-7.03572
 605	1	1	-0.277787	20.154	5.96639	-7.03073
 606	1	1	-0.312482	23.9497	3.14125	-4.57421
 607	1	9	0.442075	22.3207	0.752457	-1.24817
 608	1	5	0.128262	21.5263	3.27446	-2.16611
 609	1	3	-0.434358	20.8404	5.15676	-3.684
 610	1	8	0.354457	20.565	4.88238	-2.75854
 611	1	1	-0.233188	22.3809	2.90893	-2.71901
 612	1	5	0.143867	16.098	6.35279	-3.789
 613	1	9	-0.2502	21.4985	-0.399856	-1.87376
 614	1	9	-0.249785	21.3902	1.52253	-0.27675
 615	1	9	-0.32829	23.4545	0.137774	-0.386135
 616	1	10	0.056572	21.0582	0.869959	0.540917
 617	1	10	0.044267	20.4875	1.88305	-0.78446
 618	1	10	0.051935	21.9106	2.37939	0.168701
 619	1	10	0.069302	23.0453	-0.435889	0.454851
 620	1	10	0.077707	24.0993	0.925077	0.0229027
 621	1	10	0.059383	24.0821	-0.550874	-0.96247
 622	1	10	0.048889	22.1083	-0.993725	-2.56532
 623	1	10	0.055177	20.642	-0.00822291	-2.4366
 624	1	10	0.04962	21.1108	-1.07558	-1.10075
 625	1	1	0.438909	17.2892	-2.33289	-1.81219
 626	1	1	0.108796	16.385	-3.30997	-1.48029
 627	1	2	-0.726889	18.5656	-2.72274	-1.60054
 628	1	3	-0.675747	17.0901	-4.35005	-0.988819