pySIMM System Object

1298 atoms
1432 bonds
2484 angles
3803 dihedrals
324 impropers

10 atom types
14 bond types
23 angle types
11 dihedral types
3 improper types

-157.875341 157.875341 xlo xhi
-157.875341 157.875341 ylo yhi
-157.875341 157.875341 zlo zhi

Masses

   1	12.01	# ca
   2	14.01	# nc
   3	14.01	# na
   4	12.01	# cd
   5	1.008	# ha
   6	12.01	# cp
   7	1.008	# h5
   8	1.008	# hn
   9	12.01	# c3
  10	1.008	# hc

Pair Coeffs

   1	0.086	3.3996695084235347	# ca
   2	0.17	3.249998523775958	# nc
   3	0.17	3.249998523775958	# na
   4	0.086	3.3996695084235347	# cd
   5	0.015	2.59964245953351	# ha
   6	0.086	3.3996695084235347	# cp
   7	0.015	2.421462715905442	# h5
   8	0.0157	1.069078461768407	# hn
   9	0.1094	3.3996695084235347	# c3
  10	0.0157	2.649532787749369	# hc

Bond Coeffs

   1	425.8	1.3802	# cd,na
   2	467.7	1.3517	# ca,nc
   3	345.8	1.086	# ca,ha
   4	351.8	1.0818	# cd,h5
   5	385.1	1.4555	# ca,cd
   6	351.4	1.4854	# cp,cp
   7	321.0	1.5156	# c3,ca
   8	525.4	1.3172	# cd,nc
   9	300.9	1.5375	# c3,c3
  10	330.6	1.0969	# c3,hc
  11	450.2	1.4058	# ca,cp
  12	420.5	1.384	# ca,na
  13	408.4	1.01	# hn,na
  14	461.1	1.3984	# ca,ca

Angle Coeffs

   1	66.72	118.38	# ca,cp,ca
   2	62.86	111.51	# c3,c3,c3
   3	66.26	120.69	# ca,ca,cp
   4	63.15	112.07	# c3,c3,ca
   5	67.4	113.15	# ca,na,cd
   6	46.34	109.8	# c3,c3,hc
   7	66.28	123.45	# ca,cd,na
   8	48.18	119.88	# ca,ca,ha
   9	67.6	123.24	# ca,cd,nc
  10	64.05	121.11	# ca,cp,cp
  11	46.75	125.5	# cd,na,hn
  12	66.62	120.02	# ca,ca,ca
  13	72.48	104.88	# ca,nc,cd
  14	74.9	112.22	# na,cd,nc
  15	46.63	125.54	# ca,na,hn
  16	65.02	120.79	# ca,ca,cd
  17	69.46	119.72	# ca,ca,nc
  18	47.98	119.86	# cp,ca,ha
  19	39.4	107.58	# hc,c3,hc
  20	63.53	120.77	# c3,ca,ca
  21	69.08	118.34	# ca,ca,na
  22	49.58	121.55	# h5,cd,na
  23	50.58	125.52	# h5,cd,nc

Dihedral Coeffs

   1	1	4.0	2	180	# X,ca,cd,X
   2	1	3.625	2	180	# X,ca,cp,X
   3	1	4.75	2	180	# X,cd,nc,X
   4	1	0.3	2	180	# X,ca,na,X
   5	1	3.625	2	180	# X,ca,ca,X
   6	1	1.7	2	180	# X,cd,na,X
   7	1	1.0	2	180	# X,cp,cp,X
   8	1	0.16	3	0	# hc,c3,c3,c3
   9	1	0.15555555555555556	3	0	# X,c3,c3,X
  10	1	0.0	2	0	# X,c3,ca,X
  11	1	4.8	2	180	# X,ca,nc,X

Improper Coeffs

   1	1.1	-1	2	# na,X,X,hn
   2	1.1	-1	2	# ca,ca,ca,c3
   3	1.1	-1	2	# ca,X,X,ha

Atoms

   1	1	1	0.438909	-2.48505	24.8417	-31.1664
   2	1	1	0.108796	-1.46745	23.9455	-30.9842
   3	1	2	-0.726889	-3.69279	24.2635	-31.0181
   4	1	3	-0.675747	-2.03026	22.7377	-30.7034
   5	1	1	-0.43042	8.31358	31.8231	-31.2798
   6	1	4	0.62373	-3.41169	22.9815	-30.7258
   7	1	1	0.00157	6.33883	29.8136	-31.3174
   8	1	5	0.178696	4.73028	24.9874	-32.5996
   9	1	2	-0.592725	5.51699	27.5327	-31.8654
  10	1	6	-0.000174	0.209967	25.6477	-31.3565
  11	1	5	0.1602	1.31643	28.0837	-30.6302
  12	1	4	0.461284	5.30271	28.7626	-31.3702
  13	1	1	-0.167191	-0.859331	26.5764	-31.5441
  14	1	5	0.164364	0.657674	23.5534	-30.9002
  15	1	1	-0.325009	-2.21302	26.1791	-31.4526
  16	1	8	0.422373	-1.569	21.8698	-30.5106
  17	1	1	-0.217421	-0.11655	24.2931	-31.0701
  18	1	5	0.173851	7.86173	28.603	-32.2702
  19	1	5	0.197073	9.09601	32.572	-31.3075
  20	1	6	0.024852	1.63825	26.0885	-31.4697
  21	1	1	0.048807	3.37245	27.7594	-31.2228
  22	1	1	0.060532	7.05057	32.106	-30.7111
  23	1	5	0.140008	2.35046	24.2271	-32.3474
  24	1	5	0.202663	-3.03239	26.8743	-31.5974
  25	1	1	-0.222969	2.03224	27.3926	-31.0616
  26	1	1	0.35235	4.31473	26.9293	-31.7651
  27	1	1	0.269742	8.60001	30.5686	-31.8288
  28	1	1	-0.166682	2.63375	25.22	-32.0105
  29	1	1	-0.277787	3.97619	25.6351	-32.1654
  30	1	1	-0.312482	7.624	29.5702	-31.8364
  31	1	9	0.442075	6.73932	33.5016	-30.0956
  32	1	5	0.128262	5.08159	31.2777	-30.3702
  33	1	3	-0.434358	3.98599	28.9419	-30.9368
  34	1	8	0.354457	3.58435	29.775	-30.5487
  35	1	1	-0.233188	6.07042	31.0856	-30.7649
  36	1	5	0.143867	-0.63145	27.6111	-31.7857
  37	1	9	-0.2502	6.26275	34.4575	-31.2119
  38	1	9	-0.249785	7.98949	34.1229	-29.418
  39	1	9	-0.32829	5.63695	33.4405	-29.0047
  40	1	10	0.056572	8.76181	34.383	-30.1505
  41	1	10	0.044267	8.42391	33.4253	-28.6908
  42	1	10	0.051935	7.73393	35.0483	-28.8868
  43	1	10	0.069302	4.65705	33.1957	-29.43
  44	1	10	0.077707	5.52912	34.4083	-28.4994
  45	1	10	0.059383	5.88507	32.6907	-28.2428
  46	1	10	0.048889	7.035	34.5705	-31.983
  47	1	10	0.055177	6.0346	35.4527	-30.8101
  48	1	10	0.04962	5.35852	34.0696	-31.6974
  49	1	1	0.438909	-16.6552	19.9757	-31.2423
  50	1	1	0.108796	-16.5211	21.2869	-30.8712
  51	1	2	-0.726889	-17.9103	19.5321	-31.0758
  52	1	3	-0.675747	-17.7588	21.7321	-30.4981
  53	1	1	-0.43042	-4.07273	20.622	-30.111
  54	1	4	0.62373	-18.5697	20.5871	-30.5727
  55	1	1	0.00157	-6.80527	21.3012	-30.221
  56	1	5	0.178696	-10.8048	24.5682	-31.3173
  57	1	2	-0.592725	-8.73452	22.8366	-30.6494
  58	1	6	-0.000174	-14.1149	21.1626	-31.1073
  59	1	5	0.1602	-11.8877	19.7891	-30.2899
  60	1	4	0.461284	-8.24171	21.6295	-30.3204
  61	1	1	-0.167191	-14.2858	19.8201	-31.563
  62	1	5	0.164364	-15.1911	22.9356	-30.4028
  63	1	1	-0.325009	-15.5564	19.2146	-31.626
  64	1	8	0.422373	-17.9903	22.6009	-30.0558
  65	1	1	-0.217421	-15.2745	21.9213	-30.7769
  66	1	5	0.173851	-6.11516	23.2767	-30.7513
  67	1	5	0.197073	-3.02061	20.3774	-30.0714
  68	1	6	0.024852	-12.7298	21.7049	-30.9295
  69	1	1	0.048807	-10.3934	21.3368	-30.4302
  70	1	1	0.060532	-5.03457	19.628	-29.8195
  71	1	5	0.140008	-13.183	23.7548	-31.5032
  72	1	5	0.202663	-15.6931	18.1784	-31.9147
  73	1	1	-0.222969	-11.6887	20.8297	-30.5209
  74	1	1	0.35235	-10.0695	22.6324	-30.7199
  75	1	1	0.269742	-4.44276	21.947	-30.4417
  76	1	1	-0.166682	-12.4019	23.071	-31.183
  77	1	1	-0.277787	-11.0684	23.5417	-31.0852
  78	1	1	-0.312482	-5.81462	22.2635	-30.4889
  79	1	9	0.442075	-4.65766	18.1733	-29.4178
  80	1	5	0.128262	-7.1428	19.2519	-29.6451
  81	1	3	-0.434358	-9.24447	20.6773	-30.1349
  82	1	8	0.354457	-9.12369	19.7039	-29.9278
  83	1	1	-0.233188	-6.39278	19.9979	-29.8779
  84	1	5	0.143867	-13.4159	19.2351	-31.8485
  85	1	9	-0.2502	-5.38177	17.1489	-30.328
  86	1	9	-0.249785	-5.07345	17.9192	-27.9495
  87	1	9	-0.32829	-3.13949	17.8805	-29.5297
  88	1	10	0.056572	-4.80383	16.9042	-27.6321
  89	1	10	0.044267	-6.15552	18.0353	-27.8141
  90	1	10	0.051935	-4.57367	18.6289	-27.2783
  91	1	10	0.069302	-2.56087	18.5183	-28.8506
  92	1	10	0.077707	-2.78469	18.0421	-30.5552
  93	1	10	0.059383	-2.92062	16.8386	-29.2636
  94	1	10	0.048889	-5.13866	17.3279	-31.3828
  95	1	10	0.055177	-6.47071	17.2025	-30.2184
  96	1	10	0.04962	-5.0817	16.1225	-30.0817
  97	1	1	0.438909	-25.0314	11.2298	-23.7331
  98	1	1	0.108796	-24.6513	10.7284	-24.9474
  99	1	2	-0.726889	-25.2597	10.2491	-22.8391
 100	1	3	-0.675747	-24.6672	9.36825	-24.8552
 101	1	1	-0.43042	-20.6613	21.6106	-29.5588
 102	1	4	0.62373	-24.9776	9.11845	-23.5098
 103	1	1	0.00157	-21.7591	19.0413	-29.2018
 104	1	5	0.178696	-20.9525	13.8924	-29.152
 105	1	2	-0.592725	-21.5573	16.5725	-29.2592
 106	1	6	-0.000174	-24.1342	12.9427	-25.787
 107	1	5	0.1602	-24.6743	15.637	-26.2862
 108	1	4	0.461284	-22.2173	17.6754	-28.8739
 109	1	1	-0.167191	-24.5781	13.4562	-24.5292
 110	1	5	0.164364	-23.8587	11.0881	-26.9225
 111	1	1	-0.325009	-25.0284	12.6034	-23.4952
 112	1	8	0.422373	-24.317	8.70627	-25.5204
 113	1	1	-0.217421	-24.191	11.5345	-25.9928
 114	1	5	0.173851	-19.9987	18.3441	-30.2294
 115	1	5	0.197073	-20.2188	22.5925	-29.6728
 116	1	6	0.024852	-23.5194	13.8514	-26.814
 117	1	1	0.048807	-23.1945	16.0386	-27.8129
 118	1	1	0.060532	-21.9374	21.4901	-28.9598
 119	1	5	0.140008	-22.1367	12.3484	-27.5802
 120	1	5	0.202663	-25.3026	12.9776	-22.5149
 121	1	1	-0.222969	-23.8898	15.2237	-26.9099
 122	1	1	0.35235	-22.1654	15.5775	-28.5871
 123	1	1	0.269742	-19.9512	20.4856	-30.032
 124	1	1	-0.166682	-22.4698	13.3783	-27.66
 125	1	1	-0.277787	-21.7867	14.236	-28.5493
 126	1	1	-0.312482	-20.5493	19.2212	-29.8937
 127	1	9	0.442075	-22.6979	22.7637	-28.4923
 128	1	5	0.128262	-23.394	20.0469	-28.2472
 129	1	3	-0.434358	-23.2862	17.3856	-28.0189
 130	1	8	0.354457	-23.8614	18.0481	-27.5329
 131	1	1	-0.233188	-22.4507	20.1867	-28.7594
 132	1	5	0.143867	-24.5046	14.5211	-24.3287
 133	1	9	-0.2502	-21.9203	23.4384	-27.3381
 134	1	9	-0.249785	-24.1357	22.4751	-27.9882
 135	1	9	-0.32829	-22.8276	23.7732	-29.6602
 136	1	10	0.056572	-24.6507	23.4053	-27.7168
 137	1	10	0.044267	-24.1255	21.8376	-27.0956
 138	1	10	0.051935	-24.7323	21.9807	-28.7654
 139	1	10	0.069302	-21.8493	24.123	-30.0075
 140	1	10	0.077707	-23.4014	24.6572	-29.3551
 141	1	10	0.059383	-23.3435	23.313	-30.5124
 142	1	10	0.048889	-22.444	24.333	-26.9784
 143	1	10	0.055177	-20.917	23.7434	-27.6579
 144	1	10	0.04962	-21.8083	22.7476	-26.4929
 145	1	1	0.438909	-20.0806	6.85775	-11.8547
 146	1	1	0.108796	-20.2795	5.71854	-12.5864
 147	1	2	-0.726889	-19.0603	6.7335	-10.9846
 148	1	3	-0.675747	-19.3528	4.80758	-12.1654
 149	1	1	-0.43042	-24.4468	6.64502	-23.5947
 150	1	4	0.62373	-18.6015	5.48873	-11.189
 151	1	1	0.00157	-24.556	6.49766	-20.7845
 152	1	5	0.178696	-25.5772	8.82312	-16.2442
 153	1	2	-0.592725	-25.1011	7.44257	-18.5641
 154	1	6	-0.000174	-22.041	6.76468	-13.895
 155	1	5	0.1602	-22.1056	5.21535	-16.2455
 156	1	4	0.461284	-24.5021	6.50305	-19.3083
 157	1	1	-0.167191	-21.8155	7.94281	-13.1126
 158	1	5	0.164364	-21.3481	4.70201	-14.1711
 159	1	1	-0.325009	-20.8465	7.99458	-12.0878
 160	1	8	0.422373	-19.1948	3.8819	-12.5145
 161	1	1	-0.217421	-21.2365	5.6211	-13.6091
 162	1	5	0.173851	-25.256	8.53592	-20.8867
 163	1	5	0.197073	-24.392	6.72783	-24.6713
 164	1	6	0.024852	-23.028	6.79814	-15.0377
 165	1	1	0.048807	-23.7285	6.19315	-17.29
 166	1	1	0.060532	-24.1191	5.42285	-22.9613
 167	1	5	0.140008	-24.2408	8.40441	-14.1855
 168	1	5	0.202663	-20.6578	8.89615	-11.5157
 169	1	1	-0.222969	-22.8909	5.95906	-16.1859
 170	1	1	0.35235	-24.621	7.22996	-17.3262
 171	1	1	0.269742	-24.8312	7.7877	-22.8581
 172	1	1	-0.166682	-24.0701	7.77726	-15.0542
 173	1	1	-0.277787	-24.854	8.01555	-16.201
 174	1	1	-0.312482	-24.9639	7.66041	-21.4643
 175	1	9	0.442075	-23.7401	4.14298	-23.7606
 176	1	5	0.128262	-23.835	4.48357	-21.0345
 177	1	3	-0.434358	-23.7065	5.64118	-18.5432
 178	1	8	0.354457	-23.0748	4.9483	-18.8994
 179	1	1	-0.233188	-24.1223	5.39496	-21.5479
 180	1	5	0.143867	-22.3629	8.85391	-13.3314
 181	1	9	-0.2502	-24.752	3.01409	-23.4492
 182	1	9	-0.249785	-22.3186	3.66752	-23.3761
 183	1	9	-0.32829	-23.7516	4.35091	-25.2982
 184	1	10	0.056572	-22.0262	2.78791	-23.9635
 185	1	10	0.044267	-22.2576	3.39179	-22.3171
 186	1	10	0.051935	-21.5831	4.45977	-23.5634
 187	1	10	0.069302	-24.7466	4.65339	-25.6483
 188	1	10	0.077707	-23.4897	3.4224	-25.8209
 189	1	10	0.059383	-23.0244	5.11448	-25.6008
 190	1	10	0.048889	-24.5254	2.10827	-24.0258
 191	1	10	0.055177	-25.7719	3.3299	-23.7029
 192	1	10	0.04962	-24.7387	2.74423	-22.3867
 193	1	1	0.438909	-8.1979	8.37077	-2.6432
 194	1	1	0.108796	-9.38615	8.96072	-2.31
 195	1	2	-0.726889	-7.24881	8.5875	-1.70411
 196	1	3	-0.675747	-9.20679	9.5873	-1.11581
 197	1	1	-0.43042	-16.9586	3.61792	-10.7876
 198	1	4	0.62373	-7.87548	9.31479	-0.760985
 199	1	1	0.00157	-15.5067	5.18559	-8.94182
 200	1	5	0.178696	-14.5532	9.60119	-6.2166
 201	1	2	-0.592725	-15.0191	7.24855	-7.60853
 202	1	6	-0.000174	-10.4924	8.08448	-4.28116
 203	1	5	0.1602	-11.2546	5.85845	-5.75927
 204	1	4	0.461284	-14.7132	5.9966	-7.98853
 205	1	1	-0.167191	-9.24484	7.47834	-4.62788
 206	1	5	0.164364	-11.473	9.313	-2.75881
 207	1	1	-0.325009	-8.09245	7.61918	-3.81515
 208	1	8	0.422373	-9.88727	10.082	-0.57265
 209	1	1	-0.217421	-10.5475	8.85135	-3.08372
 210	1	5	0.173851	-17.0017	6.69847	-9.32647
 211	1	5	0.197073	-17.518	3.03351	-11.5044
 212	1	6	0.024852	-11.7133	7.90697	-5.14334
 213	1	1	0.048807	-13.0989	6.58341	-6.63231
 214	1	1	0.060532	-15.8029	3.07135	-10.1858
 215	1	5	0.140008	-12.5187	9.89549	-4.77216
 216	1	5	0.202663	-7.14552	7.15628	-4.06986
 217	1	1	-0.222969	-11.9447	6.69052	-5.84475
 218	1	1	0.35235	-14.0121	7.59206	-6.77214
 219	1	1	0.269742	-17.4069	4.92618	-10.4959
 220	1	1	-0.166682	-12.6799	8.9502	-5.28246
 221	1	1	-0.277787	-13.8286	8.80249	-6.0975
 222	1	1	-0.312482	-16.6718	5.68714	-9.55947
 223	1	9	0.442075	-15.2692	1.64955	-10.5191
 224	1	5	0.128262	-14.1934	3.48255	-8.8228
 225	1	3	-0.434358	-13.5333	5.53911	-7.39094
 226	1	8	0.354457	-13.1011	4.64351	-7.51798
 227	1	1	-0.233188	-15.0936	3.88001	-9.27502
 228	1	5	0.143867	-9.17193	6.90329	-5.54709
 229	1	9	-0.2502	-13.9096	1.76731	-11.2479
 230	1	9	-0.249785	-16.222	0.836519	-11.4334
 231	1	9	-0.32829	-15.0734	0.823224	-9.22379
 232	1	10	0.056572	-15.8261	-0.170568	-11.6154
 233	1	10	0.044267	-16.3445	1.31937	-12.4108
 234	1	10	0.051935	-17.2106	0.725304	-10.9704
 235	1	10	0.069302	-14.3197	1.2681	-8.56498
 236	1	10	0.077707	-14.7428	-0.19696	-9.45477
 237	1	10	0.059383	-16.0145	0.755338	-8.66366
 238	1	10	0.048889	-13.5126	0.778213	-11.5085
 239	1	10	0.055177	-13.1638	2.27405	-10.6241
 240	1	10	0.04962	-14.0181	2.34437	-12.1751
 241	1	1	0.438909	2.1589	6.41951	7.95585
 242	1	1	0.108796	1.9866	5.68573	6.81537
 243	1	2	-0.726889	2.97657	5.7948	8.83348
 244	1	3	-0.675747	2.69858	4.53524	6.95798
 245	1	1	-0.43042	-8.06602	10.4461	1.47516
 246	1	4	0.62373	3.31137	4.64641	8.2158
 247	1	1	0.00157	-5.42293	9.76333	2.16697
 248	1	5	0.178696	-0.744293	7.52879	1.27325
 249	1	2	-0.592725	-3.15291	8.78688	1.78122
 250	1	6	-0.000174	0.534964	7.36251	5.83433
 251	1	5	0.1602	-1.81675	8.84669	5.9863
 252	1	4	0.461284	-4.05535	9.37636	2.58042
 253	1	1	-0.167191	0.706002	8.11751	7.03637
 254	1	5	0.164364	1.08025	5.47571	4.86644
 255	1	1	-0.325009	1.52225	7.65454	8.09931
 256	1	8	0.422373	2.79571	3.78592	6.30068
 257	1	1	-0.217421	1.2001	6.10776	5.73893
 258	1	5	0.173851	-5.31927	8.88983	0.188766
 259	1	5	0.197073	-9.08163	10.6938	1.2048
 260	1	6	0.024852	-0.348849	7.8408	4.71334
 261	1	1	0.048807	-2.37137	8.90182	3.8928
 262	1	1	0.060532	-7.5766	10.8215	2.74454
 263	1	5	0.140008	0.850407	6.95379	3.12516
 264	1	5	0.202663	1.66366	8.22533	9.01052
 265	1	1	-0.222969	-1.53327	8.58682	4.9724
 266	1	1	0.35235	-2.12065	8.50626	2.6069
 267	1	1	0.269742	-7.2763	9.73919	0.539147
 268	1	1	-0.166682	-0.0610518	7.49745	3.35634
 269	1	1	-0.277787	-0.942849	7.82273	2.29887
 270	1	1	-0.312482	-5.94473	9.43129	0.896941
 271	1	9	0.442075	-8.44291	11.5805	3.78878
 272	1	5	0.128262	-5.87964	10.7011	4.05315
 273	1	3	-0.434358	-3.59028	9.51086	3.89447
 274	1	8	0.354457	-4.12747	9.81621	4.68413
 275	1	1	-0.233188	-6.26072	10.4443	3.07273
 276	1	5	0.143867	0.211875	9.0799	7.13431
 277	1	9	-0.2502	-8.76531	10.6378	4.97174
 278	1	9	-0.249785	-9.78921	12.0888	3.20976
 279	1	9	-0.32829	-7.69083	12.8221	4.3274
 280	1	10	0.056572	-10.3479	12.6619	3.96024
 281	1	10	0.044267	-10.4302	11.2553	2.89681
 282	1	10	0.051935	-9.62074	12.7463	2.34739
 283	1	10	0.069302	-6.78545	12.5485	4.87979
 284	1	10	0.077707	-8.32263	13.4021	5.0111
 285	1	10	0.059383	-7.39391	13.482	3.50249
 286	1	10	0.048889	-9.31016	9.75167	4.62182
 287	1	10	0.055177	-9.38573	11.1432	5.72228
 288	1	10	0.04962	-7.85008	10.294	5.4682
 289	1	1	0.438909	14.0933	3.22049	15.7114
 290	1	1	0.108796	13.1927	3.18624	16.7432
 291	1	2	-0.726889	15.3584	3.21243	16.1452
 292	1	3	-0.675747	13.9195	3.11169	17.9072
 293	1	1	-0.43042	4.52229	2.44921	8.0127
 294	1	4	0.62373	15.2625	3.15668	17.482
 295	1	1	0.00157	5.83946	2.84119	10.472
 296	1	5	0.178696	7.29536	5.68026	14.6863
 297	1	2	-0.592725	6.45593	4.07798	12.5721
 298	1	6	-0.000174	11.3491	3.31552	15.1762
 299	1	5	0.1602	10.0413	1.68629	13.4447
 300	1	4	0.461284	6.60133	3.04323	11.7249
 301	1	1	-0.167191	12.3092	3.32084	14.1238
 302	1	5	0.164364	11.1004	3.24709	17.3526
 303	1	1	-0.325009	13.6901	3.28276	14.3835
 304	1	8	0.422373	13.5784	3.14489	18.8491
 305	1	1	-0.217421	11.8042	3.25329	16.5272
 306	1	5	0.173851	4.70133	4.67721	10.5908
 307	1	5	0.197073	4.01836	2.31228	7.06711
 308	1	6	0.024852	9.9138	3.41003	14.7732
 309	1	1	0.048807	8.20575	2.79947	13.1777
 310	1	1	0.060532	5.43985	1.47191	8.45453
 311	1	5	0.140008	9.48397	5.24104	15.8604
 312	1	5	0.202663	14.4315	3.31514	13.593
 313	1	1	-0.222969	9.43132	2.51788	13.7825
 314	1	1	0.35235	7.46642	3.91486	13.4604
 315	1	1	0.269742	4.24398	3.61755	8.76186
 316	1	1	-0.166682	9.10166	4.5234	15.1389
 317	1	1	-0.277787	7.87298	4.78537	14.48
 318	1	1	-0.312482	4.89661	3.7811	10.004
 319	1	9	0.442075	5.77999	0.194044	7.63485
 320	1	5	0.128262	6.819	0.972826	10.0171
 321	1	3	-0.434358	7.64038	2.19164	12.1046
 322	1	8	0.354457	7.98222	1.39797	11.5965
 323	1	1	-0.233188	6.09326	1.70237	9.67927
 324	1	5	0.143867	11.9672	3.39282	13.0938
 325	1	9	-0.2502	5.57387	-1.0738	8.50113
 326	1	9	-0.249785	7.25487	0.251076	7.16988
 327	1	9	-0.32829	4.90148	0.0247787	6.36847
 328	1	10	0.056572	7.42934	1.13828	6.54829
 329	1	10	0.044267	7.51759	-0.634839	6.57791
 330	1	10	0.051935	7.94293	0.298353	8.02226
 331	1	10	0.069302	5.05403	0.852812	5.6657
 332	1	10	0.077707	3.83798	-0.0231841	6.63363
 333	1	10	0.059383	5.15261	-0.902818	5.83854
 334	1	10	0.048889	5.75138	-1.98495	7.91594
 335	1	10	0.055177	4.54777	-1.11459	8.88751
 336	1	10	0.04962	6.2578	-1.09899	9.35704
 337	1	1	0.438909	16.8145	-1.62622	29.4267
 338	1	1	0.108796	16.6689	-2.06383	28.1373
 339	1	2	-0.726889	16.6561	-2.62892	30.3141
 340	1	3	-0.675747	16.4164	-3.40114	28.1816
 341	1	1	-0.43042	17.736	3.39608	17.7195
 342	1	4	0.62373	16.4401	-3.71368	29.5477
 343	1	1	0.00157	17.6518	3.05494	20.5018
 344	1	5	0.178696	20.4121	2.64148	24.8972
 345	1	2	-0.592725	18.8287	2.92815	22.6708
 346	1	6	-0.000174	17.2447	0.106965	27.2564
 347	1	5	0.1602	15.7716	0.738709	24.9809
 348	1	4	0.461284	17.7087	2.76381	21.9508
 349	1	1	-0.167191	17.3906	0.560264	28.6003
 350	1	5	0.164364	16.7991	-1.63488	26.0167
 351	1	1	-0.325009	17.1622	-0.302068	29.6974
 352	1	8	0.422373	16.3346	-4.04175	27.4152
 353	1	1	-0.217421	16.8645	-1.24102	27.0251
 354	1	5	0.173851	15.5171	2.77927	20.2317
 355	1	5	0.197073	17.7496	3.5159	16.6412
 356	1	6	0.024852	17.6276	0.979934	26.1101
 357	1	1	0.048807	17.2544	1.91392	23.9096
 358	1	1	0.060532	18.9385	3.49816	18.4427
 359	1	5	0.140008	19.6021	1.38483	26.9213
 360	1	5	0.202663	17.2939	0.0225888	30.7235
 361	1	1	-0.222969	16.7667	1.17027	24.9937
 362	1	1	0.35235	18.5321	2.40429	23.8714
 363	1	1	0.269742	16.485	3.1777	18.3383
 364	1	1	-0.166682	18.9312	1.55187	26.082
 365	1	1	-0.277787	19.3988	2.25755	24.9545
 366	1	1	-0.312482	16.4595	2.98569	19.7405
 367	1	9	0.442075	20.318	3.73358	17.7658
 368	1	5	0.128262	19.7741	3.42547	20.416
 369	1	3	-0.434358	16.6753	2.18858	22.7004
 370	1	8	0.354457	15.7819	1.88443	22.3631
 371	1	1	-0.233188	18.8574	3.3582	19.8371
 372	1	5	0.143867	17.7042	1.58627	28.7808
 373	1	9	-0.2502	20.2408	3.77563	16.2173
 374	1	9	-0.249785	21.2967	2.59265	18.14
 375	1	9	-0.32829	20.9149	5.08073	18.2348
 376	1	10	0.056572	20.8813	1.6191	17.8511
 377	1	10	0.044267	21.4965	2.56677	19.2176
 378	1	10	0.051935	22.2602	2.71503	17.6299
 379	1	10	0.069302	20.2406	5.90865	17.9831
 380	1	10	0.077707	21.8826	5.27108	17.7548
 381	1	10	0.059383	21.0713	5.09173	19.3201
 382	1	10	0.048889	19.8347	2.83742	15.8181
 383	1	10	0.055177	21.2352	3.91968	15.7768
 384	1	10	0.04962	19.6064	4.60266	15.8747
 385	1	1	0.438909	15.3522	-5.04519	41.9452
 386	1	1	0.108796	16.0788	-6.19474	41.793
 387	1	2	-0.726889	15.2352	-4.69599	43.2358
 388	1	3	-0.675747	16.4634	-6.60357	43.0402
 389	1	1	-0.43042	16.1259	-6.20585	29.2433
 390	1	4	0.62373	15.91	-5.64515	43.9054
 391	1	1	0.00157	16.2376	-6.60622	32.0279
 392	1	5	0.178696	15.9564	-9.69032	36.2787
 393	1	2	-0.592725	16.1646	-8.02011	34.0804
 394	1	6	-0.000174	15.7931	-6.12353	39.3892
 395	1	5	0.1602	16.1674	-4.74036	37.027
 396	1	4	0.461284	16.2485	-6.81601	33.4896
 397	1	1	-0.167191	15.0464	-4.92003	39.568
 398	1	5	0.164364	16.8999	-7.68698	40.4524
 399	1	1	-0.325009	14.819	-4.37384	40.8484
 400	1	8	0.422373	17.0135	-7.40273	43.2903
 401	1	1	-0.217421	16.3194	-6.77571	40.5415
 402	1	5	0.173851	16.473	-4.454	32.1316
 403	1	5	0.197073	16.0601	-6.04491	28.1758
 404	1	6	0.024852	15.9778	-6.68489	38.0133
 405	1	1	0.048807	16.2102	-6.38477	35.6242
 406	1	1	0.060532	16.042	-7.5247	29.7451
 407	1	5	0.140008	15.8056	-8.76924	38.6143
 408	1	5	0.202663	14.2404	-3.46934	41.0006
 409	1	1	-0.222969	16.1265	-5.81655	36.8978
 410	1	1	0.35235	16.1411	-7.73203	35.399
 411	1	1	0.269742	16.2976	-5.09031	30.0923
 412	1	1	-0.166682	15.9432	-8.09172	37.7763
 413	1	1	-0.277787	16.0196	-8.62414	36.4679
 414	1	1	-0.312482	16.3465	-5.31293	31.4808
 415	1	9	0.442075	15.8493	-8.72472	28.7736
 416	1	5	0.128262	16.0124	-8.68533	31.581
 417	1	3	-0.434358	16.306	-5.77034	34.4139
 418	1	8	0.354457	16.34	-4.78696	34.2148
 419	1	1	-0.233188	16.0979	-7.6949	31.1459
 420	1	5	0.143867	14.6121	-4.42492	38.7035
 421	1	9	-0.2502	16.0881	-10.1032	29.442
 422	1	9	-0.249785	16.8319	-8.63106	27.577
 423	1	9	-0.32829	14.4045	-8.70842	28.2251
 424	1	10	0.056572	17.867	-8.55523	27.933
 425	1	10	0.044267	16.6248	-7.76359	26.9408
 426	1	10	0.051935	16.7597	-9.52018	26.938
 427	1	10	0.069302	14.1948	-7.77419	27.6909
 428	1	10	0.077707	13.6821	-8.79467	29.0466
 429	1	10	0.059383	14.2337	-9.54219	27.5327
 430	1	10	0.048889	17.0866	-10.1515	29.8948
 431	1	10	0.055177	16.0139	-10.9154	28.7081
 432	1	10	0.04962	15.343	-10.3051	30.2213
 433	1	1	0.438909	12.4224	3.00698	53.6638
 434	1	1	0.108796	12.5949	3.26172	52.3335
 435	1	2	-0.726889	12.1199	4.14199	54.3419
 436	1	3	-0.675747	12.4019	4.5784	52.1228
 437	1	1	-0.43042	16.783	-6.6076	46.1008
 438	1	4	0.62373	12.0703	5.08651	53.3788
 439	1	1	0.00157	15.5189	-4.52643	47.5245
 440	1	5	0.178696	12.2134	-0.537701	47.4033
 441	1	2	-0.592725	13.9643	-2.62392	47.5919
 442	1	6	-0.000174	12.8958	0.936492	51.7987
 443	1	5	0.1602	14.4288	-1.4232	51.8237
 444	1	4	0.461284	14.8105	-3.44177	48.2299
 445	1	1	-0.167191	12.7567	0.653691	53.1926
 446	1	5	0.164364	12.9581	2.56342	50.3382
 447	1	1	-0.325009	12.5165	1.69129	54.1354
 448	1	8	0.422373	12.4488	5.08162	51.2559
 449	1	1	-0.217421	12.836	2.2869	51.3795
 450	1	5	0.173851	14.8164	-3.88526	45.592
 451	1	5	0.197073	17.2583	-7.39993	45.5383
 452	1	6	0.024852	13.0583	-0.105511	50.739
 453	1	1	0.048807	14.1111	-2.05173	49.7645
 454	1	1	0.060532	16.914	-6.55584	47.5124
 455	1	5	0.140008	11.7406	0.948172	49.3573
 456	1	5	0.202663	12.3656	1.48825	55.1896
 457	1	1	-0.222969	13.9082	-1.23723	50.8904
 458	1	1	0.35235	13.541	-1.78511	48.5475
 459	1	1	0.269742	16.0421	-5.63677	45.3889
 460	1	1	-0.166682	12.4176	0.107546	49.4812
 461	1	1	-0.277787	12.662	-0.722176	48.3737
 462	1	1	-0.312482	15.4057	-4.62708	46.128
 463	1	9	0.442075	17.6916	-7.62862	48.3259
 464	1	5	0.128262	16.4012	-5.40877	49.2744
 465	1	3	-0.434358	14.921	-3.14106	49.5942
 466	1	8	0.354457	15.5122	-3.59011	50.2687
 467	1	1	-0.233188	16.3017	-5.48139	48.1975
 468	1	5	0.143867	12.7885	-0.379502	53.529
 469	1	9	-0.2502	16.8024	-8.18925	49.4654
 470	1	9	-0.249785	18.9623	-7.00009	48.9434
 471	1	9	-0.32829	18.1358	-8.84165	47.4689
 472	1	10	0.056572	18.7106	-6.16553	49.6086
 473	1	10	0.044267	19.6251	-6.61581	48.158
 474	1	10	0.051935	19.5229	-7.73914	49.5296
 475	1	10	0.069302	17.2713	-9.32341	46.9951
 476	1	10	0.077707	18.6372	-9.59544	48.0888
 477	1	10	0.059383	18.8434	-8.53968	46.6872
 478	1	10	0.048889	17.3079	-9.00417	49.9984
 479	1	10	0.055177	15.8607	-8.58215	49.0617
 480	1	10	0.04962	16.5563	-7.42157	50.2077
 481	1	1	0.438909	13.5048	16.3248	46.6627
 482	1	1	0.108796	13.0045	15.4177	45.7678
 483	1	2	-0.726889	14.0802	17.3728	46.0519
 484	1	3	-0.675747	13.2439	15.9071	44.5167
 485	1	1	-0.43042	11.4311	7.10162	54.8046
 486	1	4	0.62373	13.9423	17.1033	44.7436
 487	1	1	0.00157	11.2084	8.66722	52.4711
 488	1	5	0.178696	12.1888	9.18261	47.3693
 489	1	2	-0.592725	11.4476	8.9554	50.0202
 490	1	6	-0.000174	12.3962	13.8999	47.5507
 491	1	5	0.1602	11.2367	13.3386	49.9949
 492	1	4	0.461284	11.1583	9.46297	51.2312
 493	1	1	-0.167191	12.9038	14.87	48.469
 494	1	5	0.164364	12.0924	13.4856	45.4181
 495	1	1	-0.325009	13.458	16.0891	48.032
 496	1	8	0.422373	13.0563	15.4729	43.6311
 497	1	1	-0.217421	12.4501	14.1931	46.1579
 498	1	5	0.173851	11.7649	6.89818	51.4236
 499	1	5	0.197073	11.5226	6.46475	55.6794
 500	1	6	0.024852	11.9374	12.5705	48.0672
 501	1	1	0.048807	11.2213	11.1862	49.916
 502	1	1	0.060532	11.0965	8.47393	54.9274
 503	1	5	0.140008	12.5847	11.4278	46.3272
 504	1	5	0.202663	13.8841	16.8114	48.7188
 505	1	1	-0.222969	11.4193	12.4606	49.3863
 506	1	1	0.35235	11.5071	10.0414	49.2248
 507	1	1	0.269742	11.688	6.51146	53.5505
 508	1	1	-0.166682	12.1579	11.3709	47.3243
 509	1	1	-0.277787	11.9429	10.0971	47.8989
 510	1	1	-0.312482	11.5742	7.31808	52.4039
 511	1	9	0.442075	10.8689	9.15568	56.307
 512	1	5	0.128262	10.673	10.269	53.7956
 513	1	3	-0.434358	10.9318	10.838	51.1993
 514	1	8	0.354457	10.7787	11.441	51.9864
 515	1	1	-0.233188	10.9623	9.22745	53.7381
 516	1	5	0.143867	12.9259	14.6496	49.5318
 517	1	9	-0.2502	11.5477	8.38474	57.4683
 518	1	9	-0.249785	9.35389	9.24043	56.5957
 519	1	9	-0.32829	11.4558	10.5932	56.3344
 520	1	10	0.056572	9.16262	9.72685	57.5603
 521	1	10	0.044267	8.90834	8.23815	56.6248
 522	1	10	0.051935	8.83796	9.81503	55.8166
 523	1	10	0.069302	12.5045	10.5885	56.0111
 524	1	10	0.077707	11.4181	11.0155	57.3461
 525	1	10	0.059383	10.8982	11.279	55.6871
 526	1	10	0.048889	12.6161	8.2371	57.2651
 527	1	10	0.055177	11.0848	7.40324	57.624
 528	1	10	0.04962	11.4584	8.93422	58.4138
 529	1	1	0.438909	15.6153	18.0617	31.2518
 530	1	1	0.108796	16.5869	18.2465	32.1969
 531	1	2	-0.726889	16.0355	18.4365	30.0311
 532	1	3	-0.675747	17.6952	18.7264	31.5654
 533	1	1	-0.43042	15.3019	19.0921	44.0229
 534	1	4	0.62373	17.2914	18.8719	30.2308
 535	1	1	0.00157	14.9656	18.4307	41.3151
 536	1	5	0.178696	12.9747	15.3499	37.5669
 537	1	2	-0.592725	14.0479	17.0217	39.4906
 538	1	6	-0.000174	15.0832	17.5864	33.9693
 539	1	5	0.1602	15.9567	19.104	36.1018
 540	1	4	0.461284	14.7894	18.0648	39.8982
 541	1	1	-0.167191	14.088	17.3604	32.9716
 542	1	5	0.164364	17.1594	18.2094	34.2806
 543	1	1	-0.325009	14.3471	17.6029	31.6041
 544	1	8	0.422373	18.5592	19.0266	31.9734
 545	1	1	-0.217421	16.3691	18.0354	33.5598
 546	1	5	0.173851	13.7769	16.7885	42.0341
 547	1	5	0.197073	15.419	19.3113	45.0798
 548	1	6	0.024852	14.7721	17.3962	35.419
 549	1	1	0.048807	14.9946	18.057	37.7322
 550	1	1	0.060532	15.9292	19.8979	43.0488
 551	1	5	0.140008	13.4917	15.6605	35.1264
 552	1	5	0.202663	13.589	17.4759	30.8392
 553	1	1	-0.222969	15.3213	18.2744	36.3915
 554	1	1	0.35235	14.1841	17.0364	38.1491
 555	1	1	0.269742	14.5305	17.9614	43.6841
 556	1	1	-0.166682	13.9123	16.3457	35.8578
 557	1	1	-0.277787	13.6167	16.1552	37.2264
 558	1	1	-0.312482	14.3676	17.6518	42.3224
 559	1	9	0.442075	16.8164	21.1198	43.4193
 560	1	5	0.128262	16.2163	20.1472	40.9291
 561	1	3	-0.434358	15.3864	18.7483	38.8372
 562	1	8	0.354457	15.982	19.5537	38.8921
 563	1	1	-0.233188	15.7437	19.5439	41.6953
 564	1	5	0.143867	13.0938	17.0383	33.2711
 565	1	9	-0.2502	18.2548	20.905	42.8891
 566	1	9	-0.249785	16.9207	21.364	44.9473
 567	1	9	-0.32829	16.2383	22.4088	42.7886
 568	1	10	0.056572	15.9326	21.5543	45.3848
 569	1	10	0.044267	17.5517	22.2346	45.1663
 570	1	10	0.051935	17.3651	20.4992	45.4562
 571	1	10	0.069302	15.2118	22.5792	43.1368
 572	1	10	0.077707	16.218	22.3485	41.6949
 573	1	10	0.059383	16.8389	23.2852	43.063
 574	1	10	0.048889	18.908	21.7404	43.1714
 575	1	10	0.055177	18.2742	20.8229	41.7965
 576	1	10	0.04962	18.6847	19.9846	43.3044
 577	1	1	0.438909	15.3345	24.2293	17.9401
 578	1	1	0.108796	14.2322	23.9027	18.6796
 579	1	2	-0.726889	15.0011	24.8766	16.8115
 580	1	3	-0.675747	13.132	24.3488	17.9996
 581	1	1	-0.43042	19.4282	19.9666	29.4096
 582	1	4	0.62373	13.6582	24.9422	16.8399
 583	1	1	0.00157	18.2446	20.435	26.8962
 584	1	5	0.178696	14.0672	19.9784	23.8097
 585	1	2	-0.592725	16.3306	20.2451	25.344
 586	1	6	-0.000174	15.6099	22.8565	20.3829
 587	1	5	0.1602	17.7879	22.8835	22.1324
 588	1	4	0.461284	17.5602	20.7079	25.6159
 589	1	1	-0.167191	16.7469	23.1953	19.5878
 590	1	5	0.164364	13.4219	23.0102	20.471
 591	1	1	-0.325009	16.6164	23.8879	18.3647
 592	1	8	0.422373	12.17	24.2712	18.2661
 593	1	1	-0.217421	14.3182	23.227	19.9021
 594	1	5	0.173851	16.5416	19.394	27.7126
 595	1	5	0.197073	19.8656	19.7677	30.3777
 596	1	6	0.024852	15.778	22.1244	21.6842
 597	1	1	0.048807	17.0606	21.5429	23.6623
 598	1	1	0.060532	20.1768	20.6498	28.4205
 599	1	5	0.140008	13.829	21.1478	21.6088
 600	1	5	0.202663	17.4726	24.1445	17.751
 601	1	1	-0.222969	16.9731	22.2452	22.4537
 602	1	1	0.35235	16.0415	20.7665	24.1396
 603	1	1	0.269742	18.1115	19.5147	29.171
 604	1	1	-0.166682	14.7376	21.2851	22.1862
 605	1	1	-0.277787	14.8595	20.6074	23.4177
 606	1	1	-0.312482	17.5583	19.7342	27.9014
 607	1	9	0.442075	21.647	21.0984	28.6778
 608	1	5	0.128262	20.0999	21.3907	26.3854
 609	1	3	-0.434358	18.0691	21.5048	24.5846
 610	1	8	0.354457	18.9415	22.0001	24.5767
 611	1	1	-0.233188	19.5554	20.8788	27.1689
 612	1	5	0.143867	17.7394	22.8974	19.9126
 613	1	9	-0.2502	22.6078	20.0256	28.1186
 614	1	9	-0.249785	21.959	21.2819	30.1881
 615	1	9	-0.32829	21.9726	22.4533	27.9979
 616	1	10	0.056572	21.2374	21.9638	30.6554
 617	1	10	0.044267	22.9615	21.703	30.3368
 618	1	10	0.051935	21.9378	20.3267	30.7257
 619	1	10	0.069302	21.2486	23.2212	28.2975
 620	1	10	0.077707	21.9642	22.3745	26.9056
 621	1	10	0.059383	22.973	22.8052	28.2804
 622	1	10	0.048889	22.4267	19.0548	28.5972
 623	1	10	0.055177	23.6552	20.301	28.2951
 624	1	10	0.04962	22.4666	19.8979	27.0382
 625	1	1	0.438909	0.870797	24.2777	15.9378
 626	1	1	0.108796	1.32552	23.7721	14.7499
 627	1	2	-0.726889	-0.360073	23.8285	16.2307
 628	1	3	-0.675747	0.355259	22.9424	14.2579
 629	1	1	-0.43042	13.5528	26.1422	14.648
 630	1	4	0.62373	-0.668004	22.998	15.2197
 631	1	1	0.00157	10.7464	26.1014	14.6092
 632	1	5	0.178696	6.39825	26.6776	11.7691
 633	1	2	-0.592725	8.61961	26.4138	13.3787
 634	1	6	-0.000174	3.42808	24.9423	14.9991
 635	1	5	0.1602	5.81504	24.7867	16.3767
 636	1	4	0.461284	9.27207	26.033	14.489
 637	1	1	-0.167191	2.94789	25.4465	16.2419
 638	1	5	0.164364	2.92876	23.673	13.2885
 639	1	1	-0.325009	1.65772	25.1255	16.7151
 640	1	8	0.422373	0.381567	22.3917	13.4219
 641	1	1	-0.217421	2.58805	24.0867	14.2316
 642	1	5	0.173851	10.9088	25.1147	16.5311
 643	1	5	0.197073	14.6386	26.1164	14.6577
 644	1	6	0.024852	4.78982	25.3238	14.5231