pySIMM System Object

1874 atoms
2068 bonds
3588 angles
5495 dihedrals
468 impropers

10 atom types
14 bond types
23 angle types
11 dihedral types
3 improper types

-179.164124 179.164124 xlo xhi
-179.164124 179.164124 ylo yhi
-179.164124 179.164124 zlo zhi

Masses

   1	12.01	# ca
   2	14.01	# nc
   3	14.01	# na
   4	12.01	# cd
   5	1.008	# ha
   6	12.01	# cp
   7	1.008	# h5
   8	1.008	# hn
   9	12.01	# c3
  10	1.008	# hc

Pair Coeffs

   1	0.086	3.3996695084235347	# ca
   2	0.17	3.249998523775958	# nc
   3	0.17	3.249998523775958	# na
   4	0.086	3.3996695084235347	# cd
   5	0.015	2.59964245953351	# ha
   6	0.086	3.3996695084235347	# cp
   7	0.015	2.421462715905442	# h5
   8	0.0157	1.069078461768407	# hn
   9	0.1094	3.3996695084235347	# c3
  10	0.0157	2.649532787749369	# hc

Bond Coeffs

   1	425.8	1.3802	# cd,na
   2	467.7	1.3517	# ca,nc
   3	345.8	1.086	# ca,ha
   4	351.8	1.0818	# cd,h5
   5	385.1	1.4555	# ca,cd
   6	351.4	1.4854	# cp,cp
   7	321.0	1.5156	# c3,ca
   8	525.4	1.3172	# cd,nc
   9	300.9	1.5375	# c3,c3
  10	330.6	1.0969	# c3,hc
  11	450.2	1.4058	# ca,cp
  12	420.5	1.384	# ca,na
  13	408.4	1.01	# hn,na
  14	461.1	1.3984	# ca,ca

Angle Coeffs

   1	66.72	118.38	# ca,cp,ca
   2	62.86	111.51	# c3,c3,c3
   3	66.26	120.69	# ca,ca,cp
   4	63.15	112.07	# c3,c3,ca
   5	67.4	113.15	# ca,na,cd
   6	46.34	109.8	# c3,c3,hc
   7	66.28	123.45	# ca,cd,na
   8	48.18	119.88	# ca,ca,ha
   9	67.6	123.24	# ca,cd,nc
  10	64.05	121.11	# ca,cp,cp
  11	46.75	125.5	# cd,na,hn
  12	66.62	120.02	# ca,ca,ca
  13	72.48	104.88	# ca,nc,cd
  14	74.9	112.22	# na,cd,nc
  15	46.63	125.54	# ca,na,hn
  16	65.02	120.79	# ca,ca,cd
  17	69.46	119.72	# ca,ca,nc
  18	47.98	119.86	# cp,ca,ha
  19	39.4	107.58	# hc,c3,hc
  20	63.53	120.77	# c3,ca,ca
  21	69.08	118.34	# ca,ca,na
  22	49.58	121.55	# h5,cd,na
  23	50.58	125.52	# h5,cd,nc

Dihedral Coeffs

   1	1	4.0	2	180	# X,ca,cd,X
   2	1	3.625	2	180	# X,ca,cp,X
   3	1	4.75	2	180	# X,cd,nc,X
   4	1	0.3	2	180	# X,ca,na,X
   5	1	3.625	2	180	# X,ca,ca,X
   6	1	1.7	2	180	# X,cd,na,X
   7	1	1.0	2	180	# X,cp,cp,X
   8	1	0.16	3	0	# hc,c3,c3,c3
   9	1	0.15555555555555556	3	0	# X,c3,c3,X
  10	1	0.0	2	0	# X,c3,ca,X
  11	1	4.8	2	180	# X,ca,nc,X

Improper Coeffs

   1	1.1	-1	2	# na,X,X,hn
   2	1.1	-1	2	# ca,ca,ca,c3
   3	1.1	-1	2	# ca,X,X,ha

Atoms

   1	1	1	0.438909	14.3192	-15.9843	-58.2369
   2	1	1	0.108796	15.1253	-17.0707	-58.449
   3	1	2	-0.726889	13.0829	-16.3425	-57.8614
   4	1	3	-0.675747	14.3732	-18.1879	-58.1971
   5	1	1	-0.43042	27.0597	-15.6647	-60.6556
   6	1	4	0.62373	13.1066	-17.6845	-57.849
   7	1	1	0.00157	24.2436	-15.5381	-60.5432
   8	1	5	0.178696	19.7678	-13.4565	-62.2284
   9	1	2	-0.592725	22.0682	-14.645	-61.3083
  10	1	6	-0.000174	16.9435	-15.6404	-59.1651
  11	1	5	0.1602	19.414	-16.7513	-58.4585
  12	1	4	0.461284	22.7709	-15.4435	-60.4916
  13	1	1	-0.167191	16.0945	-14.5224	-58.9136
  14	1	5	0.164364	17.0519	-17.8266	-59.1113
  15	1	1	-0.325009	14.7769	-14.6867	-58.4426
  16	1	8	0.422373	14.6439	-19.1491	-58.2769
  17	1	1	-0.217421	16.4464	-16.9508	-58.9065
  18	1	5	0.173851	24.4376	-14.1658	-62.2098
  19	1	5	0.197073	28.1401	-15.6768	-60.7372
  20	1	6	0.024852	18.2927	-15.4022	-59.7649
  21	1	1	0.048807	20.6886	-15.7178	-59.8854
  22	1	1	0.060532	26.3823	-16.422	-59.6716
  23	1	5	0.140008	17.5298	-13.9697	-61.2137
  24	1	5	0.202663	14.1137	-13.8471	-58.2668
  25	1	1	-0.222969	19.4643	-16.0519	-59.286
  26	1	1	0.35235	20.7939	-14.817	-60.912
  27	1	1	0.269742	26.3573	-14.8631	-61.5611
  28	1	1	-0.166682	18.4193	-14.4656	-60.8331
  29	1	1	-0.277787	19.6673	-14.1713	-61.4188
  30	1	1	-0.312482	24.9642	-14.7992	-61.5014
  31	1	9	0.442075	27.1295	-17.31	-58.6385
  32	1	5	0.128262	24.4301	-16.9167	-58.8947
  33	1	3	-0.434358	21.9541	-16.1398	-59.592
  34	1	8	0.354457	22.2487	-16.7744	-58.8734
  35	1	1	-0.233188	24.9696	-16.3462	-59.6418
  36	1	5	0.143867	16.4676	-13.5175	-59.0981
  37	1	9	-0.2502	28.6719	-17.2659	-58.7943
  38	1	9	-0.249785	26.6903	-18.7857	-58.7945
  39	1	9	-0.32829	26.8033	-16.8395	-57.2006
  40	1	10	0.056572	26.8904	-19.1403	-59.8135
  41	1	10	0.044267	25.6189	-18.9103	-58.5987
  42	1	10	0.051935	27.2338	-19.4351	-58.0967
  43	1	10	0.069302	27.0763	-15.7845	-57.0711
  44	1	10	0.077707	27.358	-17.4266	-56.4583
  45	1	10	0.059383	25.7358	-16.9412	-56.9743
  46	1	10	0.048889	28.98	-17.6258	-59.7841
  47	1	10	0.055177	29.1616	-17.9016	-58.0459
  48	1	10	0.04962	29.0532	-16.2456	-58.6602
  49	1	1	0.438909	1.19945	-15.0427	-52.1145
  50	1	1	0.108796	2.07879	-14.0349	-52.3928
  51	1	2	-0.726889	0.186471	-14.6159	-51.3348
  52	1	3	-0.675747	1.6229	-12.9059	-51.782
  53	1	1	-0.43042	11.914	-19.9051	-57.439
  54	1	4	0.62373	0.439986	-13.3082	-51.1455
  55	1	1	0.00157	9.55582	-18.5198	-56.7478
  56	1	5	0.178696	7.03205	-13.9769	-56.4477
  57	1	2	-0.592725	8.25575	-16.4262	-56.5926
  58	1	6	-0.000174	3.46755	-15.5001	-53.7391
  59	1	5	0.1602	4.83639	-17.9017	-54.2402
  60	1	4	0.461284	8.35371	-17.7453	-56.3731
  61	1	1	-0.167191	2.53612	-16.5445	-53.4453
  62	1	5	0.164364	3.89708	-13.3835	-53.334
  63	1	1	-0.325009	1.4018	-16.3235	-52.6282
  64	1	8	0.422373	2.04142	-11.9957	-51.7689
  65	1	1	-0.217421	3.21835	-14.2127	-53.1792
  66	1	5	0.173851	10.6796	-16.7486	-57.227
  67	1	5	0.197073	12.825	-20.4313	-57.6948
  68	1	6	0.024852	4.68408	-15.7404	-54.5938
  69	1	1	0.048807	6.44482	-17.1628	-55.4819
  70	1	1	0.060532	10.7672	-20.6456	-57.0577
  71	1	5	0.140008	4.88751	-13.6558	-55.2148
  72	1	5	0.202663	0.688004	-17.1083	-52.404
  73	1	1	-0.222969	5.26424	-17.0374	-54.7343
  74	1	1	0.35235	7.07561	-16.0888	-56.0465
  75	1	1	0.269742	11.9065	-18.4931	-57.4911
  76	1	1	-0.166682	5.32158	-14.6487	-55.2603
  77	1	1	-0.277787	6.52467	-14.8119	-55.9763
  78	1	1	-0.312482	10.7047	-17.8356	-57.1787
  79	1	9	0.442075	10.8118	-22.2014	-57.0604
  80	1	5	0.128262	8.7181	-20.4515	-56.3534
  81	1	3	-0.434358	7.22651	-18.261	-55.7209
  82	1	8	0.354457	7.095	-19.2011	-55.3962
  83	1	1	-0.233188	9.60886	-19.9255	-56.6737
  84	1	5	0.143867	2.68485	-17.5327	-53.8696
  85	1	9	-0.2502	9.43291	-22.8624	-56.8003
  86	1	9	-0.249785	11.7859	-22.6978	-55.9671
  87	1	9	-0.32829	11.3019	-22.7234	-58.4348
  88	1	10	0.056572	11.8283	-23.7941	-55.9453
  89	1	10	0.044267	11.465	-22.3508	-54.9768
  90	1	10	0.051935	12.8026	-22.3262	-56.1409
  91	1	10	0.069302	12.3308	-22.4129	-58.6465
  92	1	10	0.077707	10.6613	-22.343	-59.2404
  93	1	10	0.059383	11.2777	-23.8198	-58.4737
  94	1	10	0.048889	8.69487	-22.5393	-57.5456
  95	1	10	0.055177	9.05403	-22.6147	-55.8013
  96	1	10	0.04962	9.50407	-23.9561	-56.8582
  97	1	1	0.438909	-7.64359	-14.058	-40.7122
  98	1	1	0.108796	-8.03812	-15.0318	-41.5874
  99	1	2	-0.726889	-7.93899	-14.3772	-39.4413
 100	1	3	-0.675747	-8.65782	-16.0085	-40.8609
 101	1	1	-0.43042	-0.15197	-11.0146	-50.2506
 102	1	4	0.62373	-8.51069	-15.5896	-39.5289
 103	1	1	0.00157	-2.39106	-12.0683	-48.9038
 104	1	5	0.178696	-5.07811	-16.2024	-47.1775
 105	1	2	-0.592725	-3.83761	-13.9492	-48.1658
 106	1	6	-0.000174	-6.87694	-13.9476	-43.4239
 107	1	5	0.1602	-5.87832	-11.808	-44.9206
 108	1	4	0.461284	-3.50969	-12.6479	-48.1335
 109	1	1	-0.167191	-6.52688	-12.9114	-42.5011
 110	1	5	0.164364	-7.96605	-15.8484	-43.5817
 111	1	1	-0.325009	-6.90975	-12.9581	-41.144
 112	1	8	0.422373	-8.9475	-16.9148	-41.1741
 113	1	1	-0.217421	-7.67738	-15.0253	-42.9399
 114	1	5	0.173851	-1.78785	-13.9582	-49.7553
 115	1	5	0.197073	0.710229	-10.6266	-50.7749
 116	1	6	0.024852	-6.27731	-13.9635	-44.8064
 117	1	1	0.048807	-5.00671	-12.8818	-46.5695
 118	1	1	0.060532	-0.976185	-10.138	-49.5063
 119	1	5	0.140008	-6.41688	-16.1272	-45.0738
 120	1	5	0.202663	-6.58628	-12.2132	-40.4255
 121	1	1	-0.222969	-5.75512	-12.7744	-45.3934
 122	1	1	0.35235	-4.74929	-14.0766	-47.1813
 123	1	1	0.269742	-0.433637	-12.3964	-50.3573
 124	1	1	-0.166682	-6.06495	-15.195	-45.5022
 125	1	1	-0.277787	-5.30489	-15.259	-46.6921
 126	1	1	-0.312482	-1.56831	-12.8937	-49.6916
 127	1	9	0.442075	-0.714496	-8.60711	-49.4169
 128	1	5	0.128262	-2.72131	-10.0427	-48.2451
 129	1	3	-0.434358	-4.26672	-11.9293	-47.204
 130	1	8	0.354457	-4.14082	-10.9694	-46.9425
 131	1	1	-0.233188	-2.08341	-10.6946	-48.8309
 132	1	5	0.143867	-5.87973	-12.099	-42.8135
 133	1	9	-0.2502	-0.531825	-8.17637	-47.9408
 134	1	9	-0.249785	-1.91216	-7.83622	-50.0227
 135	1	9	-0.32829	0.555588	-8.15427	-50.183
 136	1	10	0.056572	-1.73635	-6.75334	-50.0036
 137	1	10	0.044267	-2.83865	-8.03204	-49.4701
 138	1	10	0.051935	-2.07397	-8.13435	-51.0663
 139	1	10	0.069302	1.4524	-8.64388	-49.7838
 140	1	10	0.077707	0.702915	-7.07089	-50.09
 141	1	10	0.059383	0.475453	-8.38318	-51.253
 142	1	10	0.048889	-0.324761	-7.1012	-47.8668
 143	1	10	0.055177	0.307484	-8.71455	-47.4828
 144	1	10	0.04962	-1.42866	-8.38	-47.3447
 145	1	1	0.438909	-3.98071	-15.2429	-26.9126
 146	1	1	0.108796	-5.31031	-14.9326	-27.0231
 147	1	2	-0.726889	-3.44463	-14.7364	-25.7871
 148	1	3	-0.675747	-5.66797	-14.2481	-25.8988
 149	1	1	-0.43042	-9.46214	-17.6816	-38.4477
 150	1	4	0.62373	-4.46377	-14.0893	-25.1967
 151	1	1	0.00157	-8.57485	-16.8032	-35.9186
 152	1	5	0.178696	-5.82557	-13.2754	-33.2936
 153	1	2	-0.592725	-7.36046	-15.1659	-34.5392
 154	1	6	-0.000174	-5.34837	-15.6756	-29.3198
 155	1	5	0.1602	-6.97989	-17.4631	-30.7705
 156	1	4	0.461284	-7.99035	-16.344	-34.6402
 157	1	1	-0.167191	-3.98946	-16.074	-29.1682
 158	1	5	0.164364	-7.03573	-14.7195	-28.3201
 159	1	1	-0.325009	-3.29415	-15.8611	-27.9574
 160	1	8	0.422373	-6.52763	-13.7632	-25.7259
 161	1	1	-0.217421	-6.02777	-15.1052	-28.2113
 162	1	5	0.173851	-7.9234	-15.0382	-36.9763
 163	1	5	0.197073	-9.78626	-18.0002	-39.4289
 164	1	6	0.024852	-5.9222	-15.5501	-30.6865
 165	1	1	0.048807	-7.18902	-16.3003	-32.6034
 166	1	1	0.060532	-9.69292	-18.5032	-37.3165
 167	1	5	0.140008	-4.97245	-13.6176	-30.9487
 168	1	5	0.202663	-2.23501	-16.0697	-27.8567
 169	1	1	-0.222969	-6.73629	-16.5455	-31.2957
 170	1	1	0.35235	-6.86848	-15.1592	-33.2914
 171	1	1	0.269742	-8.82866	-16.4247	-38.3388
 172	1	1	-0.166682	-5.60536	-14.3699	-31.414
 173	1	1	-0.277787	-6.07716	-14.1634	-32.7234
 174	1	1	-0.312482	-8.43039	-15.9976	-37.0627
 175	1	9	0.442075	-10.4339	-19.8686	-37.4202
 176	1	5	0.128262	-9.37609	-18.6602	-35.1804
 177	1	3	-0.434358	-7.93872	-17.0782	-33.4463
 178	1	8	0.354457	-8.27749	-18.01	-33.2948
 179	1	1	-0.233188	-9.22764	-18.0447	-36.0603
 180	1	5	0.143867	-3.45258	-16.4577	-30.033
 181	1	9	-0.2502	-9.60397	-20.9995	-36.7627
 182	1	9	-0.249785	-10.7105	-20.3058	-38.8835
 183	1	9	-0.32829	-11.8001	-19.7725	-36.7032
 184	1	10	0.056572	-11.1991	-21.2878	-38.915
 185	1	10	0.044267	-9.77672	-20.3825	-39.4549
 186	1	10	0.051935	-11.3758	-19.5972	-39.3922
 187	1	10	0.069302	-11.677	-19.5093	-35.646
 188	1	10	0.077707	-12.34	-20.7264	-36.7531
 189	1	10	0.059383	-12.4279	-19.003	-37.17
 190	1	10	0.048889	-10.1007	-21.9709	-36.8806
 191	1	10	0.055177	-9.46731	-20.8337	-35.6885
 192	1	10	0.04962	-8.61153	-21.07	-37.2254
 193	1	1	0.438909	5.25886	-8.19697	-17.5817
 194	1	1	0.108796	5.623	-8.54313	-18.853
 195	1	2	-0.726889	6.29671	-7.69007	-16.8844
 196	1	3	-0.675747	6.94578	-8.25377	-18.9933
 197	1	1	-0.43042	-5.42031	-12.6543	-23.3435
 198	1	4	0.62373	7.33036	-7.74437	-17.7432
 199	1	1	0.00157	-2.8301	-11.997	-22.4556
 200	1	5	0.178696	2.37708	-12.388	-22.8822
 201	1	2	-0.592725	-0.35343	-12.116	-22.6055
 202	1	6	-0.000174	3.40936	-9.395	-19.3551
 203	1	5	0.1602	0.616193	-9.26769	-19.3796
 204	1	4	0.461284	-1.46361	-11.6234	-22.0339
 205	1	1	-0.167191	3.03621	-9.0159	-18.0275
 206	1	5	0.164364	5.08885	-9.38123	-20.7662
 207	1	1	-0.325009	3.95511	-8.41254	-17.1363
 208	1	8	0.422373	7.52711	-8.39157	-19.797
 209	1	1	-0.217421	4.74673	-9.1319	-19.7691
 210	1	5	0.173851	-2.155	-13.3199	-24.0231
 211	1	5	0.197073	-6.41202	-12.9334	-23.6751
 212	1	6	0.024852	2.44041	-10.1002	-20.2663
 213	1	1	0.048807	0.18766	-10.6677	-20.9697
 214	1	1	0.060532	-5.28036	-11.7867	-22.2363
 215	1	5	0.140008	3.9739	-11.1635	-21.3973
 216	1	5	0.202663	3.68606	-8.14626	-16.1201
 217	1	1	-0.222969	1.03193	-9.93883	-20.1223
 218	1	1	0.35235	0.651583	-11.5198	-21.9335
 219	1	1	0.269742	-4.3048	-13.219	-24.0005
 220	1	1	-0.166682	2.90883	-10.9923	-21.2806
 221	1	1	-0.277787	2.02197	-11.702	-22.1207
 222	1	1	-0.312482	-3.02308	-12.898	-23.5193
 223	1	9	0.442075	-6.54284	-11.2644	-21.4906
 224	1	5	0.128262	-3.81928	-10.7875	-20.9858
 225	1	3	-0.434358	-1.17519	-10.7121	-21.0123
 226	1	8	0.354457	-1.83283	-10.2036	-20.4508
 227	1	1	-0.233188	-3.96877	-11.4594	-21.8209
 228	1	5	0.143867	2.03346	-9.22948	-17.6699
 229	1	9	-0.2502	-7.59363	-10.7161	-22.4903
 230	1	9	-0.249785	-6.2392	-10.1244	-20.4839
 231	1	9	-0.32829	-7.17975	-12.4295	-20.6991
 232	1	10	0.056572	-7.16226	-9.7561	-20.0186
 233	1	10	0.044267	-5.75657	-9.27569	-20.9848
 234	1	10	0.051935	-5.58731	-10.4704	-19.6725
 235	1	10	0.069302	-7.46258	-13.2529	-21.366
 236	1	10	0.077707	-8.08039	-12.1008	-20.1659
 237	1	10	0.059383	-6.47256	-12.8264	-19.9598
 238	1	10	0.048889	-8.44653	-10.2727	-21.9609
 239	1	10	0.055177	-7.99448	-11.5042	-23.137
 240	1	10	0.04962	-7.15295	-9.94053	-23.129
 241	1	1	0.438909	15.548	-1.71402	-8.45417
 242	1	1	0.108796	15.8209	-2.38199	-9.60708
 243	1	2	-0.726889	16.6866	-1.212	-7.90532
 244	1	3	-0.675747	17.164	-2.42093	-9.77103
 245	1	1	-0.43042	9.75786	-7.47221	-18.3674
 246	1	4	0.62373	17.6723	-1.6579	-8.7138
 247	1	1	0.00157	10.3678	-6.39696	-15.837
 248	1	5	0.178696	9.10922	-4.55978	-11.0281
 249	1	2	-0.592725	9.8152	-5.55225	-13.5377
 250	1	6	-0.000174	13.482	-2.87214	-10.0653
 251	1	5	0.1602	13.7862	-3.98514	-12.6536
 252	1	4	0.461284	10.6933	-5.77334	-14.5334
 253	1	1	-0.167191	13.1959	-2.2211	-8.81879
 254	1	5	0.164364	15.148	-3.2761	-11.3997
 255	1	1	-0.325009	14.2167	-1.61379	-8.02866
 256	1	8	0.422373	17.6829	-2.97202	-10.4291
 257	1	1	-0.217421	14.8447	-2.88924	-10.4537
 258	1	5	0.173851	8.27031	-6.68689	-15.4037
 259	1	5	0.197073	9.51036	-7.85961	-19.3454
 260	1	6	0.024852	12.4454	-3.55422	-10.9463
 261	1	1	0.048807	11.8375	-4.74296	-12.9901
 262	1	1	0.060532	11.0975	-7.12843	-18.0851
 263	1	5	0.140008	10.7648	-3.39167	-9.56212
 264	1	5	0.202663	13.992	-1.09676	-7.10233
 265	1	1	-0.222969	12.7993	-4.07952	-12.2291
 266	1	1	0.35235	10.545	-4.9118	-12.5924
 267	1	1	0.269742	8.72433	-7.33537	-17.4122
 268	1	1	-0.166682	11.0884	-3.75198	-10.5325
 269	1	1	-0.277787	10.1365	-4.42082	-11.3478
 270	1	1	-0.312482	9.05589	-6.80651	-16.148
 271	1	9	0.442075	12.2097	-7.31125	-19.1613
 272	1	5	0.128262	12.3801	-6.2633	-16.5816
 273	1	3	-0.434358	11.9702	-5.30331	-14.2214
 274	1	8	0.354457	12.7868	-5.34125	-14.8018
 275	1	1	-0.233188	11.3707	-6.57292	-16.8159
 276	1	5	0.143867	12.1705	-2.16439	-8.46747
 277	1	9	-0.2502	12.0189	-8.62937	-19.9591
 278	1	9	-0.249785	13.6367	-7.36715	-18.5547
 279	1	9	-0.32829	12.1596	-6.12933	-20.1546
 280	1	10	0.056572	14.3824	-7.60413	-19.324
 281	1	10	0.044267	13.7008	-8.13868	-17.777
 282	1	10	0.051935	13.928	-6.40467	-18.1181
 283	1	10	0.069302	11.1794	-6.0701	-20.6432
 284	1	10	0.077707	12.9228	-6.23574	-20.9356
 285	1	10	0.059383	12.3329	-5.17834	-19.6356
 286	1	10	0.048889	11.9442	-9.48701	-19.2787
 287	1	10	0.055177	12.8653	-8.80928	-20.6339
 288	1	10	0.04962	11.1194	-8.60655	-20.5841
 289	1	1	0.438909	26.7206	7.9916	-5.95299
 290	1	1	0.108796	26.4547	7.4764	-4.71269
 291	1	2	-0.726889	27.4635	9.106	-5.88416
 292	1	3	-0.675747	27.1115	8.25969	-3.79856
 293	1	1	-0.43042	20.0363	-2.09609	-9.42885
 294	1	4	0.62373	27.6772	9.2908	-4.5709
 295	1	1	0.00157	21.0396	-0.0221253	-7.81483
 296	1	5	0.178696	20.8952	3.91188	-4.25053
 297	1	2	-0.592725	21.0109	1.81549	-6.08521
 298	1	6	-0.000174	24.9963	5.7962	-5.67629
 299	1	5	0.1602	24.9615	3.47675	-7.13946
 300	1	4	0.461284	21.6254	1.10045	-7.04467
 301	1	1	-0.167191	25.335	6.31382	-6.96099
 302	1	5	0.164364	25.3404	6.03245	-3.52735
 303	1	1	-0.325009	26.1915	7.42343	-7.10794
 304	1	8	0.422373	27.0479	8.21734	-2.79986
 305	1	1	-0.217421	25.5772	6.3968	-4.52104
 306	1	5	0.173851	18.9998	0.189884	-7.11077
 307	1	5	0.197073	19.6541	-2.91635	-10.0201
 308	1	6	0.024852	23.9972	4.68439	-5.5982
 309	1	1	0.048807	23.0652	2.64674	-6.50257
 310	1	1	0.060532	21.4227	-1.84188	-9.44152
 311	1	5	0.140008	22.7297	5.63216	-4.111
 312	1	5	0.202663	26.4157	7.85979	-8.07462
 313	1	1	-0.222969	24.1073	3.57722	-6.47802
 314	1	1	0.35235	21.9248	2.76387	-5.75686
 315	1	1	0.269742	19.1359	-1.37205	-8.60589
 316	1	1	-0.166682	22.8447	4.7703	-4.76236
 317	1	1	-0.277787	21.8014	3.81277	-4.83737
 318	1	1	-0.312482	19.6708	-0.376283	-7.75499
 319	1	9	0.442075	22.4516	-2.7136	-10.2205
 320	1	5	0.128262	22.9426	-0.541248	-8.69163
 321	1	3	-0.434358	22.9207	1.55884	-7.29838
 322	1	8	0.354457	23.5394	1.23588	-8.01788
 323	1	1	-0.233188	21.8827	-0.763321	-8.66916
 324	1	5	0.143867	24.8762	5.87877	-7.84555
 325	1	9	-0.2502	21.8086	-3.89753	-10.9878
 326	1	9	-0.249785	23.4649	-3.32739	-9.22276
 327	1	9	-0.32829	23.2286	-1.85742	-11.2492
 328	1	10	0.056572	24.0313	-2.55406	-8.69147
 329	1	10	0.044267	24.1896	-3.97015	-9.73814
 330	1	10	0.051935	22.9453	-3.93693	-8.47255
 331	1	10	0.069302	23.792	-1.05214	-10.7648
 332	1	10	0.077707	22.5435	-1.40202	-11.973
 333	1	10	0.059383	23.9456	-2.47136	-11.8088
 334	1	10	0.048889	22.5758	-4.50563	-11.4836
 335	1	10	0.055177	21.1258	-3.54269	-11.765
 336	1	10	0.04962	21.2543	-4.55762	-10.309
 337	1	1	0.438909	29.3619	12.3353	7.85597
 338	1	1	0.108796	30.2796	13.2393	7.40194
 339	1	2	-0.726889	29.1875	12.4274	9.18828
 340	1	3	-0.675747	30.7048	13.9678	8.47227
 341	1	1	-0.43042	28.6193	11.5731	-4.94425
 342	1	4	0.62373	30.0133	13.4197	9.56297
 343	1	1	0.00157	29.3839	11.8513	-2.25842
 344	1	5	0.178696	31.3479	15.0251	1.33924
 345	1	2	-0.592725	30.4227	13.2079	-0.480857
 346	1	6	-0.000174	30.0136	12.4918	5.10535
 347	1	5	0.1602	29.4437	10.703	2.99897
 348	1	4	0.461284	29.8151	12.0742	-0.859654
 349	1	1	-0.167191	29.0541	11.5517	5.59976
 350	1	5	0.164364	31.3946	14.0719	5.76946
 351	1	1	-0.325009	28.7315	11.4611	6.97361
 352	1	8	0.422373	31.4075	14.6813	8.49634
 353	1	1	-0.217421	30.6478	13.3447	6.05843
 354	1	5	0.173851	28.5658	9.86041	-1.99836
 355	1	5	0.197073	28.3052	11.4637	-5.97891
 356	1	6	0.024852	30.2732	12.6408	3.62521
 357	1	1	0.048807	30.0166	11.9193	1.31272
 358	1	1	0.060532	29.1668	12.7999	-4.52942
 359	1	5	0.140008	31.1211	14.653	3.78098
 360	1	5	0.202663	27.9984	10.7567	7.35085
 361	1	1	-0.222969	29.8768	11.6429	2.68084
 362	1	1	0.35235	30.5208	13.1026	0.852666
 363	1	1	0.269742	28.3697	10.5065	-4.05383
 364	1	1	-0.166682	30.8381	13.8502	3.11104
 365	1	1	-0.277787	30.9708	14.0854	1.7285
 366	1	1	-0.312482	28.7423	10.6679	-2.69723
 367	1	9	0.442075	29.2292	14.0025	-5.51371
 368	1	5	0.128262	30.0237	13.8177	-2.836
 369	1	3	-0.434358	29.5949	11.2078	0.220104
 370	1	8	0.354457	29.1266	10.3218	0.202765
 371	1	1	-0.233188	29.5761	12.895	-3.18808
 372	1	5	0.143867	28.5229	10.9041	4.91113
 373	1	9	-0.2502	30.115	13.6582	-6.7339
 374	1	9	-0.249785	29.7908	15.3013	-4.87848
 375	1	9	-0.32829	27.7995	14.3301	-6.01225
 376	1	10	0.056572	30.8231	15.1595	-4.53539
 377	1	10	0.044267	29.1804	15.618	-4.02283
 378	1	10	0.051935	29.7931	16.1253	-5.60296
 379	1	10	0.069302	27.3664	13.4929	-6.57208
 380	1	10	0.077707	27.7994	15.2062	-6.67184
 381	1	10	0.059383	27.1365	14.5438	-5.16415
 382	1	10	0.048889	31.1363	13.4176	-6.41379
 383	1	10	0.055177	30.1673	14.5034	-7.4316
 384	1	10	0.04962	29.721	12.7959	-7.28449
 385	1	1	0.438909	31.2314	7.62833	21.2239
 386	1	1	0.108796	29.8856	7.50414	21.0003
 387	1	2	-0.726889	31.6085	7.04115	22.3702
 388	1	3	-0.675747	29.3628	6.80094	22.0463
 389	1	1	-0.43042	31.1078	14.8893	11.3079
 390	1	4	0.62373	30.4619	6.57194	22.8885
 391	1	1	0.00157	29.9032	13.4006	13.37
 392	1	5	0.178696	27.4151	9.09739	15.0764
 393	1	2	-0.592725	28.5649	11.4957	14.2813
 394	1	6	-0.000174	30.0307	8.86955	19.016
 395	1	5	0.1602	30.6542	11.3767	18.1407
 396	1	4	0.461284	29.4069	12.5295	14.4508
 397	1	1	-0.167191	31.4346	8.9737	19.253
 398	1	5	0.164364	28.1665	8.01053	19.7751
 399	1	1	-0.325009	32.0462	8.35192	20.3594
 400	1	8	0.422373	28.401	6.5778	22.2276
 401	1	1	-0.217421	29.2391	8.09854	19.9104
 402	1	5	0.173851	28.9168	12.3189	11.7858
 403	1	5	0.197073	31.5857	15.4327	10.5048
 404	1	6	0.024852	29.4376	9.58664	17.849
 405	1	1	0.048807	29.4747	11.4621	16.3343
 406	1	1	0.060532	31.3941	15.2295	12.6501
 407	1	5	0.140008	28.1125	7.97851	17.2247
 408	1	5	0.202663	33.1072	8.44078	20.5634
 409	1	1	-0.222969	29.9208	10.8771	17.5169
 410	1	1	0.35235	28.6314	10.8359	15.4586
 411	1	1	0.269742	30.2211	13.837	10.976
 412	1	1	-0.166682	28.477	8.97503	16.9899
 413	1	1	-0.277787	28.075	9.59329	15.7805
 414	1	1	-0.312482	29.5878	13.1428	12.0249
 415	1	9	0.442075	32.395	16.3521	13.0447
 416	1	5	0.128262	31.0612	14.6433	14.6908
 417	1	3	-0.434358	29.919	12.5995	15.7455
 418	1	8	0.354457	30.6498	13.2076	16.0635
 419	1	1	-0.233188	30.8027	14.4451	13.6586
 420	1	5	0.143867	32.053	9.54119	18.5624
 421	1	9	-0.2502	33.7226	15.7071	13.5048
 422	1	9	-0.249785	31.8347	17.2238	14.1996
 423	1	9	-0.32829	32.7143	17.3166	11.8743
 424	1	10	0.056572	32.5007	18.0686	14.415
 425	1	10	0.044267	31.7305	16.658	15.132
 426	1	10	0.051935	30.8499	17.6294	13.9356
 427	1	10	0.069302	33.2486	16.8033	11.0665
 428	1	10	0.077707	33.3553	18.1411	12.211
 429	1	10	0.059383	31.7939	17.7532	11.4664
 430	1	10	0.048889	34.4501	16.4702	13.8085
 431	1	10	0.055177	34.1669	15.1168	12.6936
 432	1	10	0.04962	33.5617	15.0355	14.3571
 433	1	1	0.438909	22.3223	5.55443	33.4958
 434	1	1	0.108796	21.6236	5.20087	32.3731
 435	1	2	-0.726889	21.5669	5.46679	34.6065
 436	1	3	-0.675747	20.3543	4.89948	32.7584
 437	1	1	-0.43042	31.5591	5.85245	25.0284
 438	1	4	0.62373	20.381	5.02454	34.1538
 439	1	1	0.00157	29.0842	5.16817	26.155
 440	1	5	0.178696	23.8692	5.70381	26.2669
 441	1	2	-0.592725	26.5945	5.19651	26.2111
 442	1	6	-0.000174	23.5962	5.38091	30.9912
 443	1	5	0.1602	26.2274	4.67255	30.5644
 444	1	4	0.461284	27.7774	4.96567	26.8061
 445	1	1	-0.167191	24.306	5.79093	32.1625
 446	1	5	0.164364	21.6295	4.75379	30.2582
 447	1	1	-0.325009	23.6754	5.87531	33.4232
 448	1	8	0.422373	19.6052	4.53663	32.1974
 449	1	1	-0.217421	22.2094	5.09198	31.1095
 450	1	5	0.173851	28.2422	5.71881	24.2544
 451	1	5	0.197073	32.4942	6.18144	24.586
 452	1	6	0.024852	24.308	5.24244	29.6801
 453	1	1	0.048807	26.3292	4.84844	28.4175
 454	1	1	0.060532	31.5354	5.37986	26.3556
 455	1	5	0.140008	22.6054	5.78847	28.4355
 456	1	5	0.202663	24.2128	6.15294	34.3229
 457	1	1	-0.222969	25.6827	4.88886	29.6524
 458	1	1	0.35235	25.7124	5.14361	27.2333
 459	1	1	0.269742	30.3916	5.97433	24.2456
 460	1	1	-0.166682	23.6518	5.49723	28.437
 461	1	1	-0.277787	24.3497	5.45243	27.2064
 462	1	1	-0.312482	29.1615	5.60118	24.8188
 463	1	9	0.442075	32.82	5.36394	27.2325
 464	1	5	0.128262	30.2147	4.73879	27.9323
 465	1	3	-0.434358	27.6493	4.66592	28.1622
 466	1	8	0.354457	28.3933	4.53436	28.8219
 467	1	1	-0.233188	30.2769	5.04557	26.8972
 468	1	5	0.143867	25.3595	6.04524	32.0912
 469	1	9	-0.2502	34.0972	5.07797	26.3994
 470	1	9	-0.249785	32.7597	4.2797	28.341
 471	1	9	-0.32829	32.9748	6.74487	27.9115
 472	1	10	0.056572	32.016	4.52304	29.1081
 473	1	10	0.044267	33.7242	4.18904	28.8563
 474	1	10	0.051935	32.515	3.29958	27.9128
 475	1	10	0.069302	32.0223	7.07238	28.3466
 476	1	10	0.077707	33.2841	7.50562	27.1838
 477	1	10	0.059383	33.7235	6.71624	28.7127
 478	1	10	0.048889	34.3273	5.89825	25.7095
 479	1	10	0.055177	33.9791	4.1589	25.812
 480	1	10	0.04962	34.9739	4.95624	27.0475
 481	1	1	0.438909	7.55657	0.622294	34.0863
 482	1	1	0.108796	8.30066	1.23064	35.058
 483	1	2	-0.726889	6.24312	0.629422	34.4037
 484	1	3	-0.675747	7.46941	1.6152	36.0565
 485	1	1	-0.43042	19.4	4.63731	36.4442
 486	1	4	0.62373	6.19857	1.28324	35.5822
 487	1	1	0.00157	17.0525	3.59255	35.3164
 488	1	5	0.178696	13.9283	2.79996	31.1722
 489	1	2	-0.592725	15.5712	3.10314	33.3832
 490	1	6	-0.000174	10.3072	1.12455	33.7252
 491	1	5	0.1602	12.2586	1.31181	35.6535
 492	1	4	0.461284	15.8295	3.04798	34.7013
 493	1	1	-0.167191	9.54341	0.449326	32.7242
 494	1	5	0.164364	10.1664	2.08743	35.6852
 495	1	1	-0.325009	8.15916	0.194319	32.8993
 496	1	8	0.422373	7.67819	2.22412	36.8239
 497	1	1	-0.217421	9.65268	1.51772	34.9204
 498	1	5	0.173851	17.9351	4.08702	33.4238
 499	1	5	0.197073	20.3256	5.02947	36.8584
 500	1	6	0.024852	11.7387	1.51346	33.5356
 501	1	1	0.048807	13.8676	2.1438	34.4874
 502	1	1	0.060532	18.3994	4.14361	37.3074
 503	1	5	0.140008	11.5934	1.8912	31.3961
 504	1	5	0.202663	7.55891	-0.275681	32.1283
 505	1	1	-0.222969	12.5922	1.61265	34.6671
 506	1	1	0.35235	14.3416	2.55861	33.274
 507	1	1	0.269742	19.2682	4.60812	35.042
 508	1	1	-0.166682	12.244	1.92424	32.2658
 509	1	1	-0.277787	13.5519	2.4461	32.1263
 510	1	1	-0.312482	18.0718	4.10883	34.4996
 511	1	9	0.442075	18.6255	4.18193	38.8446
 512	1	5	0.128262	16.444	3.2125	37.3427
 513	1	3	-0.434358	14.8067	2.43705	35.4253
 514	1	8	0.354457	14.785	2.25478	36.4116
 515	1	1	-0.233188	17.2328	3.60745	36.7155
 516	1	5	0.143867	10.028	0.144746	31.7995
 517	1	9	-0.2502	19.8786	3.34941	39.2093
 518	1	9	-0.249785	17.437	3.61111	39.6606
 519	1	9	-0.32829	18.8405	5.64202	39.3106
 520	1	10	0.056572	17.2598	2.55684	39.4147
 521	1	10	0.044267	16.5167	4.17679	39.4687
 522	1	10	0.051935	17.6399	3.6674	40.7377
 523	1	10	0.069302	18.9831	5.69457	40.397
 524	1	10	0.077707	17.973	6.26077	39.05
 525	1	10	0.059383	19.724	6.0885	38.8388
 526	1	10	0.048889	19.7706	2.31548	38.8583
 527	1	10	0.055177	20.0368	3.32554	40.2946
 528	1	10	0.04962	20.7844	3.76541	38.7521
 529	1	1	0.438909	0.742556	5.10283	25.3918
 530	1	1	0.108796	0.899525	3.85431	25.8603
 531	1	2	-0.726889	1.20779	5.24704	24.1248
 532	1	3	-0.675747	1.38379	3.09662	24.8477
 533	1	1	-0.43042	5.00449	2.53714	37.4162
 534	1	4	0.62373	1.5464	3.98796	23.7852
 535	1	1	0.00157	2.56919	2.29504	36.0404
 536	1	5	0.178696	-1.49026	4.96077	34.2135
 537	1	2	-0.592725	0.369671	3.23739	35.3392
 538	1	6	-0.000174	0.000903804	4.28118	28.2599
 539	1	5	0.1602	1.03296	1.83948	31.4248
 540	1	4	0.461284	1.37852	2.36397	35.1751
 541	1	1	-0.167191	-0.375011	5.53111	27.492
 542	1	5	0.164364	1.04387	2.47507	27.3096
 543	1	1	-0.325009	0.0438334	5.97095	26.2035
 544	1	8	0.422373	1.55995	2.10872	24.8341
 545	1	1	-0.217421	0.633588	3.46451	27.1672
 546	1	5	0.173851	3.69979	1.04735	34.6662
 547	1	5	0.197073	5.95879	2.67649	37.9032
 548	1	6	0.024852	-0.284914	3.6697	31.0629
 549	1	1	0.048807	0.430715	2.45186	33.2406
 550	1	1	0.060532	3.86203	3.17834	37.9449
 551	1	5	0.140008	-1.70743	5.22608	31.9165
 552	1	5	0.202663	-0.224704	6.94777	25.8175
 553	1	1	-0.222969	0.375564	2.5808	31.8604
 554	1	1	0.35235	-0.152051	3.3085	34.0953
 555	1	1	0.269742	4.9552	1.77262	36.2302
 556	1	1	-0.166682	-1.05658	4.39171	32.1442
 557	1	1	-0.277787	-0.989116	4.25911	33.5555
 558	1	1	-0.312482	3.71552	1.60644	35.5956
 559	1	9	0.442075	3.97915	4.11267	39.1828
 560	1	5	0.128262	1.77854	3.62015	37.5223
 561	1	3	-0.434358	1.34514	1.73326	33.9352
 562	1	8	0.354457	2.07013	1.15329	33.5533
 563	1	1	-0.233188	2.65792	3.06277	37.2166
 564	1	5	0.143867	-0.99462	6.303	27.9355
 565	1	9	-0.2502	4.48157	5.49583	38.7102
 566	1	9	-0.249785	4.97887	3.5566	40.2326
 567	1	9	-0.32829	2.63014	4.31085	39.9191
 568	1	10	0.056572	4.96639	4.16253	41.1472
 569	1	10	0.044267	6.01093	3.56592	39.8649
 570	1	10	0.051935	4.71886	2.52665	40.5073
 571	1	10	0.069302	2.76478	4.89681	40.8367
 572	1	10	0.077707	2.19344	3.34343	40.1964
 573	1	10	0.059383	1.9064	4.85438	39.3006
 574	1	10	0.048889	5.4653	5.4138	38.2315
 575	1	10	0.055177	4.56846	6.1956	39.5505
 576	1	10	0.04962	3.78875	5.92822	37.9769
 577	1	1	0.438909	11.8576	6.04411	15.9857
 578	1	1	0.108796	11.0782	6.97485	16.6219
 579	1	2	-0.726889	12.9693	6.59098	15.4576
 580	1	3	-0.675747	11.7382	8.16708	16.5509
 581	1	1	-0.43042	1.28356	2.2613	22.0388
 582	1	4	0.62373	12.8719	7.89384	15.7652
 583	1	1	0.00157	2.88717	3.65245	20.1951
 584	1	5	0.178696	5.36815	3.085	15.7048
 585	1	2	-0.592725	4.05126	3.63539	18.0284
 586	1	6	-0.000174	9.27302	5.38637	16.8898
 587	1	5	0.1602	7.61145	6.02886	19.0931
 588	1	4	0.461284	3.9134	4.16155	19.2532
 589	1	1	-0.167191	10.1317	4.40788	16.3011
 590	1	5	0.164364	9.15322	7.4857	17.4904
 591	1	1	-0.325009	11.4256	4.72905	15.8404
 592	1	8	0.422373	11.3952	9.07092	16.8125
 593	1	1	-0.217421	9.7804	6.70187	17.081
 594	1	5	0.173851	3.10226	5.13671	21.7768
 595	1	5	0.197073	0.655445	1.74864	22.7567
 596	1	6	0.024852	7.84079	5.02905	17.1574
 597	1	1	0.048807	5.81379	4.95211	18.4977
 598	1	1	0.060532	1.35212	1.7854	20.7157
 599	1	5	0.140008	7.68715	3.92246	15.2885
 600	1	5	0.202663	12.0528	4.00024	15.3373
 601	1	1	-0.222969	7.12912	5.42845	18.3296
 602	1	1	0.35235	5.22032	4.11879	17.5868
 603	1	1	0.269742	1.84639	3.50064	22.4145
 604	1	1	-0.166682	7.16928	4.21538	16.1986
 605	1	1	-0.277787	5.85894	3.75052	16.407
 606	1	1	-0.312482	2.63502	4.20463	21.4748
 607	1	9	0.442075	0.56535	0.541511	20.2162
 608	1	5	0.128262	2.30892	2.08784	18.8257
 609	1	3	-0.434358	4.94867	5.05881	19.5617
 610	1	8	0.354457	5.11807	5.4915	20.4509
 611	1	1	-0.233188	2.17443	2.49214	19.8246
 612	1	5	0.143867	9.76733	3.39236	16.1607
 613	1	9	-0.2502	-0.439303	-0.0035185	21.2652
 614	1	9	-0.249785	1.54532	-0.602035	19.8668
 615	1	9	-0.32829	-0.256857	0.905934	18.9546
 616	1	10	0.056572	2.15771	-0.865955	20.7377
 617	1	10	0.044267	2.22345	-0.310759	19.0553
 618	1	10	0.051935	1.00396	-1.50046	19.5449
 619	1	10	0.069302	-0.912459	0.0801316	18.6529
 620	1	10	0.077707	0.394043	1.13437	18.1024
 621	1	10	0.059383	-0.883409	1.78683	19.1438
 622	1	10	0.048889	-1.1499	0.77535	21.5699
 623	1	10	0.055177	0.0793252	-0.374092	22.1577
 624	1	10	0.04962	-1.02137	-0.83848	20.8552
 625	1	1	0.438909	19.532	9.60369	4.31283
 626	1	1	0.108796	19.5439	10.6493	5.19521
 627	1	2	-0.726889	19.7424	9.9982	3.04833
 628	1	3	-0.675747	19.7924	11.7841	4.46349
 629	1	1	-0.43042	13.6358	10.292	15.6114
 630	1	4	0.62373	19.879	11.3302	3.13339
 631	1	1	0.00157	15.4661	9.64355	13.5696
 632	1	5	0.178696	17.9734	6.1664	10.566
 633	1	2	-0.592725	16.712	8.05949	12.1174
 634	1	6	-0.000174	18.9838	9.16777	7.04863
 635	1	5	0.1602	17.9262	10.9183	8.98743
 636	1	4	0.461284	16.3513	9.31092	12.4322
 637	1	1	-0.167191	19.0129	8.0992	6.09749
 638	1	5	0.164364	19.2678	11.3389	7.23013
 639	1	1	-0.325009	19.279	8.30697	4.73194