pySIMM System Object

2162 atoms
2386 bonds
4140 angles
6341 dihedrals
540 impropers

10 atom types
14 bond types
23 angle types
11 dihedral types
3 improper types

-188.136941 188.136941 xlo xhi
-188.136941 188.136941 ylo yhi
-188.136941 188.136941 zlo zhi

Masses

   1	12.01	# ca
   2	14.01	# nc
   3	14.01	# na
   4	12.01	# cd
   5	1.008	# ha
   6	12.01	# cp
   7	1.008	# h5
   8	1.008	# hn
   9	12.01	# c3
  10	1.008	# hc

Pair Coeffs

   1	0.086	3.3996695084235347	# ca
   2	0.17	3.249998523775958	# nc
   3	0.17	3.249998523775958	# na
   4	0.086	3.3996695084235347	# cd
   5	0.015	2.59964245953351	# ha
   6	0.086	3.3996695084235347	# cp
   7	0.015	2.421462715905442	# h5
   8	0.0157	1.069078461768407	# hn
   9	0.1094	3.3996695084235347	# c3
  10	0.0157	2.649532787749369	# hc

Bond Coeffs

   1	425.8	1.3802	# cd,na
   2	467.7	1.3517	# ca,nc
   3	345.8	1.086	# ca,ha
   4	351.8	1.0818	# cd,h5
   5	385.1	1.4555	# ca,cd
   6	351.4	1.4854	# cp,cp
   7	321.0	1.5156	# c3,ca
   8	525.4	1.3172	# cd,nc
   9	300.9	1.5375	# c3,c3
  10	330.6	1.0969	# c3,hc
  11	450.2	1.4058	# ca,cp
  12	420.5	1.384	# ca,na
  13	408.4	1.01	# hn,na
  14	461.1	1.3984	# ca,ca

Angle Coeffs

   1	66.72	118.38	# ca,cp,ca
   2	62.86	111.51	# c3,c3,c3
   3	66.26	120.69	# ca,ca,cp
   4	63.15	112.07	# c3,c3,ca
   5	67.4	113.15	# ca,na,cd
   6	46.34	109.8	# c3,c3,hc
   7	66.28	123.45	# ca,cd,na
   8	48.18	119.88	# ca,ca,ha
   9	67.6	123.24	# ca,cd,nc
  10	64.05	121.11	# ca,cp,cp
  11	46.75	125.5	# cd,na,hn
  12	66.62	120.02	# ca,ca,ca
  13	72.48	104.88	# ca,nc,cd
  14	74.9	112.22	# na,cd,nc
  15	46.63	125.54	# ca,na,hn
  16	65.02	120.79	# ca,ca,cd
  17	69.46	119.72	# ca,ca,nc
  18	47.98	119.86	# cp,ca,ha
  19	39.4	107.58	# hc,c3,hc
  20	63.53	120.77	# c3,ca,ca
  21	69.08	118.34	# ca,ca,na
  22	49.58	121.55	# h5,cd,na
  23	50.58	125.52	# h5,cd,nc

Dihedral Coeffs

   1	1	4.0	2	180	# X,ca,cd,X
   2	1	3.625	2	180	# X,ca,cp,X
   3	1	4.75	2	180	# X,cd,nc,X
   4	1	0.3	2	180	# X,ca,na,X
   5	1	3.625	2	180	# X,ca,ca,X
   6	1	1.7	2	180	# X,cd,na,X
   7	1	1.0	2	180	# X,cp,cp,X
   8	1	0.16	3	0	# hc,c3,c3,c3
   9	1	0.15555555555555556	3	0	# X,c3,c3,X
  10	1	0.0	2	0	# X,c3,ca,X
  11	1	4.8	2	180	# X,ca,nc,X

Improper Coeffs

   1	1.1	-1	2	# na,X,X,hn
   2	1.1	-1	2	# ca,ca,ca,c3
   3	1.1	-1	2	# ca,X,X,ha

Atoms

   1	1	1	0.438909	-23.7796	-69.2089	10.7659
   2	1	1	0.108796	-24.1373	-70.2873	10.0055
   3	1	2	-0.726889	-24.1862	-68.0488	10.2082
   4	1	3	-0.675747	-24.8107	-69.8216	8.92109
   5	1	1	-0.43042	-20.0391	-79.7555	17.1832
   6	1	4	0.62373	-24.7883	-68.4273	9.06622
   7	1	1	0.00157	-20.8327	-77.8087	15.3086
   8	1	5	0.178696	-21.8014	-76.2796	10.3856
   9	1	2	-0.592725	-21.3229	-77.0228	13.0017
  10	1	6	-0.000174	-23.0087	-71.8307	11.4885
  11	1	5	0.1602	-22.4538	-72.8792	14.0096
  12	1	4	0.461284	-21.2436	-76.7912	14.3221
  13	1	1	-0.167191	-22.6529	-70.6999	12.2886
  14	1	5	0.164364	-24.0977	-72.4171	9.6786
  15	1	1	-0.325009	-23.037	-69.3844	11.9337
  16	1	8	0.422373	-25.1706	-70.3451	8.14705
  17	1	1	-0.217421	-23.7835	-71.6009	10.318
  18	1	5	0.173851	-20.5803	-79.3878	13.8474
  19	1	5	0.197073	-19.7267	-80.5278	17.8779
  20	1	6	0.024852	-22.5612	-73.2195	11.8479
  21	1	1	0.048807	-21.8931	-74.8941	13.4653
  22	1	1	0.060532	-20.3423	-78.4551	17.6444
  23	1	5	0.140008	-22.5191	-73.956	9.79424
  24	1	5	0.202663	-22.7464	-68.519	12.5186
  25	1	1	-0.222969	-22.31	-73.5853	13.1998
  26	1	1	0.35235	-21.7218	-75.8396	12.4916
  27	1	1	0.269742	-20.1275	-80.0853	15.8262
  28	1	1	-0.166682	-22.3672	-74.2128	10.8379
  29	1	1	-0.277787	-21.9519	-75.5264	11.1517
  30	1	1	-0.312482	-20.5185	-79.1178	14.8978
  31	1	9	0.442075	-20.2226	-78.12	19.1573
  32	1	5	0.128262	-20.9784	-76.4897	16.9974
  33	1	3	-0.434358	-21.5906	-75.4794	14.6571
  34	1	8	0.354457	-21.6078	-75.0734	15.5743
  35	1	1	-0.233188	-20.7411	-77.497	16.6827
  36	1	5	0.143867	-22.0395	-70.8413	13.1736
  37	1	9	-0.2502	-18.7613	-78.3252	19.6239
  38	1	9	-0.249785	-21.1496	-79.0479	19.9794
  39	1	9	-0.32829	-20.6134	-76.6598	19.5052
  40	1	10	0.056572	-20.8715	-80.1015	19.8601
  41	1	10	0.044267	-22.1923	-78.9365	19.656
  42	1	10	0.051935	-21.0988	-78.8111	21.0495
  43	1	10	0.069302	-19.9572	-75.943	18.996
  44	1	10	0.077707	-20.5241	-76.4776	20.5836
  45	1	10	0.059383	-21.6523	-76.45	19.2209
  46	1	10	0.048889	-18.4425	-79.3666	19.4969
  47	1	10	0.055177	-18.6442	-78.0679	20.684
  48	1	10	0.04962	-18.0788	-77.6918	19.0434
  49	1	1	0.438909	-24.7331	-55.4783	4.73053
  50	1	1	0.108796	-24.8802	-55.5215	6.08989
  51	1	2	-0.726889	-24.556	-54.2204	4.28431
  52	1	3	-0.675747	-24.814	-54.239	6.54775
  53	1	1	-0.43042	-25.8637	-67.9979	6.83251
  54	1	4	0.62373	-24.5904	-53.4669	5.3965
  55	1	1	0.00157	-25.6806	-65.214	7.18539
  56	1	5	0.178696	-24.1092	-60.8605	9.715
  57	1	2	-0.592725	-25.0311	-63.116	8.38739
  58	1	6	-0.000174	-25.0083	-57.9409	6.08049
  59	1	5	0.1602	-26.0262	-60.3355	5.11769
  60	1	4	0.461284	-25.5558	-63.7482	7.32411
  61	1	1	-0.167191	-24.8736	-57.8776	4.65809
  62	1	5	0.164364	-25.1223	-56.702	7.88491
  63	1	1	-0.325009	-24.7367	-56.6485	3.97524
  64	1	8	0.422373	-24.8512	-53.9173	7.49575
  65	1	1	-0.217421	-25.0163	-56.7157	6.80651
  66	1	5	0.173851	-24.8057	-65.689	9.10577
  67	1	5	0.197073	-25.9234	-69.0686	6.68876
  68	1	6	0.024852	-25.0813	-59.2688	6.78089
  69	1	1	0.048807	-25.5633	-61.6406	6.77174
  70	1	1	0.060532	-26.3047	-67.1543	5.79311
  71	1	5	0.140008	-24.1303	-58.6009	8.62494
  72	1	5	0.202663	-24.6061	-56.5933	2.90014
  73	1	1	-0.222969	-25.6088	-60.4086	6.11529
  74	1	1	0.35235	-25.0361	-61.814	8.02107
  75	1	1	0.269742	-25.3145	-67.4935	8.03381
  76	1	1	-0.166682	-24.5634	-59.4476	8.10139
  77	1	1	-0.277787	-24.5373	-60.717	8.72856
  78	1	1	-0.312482	-25.2388	-66.095	8.19292
  79	1	9	0.442075	-26.8274	-67.7672	4.46334
  80	1	5	0.128262	-26.5411	-65.0878	5.22268
  81	1	3	-0.434358	-25.932	-62.8632	6.31132
  82	1	8	0.354457	-26.3101	-63.0996	5.41331
  83	1	1	-0.233188	-26.2123	-65.7632	6.00038
  84	1	5	0.143867	-24.8302	-58.7956	4.07974
  85	1	9	-0.2502	-27.2085	-66.7057	3.39892
  86	1	9	-0.249785	-28.0834	-68.6286	4.73463
  87	1	9	-0.32829	-25.7328	-68.6649	3.83619
  88	1	10	0.056572	-28.4748	-69.0569	3.80332
  89	1	10	0.044267	-28.8772	-68.0225	5.18916
  90	1	10	0.051935	-27.8625	-69.4589	5.41521
  91	1	10	0.069302	-25.4866	-69.5153	4.48172
  92	1	10	0.077707	-24.8127	-68.0897	3.67276
  93	1	10	0.059383	-26.057	-69.0678	2.86854
  94	1	10	0.048889	-26.3464	-66.0774	3.1416
  95	1	10	0.055177	-28.0194	-66.0596	3.75761
  96	1	10	0.04962	-27.5544	-67.1834	2.47362
  97	1	1	0.438909	-22.3152	-42.6311	-2.63092
  98	1	1	0.108796	-21.814	-43.788	-3.16128
  99	1	2	-0.726889	-22.0603	-41.5706	-3.4139
 100	1	3	-0.675747	-21.215	-43.4688	-4.34682
 101	1	1	-0.43042	-24.4438	-51.2494	6.604
 102	1	4	0.62373	-21.392	-42.0809	-4.46164
 103	1	1	0.00157	-23.8642	-49.9161	4.18896
 104	1	5	0.178696	-23.2521	-49.7737	-1.03721
 105	1	2	-0.592725	-23.5156	-49.7988	1.72105
 106	1	6	-0.000174	-22.6172	-45.0776	-1.27327
 107	1	5	0.1602	-22.8087	-45.4576	1.46508
 108	1	4	0.461284	-23.5631	-49.2097	2.92753
 109	1	1	-0.167191	-23.1461	-43.8605	-0.74314
 110	1	5	0.164364	-21.5035	-45.9192	-2.96479
 111	1	1	-0.325009	-22.9942	-42.6294	-1.41582
 112	1	8	0.422373	-20.7705	-44.0811	-5.00356
 113	1	1	-0.217421	-21.9345	-45.0281	-2.52348
 114	1	5	0.173851	-24.0569	-51.8608	3.27341
 115	1	5	0.197073	-24.6643	-51.7757	7.52226
 116	1	6	0.024852	-22.8	-46.3675	-0.527665
 117	1	1	0.048807	-23.1342	-47.5896	1.53528
 118	1	1	0.060532	-24.23	-49.8515	6.62868
 119	1	5	0.140008	-22.8618	-47.6368	-2.29708
 120	1	5	0.202663	-23.3928	-41.7	-1.02461
 121	1	1	-0.222969	-22.9048	-46.3719	0.890663
 122	1	1	0.35235	-23.2573	-48.7795	0.873476
 123	1	1	0.269742	-24.3826	-51.993	5.4025
 124	1	1	-0.166682	-22.9137	-47.6158	-1.21259
 125	1	1	-0.277787	-23.1416	-48.8276	-0.518106
 126	1	1	-0.312482	-24.1041	-51.3023	4.20693
 127	1	9	0.442075	-24.2978	-49.0064	7.93205
 128	1	5	0.128262	-23.7356	-48.1478	5.41222
 129	1	3	-0.434358	-23.3142	-47.8368	2.86011
 130	1	8	0.354457	-23.3041	-47.1847	3.62171
 131	1	1	-0.233188	-23.9251	-49.2144	5.40898
 132	1	5	0.143867	-23.7014	-43.8754	0.190086
 133	1	9	-0.2502	-25.2687	-47.8111	7.75456
 134	1	9	-0.249785	-22.8902	-48.4632	8.27233
 135	1	9	-0.32829	-24.7971	-49.8127	9.1582
 136	1	10	0.056572	-22.9085	-47.868	9.1938
 137	1	10	0.044267	-22.503	-47.8248	7.46914
 138	1	10	0.051935	-22.1819	-49.2891	8.41516
 139	1	10	0.069302	-25.7944	-50.2306	8.97211
 140	1	10	0.077707	-24.8664	-49.1714	10.0458
 141	1	10	0.059383	-24.1108	-50.6328	9.40158
 142	1	10	0.048889	-25.3753	-47.2463	8.68922
 143	1	10	0.055177	-26.2645	-48.1633	7.45717
 144	1	10	0.04962	-24.9174	-47.1085	6.99058
 145	1	1	0.438909	-19.2341	-28.9959	-7.15052
 146	1	1	0.108796	-18.4106	-30.026	-7.51399
 147	1	2	-0.726889	-18.7071	-27.8074	-7.46685
 148	1	3	-0.675747	-17.3048	-29.4854	-8.11277
 149	1	1	-0.43042	-20.1572	-41.7772	-6.66561
 150	1	4	0.62373	-17.5179	-28.1022	-8.01959
 151	1	1	0.00157	-20.5513	-38.9959	-6.52217
 152	1	5	0.178696	-21.9975	-34.8215	-3.73283
 153	1	2	-0.592725	-21.2773	-36.9675	-5.30289
 154	1	6	-0.000174	-19.9381	-31.6369	-6.55435
 155	1	5	0.1602	-19.3913	-33.9783	-7.93357
 156	1	4	0.461284	-20.6767	-37.5373	-6.35927
 157	1	1	-0.167191	-20.7936	-30.5496	-6.20799
 158	1	5	0.164364	-18.0257	-32.1546	-7.49419
 159	1	1	-0.325009	-20.4444	-29.2179	-6.50199
 160	1	8	0.422373	-16.4494	-29.9464	-8.36024
 161	1	1	-0.217421	-18.7163	-31.3609	-7.2337
 162	1	5	0.173851	-21.6021	-39.4177	-4.69209
 163	1	5	0.197073	-19.9792	-42.8445	-6.69247
 164	1	6	0.024852	-20.3258	-33.0331	-6.19302
 165	1	1	0.048807	-20.3594	-35.4048	-6.6314
 166	1	1	0.060532	-19.6392	-40.9591	-7.69768
 167	1	5	0.140008	-21.3403	-32.4796	-4.34258
 168	1	5	0.202663	-21.0762	-28.3815	-6.22832
 169	1	1	-0.222969	-19.9559	-34.1259	-7.02022
 170	1	1	0.35235	-21.0692	-35.6518	-5.48879
 171	1	1	0.269742	-20.8812	-41.24	-5.57734
 172	1	1	-0.166682	-21.0739	-33.2977	-5.00575
 173	1	1	-0.277787	-21.4486	-34.6092	-4.64417
 174	1	1	-0.312482	-21.0733	-39.8501	-5.53935
 175	1	9	0.442075	-18.8011	-41.5879	-8.84601
 176	1	5	0.128262	-19.4384	-38.8973	-8.34907
 177	1	3	-0.434358	-20.1117	-36.6012	-7.22732
 178	1	8	0.354457	-19.7083	-36.7724	-8.1292
 179	1	1	-0.233188	-19.8505	-39.5643	-7.60297
 180	1	5	0.143867	-21.7401	-30.7451	-5.71057
 181	1	9	-0.2502	-18.4966	-40.5984	-10.0014
 182	1	9	-0.249785	-19.5502	-42.7865	-9.47729
 183	1	9	-0.32829	-17.4488	-42.084	-8.28758
 184	1	10	0.056572	-18.989	-43.2044	-10.3223
 185	1	10	0.044267	-20.5304	-42.4687	-9.84443
 186	1	10	0.051935	-19.7053	-43.599	-8.75865
 187	1	10	0.069302	-16.8904	-41.253	-7.83815
 188	1	10	0.077707	-16.829	-42.5212	-9.08008
 189	1	10	0.059383	-17.5952	-42.8462	-7.51286
 190	1	10	0.048889	-17.9601	-41.0976	-10.8181
 191	1	10	0.055177	-17.8648	-39.7686	-9.66068
 192	1	10	0.04962	-19.4224	-40.1854	-10.4137
 193	1	1	0.438909	-15.2728	-15.494	-4.30177
 194	1	1	0.108796	-15.6053	-16.5071	-3.44643
 195	1	2	-0.726889	-14.6996	-14.4666	-3.64374
 196	1	3	-0.675747	-15.2485	-16.1411	-2.19492
 197	1	1	-0.43042	-15.3554	-27.2637	-9.12151
 198	1	4	0.62373	-14.6484	-14.8919	-2.36813
 199	1	1	0.00157	-16.047	-24.6377	-8.37632
 200	1	5	0.178696	-18.5281	-22.0133	-4.72059
 201	1	2	-0.592725	-17.3034	-23.2326	-6.826
 202	1	6	-0.000174	-16.2029	-17.9664	-5.25922
 203	1	5	0.1602	-15.1836	-19.4059	-7.40165
 204	1	4	0.461284	-16.3767	-23.33	-7.78872
 205	1	1	-0.167191	-15.8843	-16.9054	-6.15855
 206	1	5	0.164364	-16.2404	-18.5392	-3.14809
 207	1	1	-0.325009	-15.4206	-15.6549	-5.68169
 208	1	8	0.422373	-15.3119	-16.6813	-1.35586
 209	1	1	-0.217421	-16.0643	-17.7471	-3.86718
 210	1	5	0.173851	-17.7833	-25.5391	-7.50173
 211	1	5	0.197073	-15.0778	-28.2825	-9.35877
 212	1	6	0.024852	-16.5925	-19.3236	-5.7286
 213	1	1	0.048807	-16.279	-21.2585	-7.13567
 214	1	1	0.060532	-14.5027	-26.1904	-9.49688
 215	1	5	0.140008	-17.9803	-19.6509	-4.08267
 216	1	5	0.202663	-15.1278	-14.8523	-6.34961
 217	1	1	-0.222969	-15.9505	-19.9308	-6.84223
 218	1	1	0.35235	-17.1982	-21.9655	-6.40921
 219	1	1	0.269742	-16.57	-27.0359	-8.43573
 220	1	1	-0.166682	-17.5218	-20.087	-4.96466
 221	1	1	-0.277787	-17.839	-21.4128	-5.30577
 222	1	1	-0.312482	-16.8834	-25.7197	-8.08369
 223	1	9	0.442075	-13.1386	-26.4537	-10.1983
 224	1	5	0.128262	-14.233	-24.0373	-9.33959
 225	1	3	-0.434358	-15.7207	-22.1216	-8.03571
 226	1	8	0.354457	-15.0241	-21.9364	-8.73395
 227	1	1	-0.233188	-14.8838	-24.8769	-9.12729
 228	1	5	0.143867	-15.9785	-17.0687	-7.22942
 229	1	9	-0.2502	-12.0727	-26.7777	-9.12793
 230	1	9	-0.249785	-12.6431	-25.2304	-11.0101
 231	1	9	-0.32829	-13.2271	-27.6497	-11.1813
 232	1	10	0.056572	-11.7754	-25.4844	-11.6316
 233	1	10	0.044267	-12.3357	-24.4051	-10.3568
 234	1	10	0.051935	-13.4357	-24.8662	-11.6692
 235	1	10	0.069302	-13.3233	-28.604	-10.6518
 236	1	10	0.077707	-12.3258	-27.7197	-11.8035
 237	1	10	0.059383	-14.089	-27.5341	-11.8458
 238	1	10	0.048889	-11.0972	-26.9781	-9.58883
 239	1	10	0.055177	-12.361	-27.6577	-8.54032
 240	1	10	0.04962	-11.953	-25.9366	-8.43312
 241	1	1	0.438909	-9.31638	-4.65717	2.90406
 242	1	1	0.108796	-10.5572	-4.69517	2.327
 243	1	2	-0.726889	-9.39789	-4.44954	4.23719
 244	1	3	-0.675747	-11.4711	-4.47219	3.2992
 245	1	1	-0.43042	-13.7391	-14.8303	-0.0213768
 246	1	4	0.62373	-10.7224	-4.45181	4.47698
 247	1	1	0.00157	-12.469	-12.3784	-0.529746
 248	1	5	0.178696	-11.9827	-7.89286	-3.20995
 249	1	2	-0.592725	-12.0397	-10.3244	-1.87351
 250	1	6	-0.000174	-9.70781	-5.82577	0.385526
 251	1	5	0.1602	-9.54374	-8.33226	1.13614
 252	1	4	0.461284	-11.81	-11.0901	-0.793969
 253	1	1	-0.167191	-8.39749	-5.68594	0.930382
 254	1	5	0.164364	-11.8179	-5.46933	0.761796
 255	1	1	-0.325009	-8.18978	-5.07789	2.19263
 256	1	8	0.422373	-12.4652	-4.57828	3.22913
 257	1	1	-0.217421	-10.8017	-5.26589	1.08274
 258	1	5	0.173851	-13.413	-12.4814	-2.46856
 259	1	5	0.197073	-14.2119	-15.7881	0.142189
 260	1	6	0.024852	-10.0434	-6.97545	-0.488825
 261	1	1	0.048807	-10.6401	-9.30336	-0.447793
 262	1	1	0.060532	-12.9097	-14.2796	0.979079
 263	1	5	0.140008	-10.8919	-5.88085	-2.16656
 264	1	5	0.202663	-7.22255	-5.09582	2.68294
 265	1	1	-0.222969	-9.97734	-8.2368	0.145376
 266	1	1	0.35235	-11.3384	-9.19884	-1.6191
 267	1	1	0.269742	-13.9074	-14.2093	-1.28164
 268	1	1	-0.166682	-10.7597	-6.85831	-1.71576
 269	1	1	-0.277787	-11.3871	-7.98174	-2.30746
 270	1	1	-0.312482	-13.2865	-12.9714	-1.50357
 271	1	9	0.442075	-12.6692	-14.9796	2.34658
 272	1	5	0.128262	-11.6671	-12.5876	1.46002
 273	1	3	-0.434358	-10.9137	-10.5109	0.099571
 274	1	8	0.354457	-10.591	-10.8815	0.973213
 275	1	1	-0.233188	-12.2922	-13.0437	0.701357
 276	1	5	0.143867	-7.5689	-6.19134	0.439043
 277	1	9	-0.2502	-11.1565	-15.0591	2.67182
 278	1	9	-0.249785	-13.224	-16.4265	2.39956
 279	1	9	-0.32829	-13.3706	-14.1674	3.45697
 280	1	10	0.056572	-12.9882	-16.9025	3.35988
 281	1	10	0.044267	-12.7817	-17.0445	1.60765
 282	1	10	0.051935	-14.3151	-16.4422	2.28901
 283	1	10	0.069302	-12.9256	-13.172	3.52836
 284	1	10	0.077707	-13.2582	-14.6579	4.43241
 285	1	10	0.059383	-14.4422	-14.0618	3.24681
 286	1	10	0.048889	-10.6157	-15.582	1.87288
 287	1	10	0.055177	-10.9827	-15.6036	3.60857
 288	1	10	0.04962	-10.7074	-14.0664	2.78991
 289	1	1	0.438909	-9.30115	-5.61596	17.9516
 290	1	1	0.108796	-8.75516	-4.55643	17.2809
 291	1	2	-0.726889	-9.41259	-5.36215	19.2708
 292	1	3	-0.675747	-8.54307	-3.55901	18.1787
 293	1	1	-0.43042	-12.7636	-4.73901	5.8932
 294	1	4	0.62373	-8.98031	-4.09282	19.397
 295	1	1	0.00157	-11.2195	-5.14532	8.20224
 296	1	5	0.178696	-6.81668	-4.76283	11.0595
 297	1	2	-0.592725	-9.12366	-5.1237	9.56493
 298	1	6	-0.000174	-8.9729	-5.68313	15.1649
 299	1	5	0.1602	-11.0179	-6.15681	13.4164
 300	1	4	0.461284	-10.4419	-5.34736	9.43939
 301	1	1	-0.167191	-9.55999	-6.78096	15.8615
 302	1	5	0.164364	-8.14995	-3.67355	15.3998
 303	1	1	-0.325009	-9.71242	-6.76186	17.268
 304	1	8	0.422373	-7.9874	-2.73238	18.0464
 305	1	1	-0.217421	-8.55609	-4.54575	15.9014
 306	1	5	0.173851	-9.51713	-4.71106	6.93615
 307	1	5	0.197073	-13.3547	-4.56843	5.00481
 308	1	6	0.024852	-8.91102	-5.65253	13.6775
 309	1	1	0.048807	-10.023	-5.7144	11.543
 310	1	1	0.060532	-13.42	-5.10209	7.08446
 311	1	5	0.140008	-6.83216	-5.03602	13.5687
 312	1	5	0.202663	-10.1792	-7.57608	17.8098
 313	1	1	-0.222969	-10.085	-5.90053	12.9249
 314	1	1	0.35235	-8.89079	-5.3222	10.8813
 315	1	1	0.269742	-11.358	-4.62724	5.80758
 316	1	1	-0.166682	-7.7284	-5.24792	12.9923
 317	1	1	-0.277787	-7.70481	-5.09579	11.5859
 318	1	1	-0.312482	-10.6016	-4.80033	6.9834
 319	1	9	0.442075	-14.9676	-5.24383	7.13272
 320	1	5	0.128262	-13.0977	-5.55452	9.16328
 321	1	3	-0.434358	-11.031	-5.7572	10.6367
 322	1	8	0.354457	-11.9978	-5.97568	10.7907
 323	1	1	-0.233188	-12.6209	-5.30004	8.22712
 324	1	5	0.143867	-9.90419	-7.64224	15.2933
 325	1	9	-0.2502	-15.5894	-3.84397	7.33453
 326	1	9	-0.249785	-15.448	-6.1711	8.28037
 327	1	9	-0.32829	-15.5299	-5.84782	5.81971
 328	1	10	0.056572	-14.9451	-7.14539	8.22707
 329	1	10	0.044267	-16.5291	-6.34785	8.21944
 330	1	10	0.051935	-15.2554	-5.73061	9.26546
 331	1	10	0.069302	-15.0084	-6.78008	5.56739
 332	1	10	0.077707	-15.425	-5.15342	4.98063
 333	1	10	0.059383	-16.5997	-6.07231	5.91053
 334	1	10	0.048889	-16.6846	-3.89693	7.36595
 335	1	10	0.055177	-15.3037	-3.1696	6.51704
 336	1	10	0.04962	-15.2407	-3.39595	8.27346
 337	1	1	0.438909	-10.3633	8.02727	18.8261
 338	1	1	0.108796	-9.39347	8.20042	19.7773
 339	1	2	-0.726889	-10.6858	9.17874	18.2253
 340	1	3	-0.675747	-9.05185	9.52547	19.775
 341	1	1	-0.43042	-9.31284	-3.96745	21.8946
 342	1	4	0.62373	-9.8997	10.0951	18.81
 343	1	1	0.00157	-8.69525	-1.22268	21.8998
 344	1	5	0.178696	-8.70572	3.43814	24.3251
 345	1	2	-0.592725	-8.52244	1.00857	23.0019
 346	1	6	-0.000174	-9.45703	5.84972	20.3284
 347	1	5	0.1602	-8.89831	3.37629	19.3213
 348	1	4	0.461284	-8.51434	0.242177	21.8972
 349	1	1	-0.167191	-10.4595	5.69003	19.3272
 350	1	5	0.164364	-8.15318	7.30355	21.3194
 351	1	1	-0.325009	-10.9262	6.78193	18.572
 352	1	8	0.422373	-8.40904	10.0023	20.3777
 353	1	1	-0.217421	-8.91915	7.14587	20.568
 354	1	5	0.173851	-8.43435	-1.46229	19.7709
 355	1	5	0.197073	-9.5787	-5.01899	21.8537
 356	1	6	0.024852	-9.02087	4.64677	21.0939
 357	1	1	0.048807	-8.56166	2.27905	21.1522
 358	1	1	0.060532	-9.31666	-3.27079	23.1244
 359	1	5	0.140008	-9.09708	5.58149	23.0552
 360	1	5	0.202663	-11.703	6.68288	17.8219
 361	1	1	-0.222969	-8.8212	3.4246	20.4027
 362	1	1	0.35235	-8.5551	2.26881	22.5195
 363	1	1	0.269742	-8.97177	-3.3402	20.6795
 364	1	1	-0.166682	-8.91826	4.65527	22.5155
 365	1	1	-0.277787	-8.69907	3.45927	23.2404
 366	1	1	-0.312482	-8.66173	-1.96502	20.7021
 367	1	9	0.442075	-9.7195	-3.93824	24.4683
 368	1	5	0.128262	-9.04392	-1.32059	24.015
 369	1	3	-0.434358	-8.4563	0.994731	20.7235
 370	1	8	0.354457	-8.49865	0.656595	19.7808
 371	1	1	-0.233188	-8.99641	-1.89822	23.0961
 372	1	5	0.143867	-10.898	4.70907	19.1613
 373	1	9	-0.2502	-8.6744	-3.62686	25.569
 374	1	9	-0.249785	-9.82848	-5.48183	24.3694
 375	1	9	-0.32829	-11.0968	-3.40016	24.9209
 376	1	10	0.056572	-8.88467	-5.91831	24.0192
 377	1	10	0.044267	-10.6279	-5.78179	23.6804
 378	1	10	0.051935	-10.0598	-5.92378	25.3465
 379	1	10	0.069302	-11.0712	-2.31174	25.0543
 380	1	10	0.077707	-11.4037	-3.85038	25.8728
 381	1	10	0.059383	-11.866	-3.62744	24.1721
 382	1	10	0.048889	-7.67132	-3.93291	25.2468
 383	1	10	0.055177	-8.9098	-4.1595	26.4986
 384	1	10	0.04962	-8.64148	-2.55779	25.8086
 385	1	1	0.438909	-19.0517	18.3677	13.4419
 386	1	1	0.108796	-17.7085	18.6132	13.3608
 387	1	2	-0.726889	-19.7723	19.3844	12.9259
 388	1	3	-0.675747	-17.5389	19.8315	12.7904
 389	1	1	-0.43042	-9.14079	12.5212	19.0237
 390	1	4	0.62373	-18.84	20.2642	12.5152
 391	1	1	0.00157	-11.204	13.305	17.2665
 392	1	5	0.178696	-15.6395	12.0147	14.837
 393	1	2	-0.592725	-13.2474	12.7795	15.974
 394	1	6	-0.000174	-17.1657	16.459	14.2915
 395	1	5	0.1602	-14.6798	16.9002	15.411
 396	1	4	0.461284	-12.3747	13.6799	16.4533
 397	1	1	-0.167191	-18.5686	16.2113	14.3984
 398	1	5	0.164364	-15.6835	17.9279	13.6306
 399	1	1	-0.325009	-19.5223	17.1663	13.9733
 400	1	8	0.422373	-16.6812	20.2877	12.54
 401	1	1	-0.217421	-16.7354	17.7023	13.7609
 402	1	5	0.173851	-11.6614	11.21	17.1535
 403	1	5	0.197073	-8.36696	12.199	19.7076
 404	1	6	0.024852	-16.153	15.4415	14.7043
 405	1	1	0.048807	-13.9873	14.8647	15.6075
 406	1	1	0.060532	-9.28446	13.8942	18.6972
 407	1	5	0.140008	-17.3459	13.7157	14.1183
 408	1	5	0.202663	-20.5895	16.9855	14.0365
 409	1	1	-0.222969	-14.9049	15.8526	15.2474
 410	1	1	0.35235	-14.2439	13.5285	15.471
 411	1	1	0.269742	-9.98854	11.5379	18.4651
 412	1	1	-0.166682	-16.4048	14.0461	14.5489
 413	1	1	-0.277787	-15.4504	13.0788	14.9324
 414	1	1	-0.312482	-10.988	11.9555	17.5725
 415	1	9	0.442075	-8.36468	15.0047	19.2799
 416	1	5	0.128262	-10.4688	15.3046	17.5669
 417	1	3	-0.434358	-12.7682	14.9956	16.2024
 418	1	8	0.354457	-12.3222	15.8318	16.5298
 419	1	1	-0.233188	-10.3279	14.2594	17.8165
 420	1	5	0.143867	-18.9143	15.271	14.8203
 421	1	9	-0.2502	-7.34228	14.4709	20.3157
 422	1	9	-0.249785	-9.21336	16.087	19.9933
 423	1	9	-0.32829	-7.56221	15.6746	18.1394
 424	1	10	0.056572	-8.57323	16.8443	20.463
 425	1	10	0.044267	-9.83541	15.6364	20.7769
 426	1	10	0.051935	-9.87691	16.6099	19.2954
 427	1	10	0.069302	-6.93322	14.9372	17.6252
 428	1	10	0.077707	-6.90901	16.4655	18.5287
 429	1	10	0.059383	-8.22615	16.1271	17.3934
 430	1	10	0.048889	-6.72721	15.2869	20.716
 431	1	10	0.055177	-6.66186	13.7407	19.8608
 432	1	10	0.04962	-7.85279	13.9958	21.1628
 433	1	1	0.438909	-13.93	29.7659	4.73784
 434	1	1	0.108796	-13.2315	28.5887	4.79753
 435	1	2	-0.726889	-13.968	30.2646	3.48905
 436	1	3	-0.675747	-12.7444	28.3397	3.54908
 437	1	1	-0.43042	-20.4576	21.9061	11.4857
 438	1	4	0.62373	-13.2808	29.3683	2.76106
 439	1	1	0.00157	-18.3344	23.6071	10.7731
 440	1	5	0.178696	-13.2155	24.4813	9.92455
 441	1	2	-0.592725	-15.9153	24.1537	10.5036
 442	1	6	-0.000174	-14.0388	28.1577	7.0313
 443	1	5	0.1602	-16.5178	27.7186	8.00666
 444	1	4	0.461284	-17.2151	24.4679	10.351
 445	1	1	-0.167191	-14.6739	29.4346	6.9949
 446	1	5	0.164364	-12.8227	26.755	5.8754
 447	1	1	-0.325009	-14.6273	30.2478	5.84311
 448	1	8	0.422373	-12.2781	27.5129	3.22226
 449	1	1	-0.217421	-13.2674	27.7438	5.9118
 450	1	5	0.173851	-17.0605	22.1353	11.6641
 451	1	5	0.197073	-21.2503	21.223	11.7761
 452	1	6	0.024852	-14.4033	27.1822	8.10025
 453	1	1	0.048807	-16.1489	26.0446	9.3137
 454	1	1	0.060532	-20.7503	23.0985	10.7867
 455	1	5	0.140008	-12.43	26.3072	8.36891
 456	1	5	0.202663	-15.1803	31.1772	5.76909
 457	1	1	-0.222969	-15.7706	27.0734	8.45653
 458	1	1	0.35235	-15.2706	25.131	9.82714
 459	1	1	0.269742	-19.1374	21.5376	11.8157
 460	1	1	-0.166682	-13.4776	26.2473	8.65263
 461	1	1	-0.277787	-13.905	25.2212	9.53205
 462	1	1	-0.312482	-18.0885	22.3976	11.4396
 463	1	9	0.442075	-22.2005	23.4924	10.3845
 464	1	5	0.128262	-19.8658	24.8844	9.96679
 465	1	3	-0.434358	-17.403	25.6613	9.6586
 466	1	8	0.354457	-18.2761	26.0647	9.37351
 467	1	1	-0.233188	-19.6684	23.9493	10.4739
 468	1	5	0.143867	-15.2714	29.7552	7.84488
 469	1	9	-0.2502	-22.752	24.508	11.4086
 470	1	9	-0.249785	-23.1593	22.2744	10.3352
 471	1	9	-0.32829	-22.2455	24.1397	8.97422
 472	1	10	0.056572	-22.7653	21.4959	9.66943
 473	1	10	0.044267	-24.1495	22.5651	9.96227
 474	1	10	0.051935	-23.3089	21.8377	11.3297
 475	1	10	0.069302	-21.7474	23.4967	8.23757
 476	1	10	0.077707	-21.762	25.1222	8.95748
 477	1	10	0.059383	-23.28	24.2924	8.64216
 478	1	10	0.048889	-22.1181	25.4021	11.4542
 479	1	10	0.055177	-22.7818	24.0658	12.4123
 480	1	10	0.04962	-23.7689	24.8238	11.1442
 481	1	1	0.438909	-6.67375	23.6147	-7.71325
 482	1	1	0.108796	-7.36292	24.7907	-7.82072
 483	1	2	-0.726889	-6.1726	23.2188	-8.89136
 484	1	3	-0.675747	-7.32285	25.1697	-9.13705
 485	1	1	-0.43042	-13.9584	30.34	0.536403
 486	1	4	0.62373	-6.56713	24.1639	-9.76165
 487	1	1	0.00157	-12.2947	28.5416	-0.830043
 488	1	5	0.178696	-8.29264	25.1865	-0.742435
 489	1	2	-0.592725	-10.4557	26.8877	-0.87423
 490	1	6	-0.000174	-7.8615	24.7751	-5.44306
 491	1	5	0.1602	-10.0091	26.556	-5.24742
 492	1	4	0.461284	-11.3402	27.6589	-1.52479
 493	1	1	-0.167191	-7.15533	23.5343	-5.36729
 494	1	5	0.164364	-8.47762	26.3575	-6.83802
 495	1	1	-0.325009	-6.54799	22.953	-6.49751
 496	1	8	0.422373	-7.69453	25.9999	-9.55827
 497	1	1	-0.217421	-7.96317	25.4123	-6.71772
 498	1	5	0.173851	-11.7436	27.8277	1.12281
 499	1	5	0.197073	-14.5889	31.034	1.08648
 500	1	6	0.024852	-8.49563	25.3555	-4.20832
 501	1	1	0.048807	-10.1696	26.7136	-3.1008
 502	1	1	0.060532	-13.9616	30.3569	-0.874413
 503	1	5	0.140008	-7.16136	24.3494	-2.79747
 504	1	5	0.202663	-6.00982	22.013	-6.44588
 505	1	1	-0.222969	-9.59755	26.2535	-4.29239
 506	1	1	0.35235	-9.7333	26.3276	-1.86313
 507	1	1	0.269742	-13.194	29.4181	1.2795
 508	1	1	-0.166682	-8.02531	24.9968	-2.90543
 509	1	1	-0.277787	-8.6454	25.468	-1.72896
 510	1	1	-0.312482	-12.369	28.5249	0.574825
 511	1	9	0.442075	-14.8526	31.3828	-1.62935
 512	1	5	0.128262	-13.0679	29.4396	-2.62163
 513	1	3	-0.434358	-11.2099	27.5737	-2.91371
 514	1	8	0.354457	-11.7447	28.067	-3.60452
 515	1	1	-0.233188	-13.1181	29.4389	-1.5405
 516	1	5	0.143867	-7.09374	22.9976	-4.42587
 517	1	9	-0.2502	-14.3929	32.8183	-1.28181
 518	1	9	-0.249785	-16.3359	31.2148	-1.21598
 519	1	9	-0.32829	-14.793	31.2369	-3.17173
 520	1	10	0.056572	-16.4806	31.4004	-0.145281
 521	1	10	0.044267	-16.6865	30.1978	-1.43174
 522	1	10	0.051935	-16.9791	31.9176	-1.76044
 523	1	10	0.069302	-15.4464	31.9715	-3.65891
 524	1	10	0.077707	-15.1258	30.2394	-3.48454
 525	1	10	0.059383	-13.7759	31.4036	-3.54712
 526	1	10	0.048889	-14.9863	33.5669	-1.82122
 527	1	10	0.055177	-13.3387	32.9606	-1.55028
 528	1	10	0.04962	-14.4955	33.0213	-0.208909
 529	1	1	0.438909	2.88875	14.42	-10.4167
 530	1	1	0.108796	2.75638	14.4825	-11.7543
 531	1	2	-0.726889	3.41771	13.2784	-9.98813
 532	1	3	-0.675747	3.21125	13.2788	-12.251
 533	1	1	-0.43042	-6.61023	25.0348	-12.1738
 534	1	4	0.62373	3.45007	12.5167	-11.0891
 535	1	1	0.00157	-4.8522	22.9569	-12.9267
 536	1	5	0.178696	-1.2864	20.3924	-15.9314
 537	1	2	-0.592725	-3.23086	21.7219	-14.4121
 538	1	6	-0.000174	1.08261	16.4916	-11.7342
 539	1	5	0.1602	-2.09607	19.0802	-11.2898
 540	1	4	0.461284	-3.88104	21.8953	-13.2463
 541	1	1	-0.167191	1.24381	16.1215	-10.2811
 542	1	5	0.164364	2.13286	15.4015	-13.4613
 543	1	1	-0.325009	2.14391	15.2557	-9.64072
 544	1	8	0.422373	3.05825	12.9102	-13.1712
 545	1	1	-0.217421	2.00051	15.4814	-12.3895
 546	1	5	0.173851	-5.00803	22.3576	-10.8613
 547	1	5	0.197073	-7.28157	25.8255	-11.8664
 548	1	6	0.024852	-0.619998	18.4888	-12.9181
 549	1	1	0.048807	-2.52491	20.2467	-12.8757
 550	1	1	0.060532	-6.18937	24.9342	-13.5278
 551	1	5	0.140008	0.0520143	18.6856	-15.0864
 552	1	5	0.202663	2.10681	15.0881	-8.56989
 553	1	1	-0.222969	-1.75704	19.2456	-12.303
 554	1	1	0.35235	-2.38735	20.6984	-14.1318
 555	1	1	0.269742	-6.1853	24.1027	-11.2006
 556	1	1	-0.166682	-0.630025	19.0515	-14.325
 557	1	1	-0.277787	-1.42644	20.0786	-14.9025
 558	1	1	-0.312482	-5.33508	23.0654	-11.613
 559	1	9	0.442075	-6.66316	25.9106	-14.6405
 560	1	5	0.128262	-4.92752	23.8066	-14.8908
 561	1	3	-0.434358	-3.49405	20.9727	-12.2802
 562	1	8	0.354457	-3.84436	20.8941	-11.3426
 563	1	1	-0.233188	-5.29143	23.8974	-13.8709
 564	1	5	0.143867	0.583983	16.5049	-9.5181
 565	1	9	-0.2502	-7.66048	26.981	-14.1279
 566	1	9	-0.249785	-7.37315	25.1234	-15.7696
 567	1	9	-0.32829	-5.45099	26.6611	-15.2423
 568	1	10	0.056572	-7.74833	25.7993	-16.548
 569	1	10	0.044267	-8.22516	24.5581	-15.3714
 570	1	10	0.051935	-6.69437	24.4101	-16.2524
 571	1	10	0.069302	-5.77009	27.3693	-16.0168
 572	1	10	0.077707	-4.73869	25.9661	-15.7023
 573	1	10	0.059383	-4.91847	27.2222	-14.4645
 574	1	10	0.048889	-8.56453	26.5134	-13.7181
 575	1	10	0.055177	-7.9732	27.6456	-14.9433
 576	1	10	0.04962	-7.20449	27.6062	-13.3504
 577	1	1	0.438909	2.45558	10.0273	0.743164
 578	1	1	0.108796	3.67805	9.88073	0.140992
 579	1	2	-0.726889	2.55956	10.0518	2.08924
 580	1	3	-0.675747	4.61737	9.85218	1.12072
 581	1	1	-0.43042	3.19989	10.093	-11.9602
 582	1	4	0.62373	3.87843	9.86693	2.31011
 583	1	1	0.00157	3.241	9.2061	-9.27311
 584	1	5	0.178696	2.1599	5.93156	-5.26127
 585	1	2	-0.592725	2.8605	7.63438	-7.34581
 586	1	6	-0.000174	2.65177	9.27611	-1.95256
 587	1	5	0.1602	3.40765	10.6695	-4.17713
 588	1	4	0.461284	3.19119	8.83942	-7.84211
 589	1	1	-0.167191	1.3829	9.4921	-1.34229
 590	1	5	0.164364	4.80739	9.27962	-1.61082
 591	1	1	-0.325009	1.2748	9.87294	0.0149414
 592	1	8	0.422373	5.57997	9.58477	1.02023
 593	1	1	-0.217421	3.82777	9.49443	-1.19286
 594	1	5	0.173851	3.6719	11.2459	-8.81191
 595	1	5	0.197073	3.15651	10.4494	-12.9809
 596	1	6	0.024852	2.74731	8.76646	-3.34692
 597	1	1	0.048807	3.17712	9.12436	-5.68351
 598	1	1	0.060532	2.95939	8.71728	-11.6753
 599	1	5	0.140008	2.07332	6.7587	-2.87288
 600	1	5	0.202663	0.311826	9.95659	0.506949
 601	1	1	-0.222969	3.15928	9.63313	-4.38439
 602	1	1	0.35235	2.83239	7.84044	-6.00781
 603	1	1	0.269742	3.43158	11.0299	-10.9262
 604	1	1	-0.166682	2.40238	7.42132	-3.67
 605	1	1	-0.277787	2.45493	6.94361	-5.00267
 606	1	1	-0.312482	3.4927	10.5396	-9.61055
 607	1	9	0.442075	2.65461	7.6897	-12.8101
 608	1	5	0.128262	2.79751	7.27119	-10.0448
 609	1	3	-0.434358	3.43548	9.77915	-6.83768
 610	1	8	0.354457	3.61556	10.7595	-6.96019
 611	1	1	-0.233188	2.98808	8.30354	-10.3185
 612	1	5	0.143867	0.481266	9.31293	-1.92448
 613	1	9	-0.2502	1.86487	6.44923	-12.3102
 614	1	9	-0.249785	3.98372	7.19433	-13.4215
 615	1	9	-0.32829	1.7973	8.3154	-13.943
 616	1	10	0.056572	4.61742	6.73906	-12.65
 617	1	10	0.044267	4.54353	8.02301	-13.8717
 618	1	10	0.051935	3.80559	6.44112	-14.2001
 619	1	10	0.069302	1.51084	7.55422	-14.6791
 620	1	10	0.077707	2.34532	9.09266	-14.4856
 621	1	10	0.059383	0.877511	8.75395	-13.5351
 622	1	10	0.048889	0.949208	6.75298	-11.7867
 623	1	10	0.055177	2.46533	5.83311	-11.6302
 624	1	10	0.04962	1.57251	5.7998	-13.1452
 625	1	1	0.438909	-0.332908	3.89063	13.5124
 626	1	1	0.108796	-0.69539	5.2065	13.6194
 627	1	2	-0.726889	-0.905079	3.13521	14.4694
 628	1	3	-0.675747	-1.49177	5.327	14.7175
 629	1	1	-0.43042	5.81698	9.10743	3.72653
 630	1	4	0.62373	-1.61458	4.01588	15.197
 631	1	1	0.00157	4.13241	8.75684	5.94709