pySIMM System Object

2018 atoms
2227 bonds
3864 angles
5918 dihedrals
504 impropers

10 atom types
14 bond types
23 angle types
11 dihedral types
3 improper types

-183.760066 183.760066 xlo xhi
-183.760066 183.760066 ylo yhi
-183.760066 183.760066 zlo zhi

Masses

   1	12.01	# ca
   2	14.01	# nc
   3	14.01	# na
   4	12.01	# cd
   5	1.008	# ha
   6	12.01	# cp
   7	1.008	# h5
   8	1.008	# hn
   9	12.01	# c3
  10	1.008	# hc

Pair Coeffs

   1	0.086	3.3996695084235347	# ca
   2	0.17	3.249998523775958	# nc
   3	0.17	3.249998523775958	# na
   4	0.086	3.3996695084235347	# cd
   5	0.015	2.59964245953351	# ha
   6	0.086	3.3996695084235347	# cp
   7	0.015	2.421462715905442	# h5
   8	0.0157	1.069078461768407	# hn
   9	0.1094	3.3996695084235347	# c3
  10	0.0157	2.649532787749369	# hc

Bond Coeffs

   1	425.8	1.3802	# cd,na
   2	467.7	1.3517	# ca,nc
   3	345.8	1.086	# ca,ha
   4	351.8	1.0818	# cd,h5
   5	385.1	1.4555	# ca,cd
   6	351.4	1.4854	# cp,cp
   7	321.0	1.5156	# c3,ca
   8	525.4	1.3172	# cd,nc
   9	300.9	1.5375	# c3,c3
  10	330.6	1.0969	# c3,hc
  11	450.2	1.4058	# ca,cp
  12	420.5	1.384	# ca,na
  13	408.4	1.01	# hn,na
  14	461.1	1.3984	# ca,ca

Angle Coeffs

   1	66.72	118.38	# ca,cp,ca
   2	62.86	111.51	# c3,c3,c3
   3	66.26	120.69	# ca,ca,cp
   4	63.15	112.07	# c3,c3,ca
   5	67.4	113.15	# ca,na,cd
   6	46.34	109.8	# c3,c3,hc
   7	66.28	123.45	# ca,cd,na
   8	48.18	119.88	# ca,ca,ha
   9	67.6	123.24	# ca,cd,nc
  10	64.05	121.11	# ca,cp,cp
  11	46.75	125.5	# cd,na,hn
  12	66.62	120.02	# ca,ca,ca
  13	72.48	104.88	# ca,nc,cd
  14	74.9	112.22	# na,cd,nc
  15	46.63	125.54	# ca,na,hn
  16	65.02	120.79	# ca,ca,cd
  17	69.46	119.72	# ca,ca,nc
  18	47.98	119.86	# cp,ca,ha
  19	39.4	107.58	# hc,c3,hc
  20	63.53	120.77	# c3,ca,ca
  21	69.08	118.34	# ca,ca,na
  22	49.58	121.55	# h5,cd,na
  23	50.58	125.52	# h5,cd,nc

Dihedral Coeffs

   1	1	4.0	2	180	# X,ca,cd,X
   2	1	3.625	2	180	# X,ca,cp,X
   3	1	4.75	2	180	# X,cd,nc,X
   4	1	0.3	2	180	# X,ca,na,X
   5	1	3.625	2	180	# X,ca,ca,X
   6	1	1.7	2	180	# X,cd,na,X
   7	1	1.0	2	180	# X,cp,cp,X
   8	1	0.16	3	0	# hc,c3,c3,c3
   9	1	0.15555555555555556	3	0	# X,c3,c3,X
  10	1	0.0	2	0	# X,c3,ca,X
  11	1	4.8	2	180	# X,ca,nc,X

Improper Coeffs

   1	1.1	-1	2	# na,X,X,hn
   2	1.1	-1	2	# ca,ca,ca,c3
   3	1.1	-1	2	# ca,X,X,ha

Atoms

   1	1	1	0.438909	47.3954	-52.2581	-16.947
   2	1	1	0.108796	47.2383	-53.4823	-17.5337
   3	1	2	-0.726889	46.2321	-51.7881	-16.4454
   4	1	3	-0.675747	45.9237	-53.8136	-17.4396
   5	1	1	-0.43042	59.2786	-56.4542	-19.4884
   6	1	4	0.62373	45.3302	-52.7295	-16.776
   7	1	1	0.00157	56.5071	-55.9361	-19.4633
   8	1	5	0.178696	51.5458	-57.0079	-20.8356
   9	1	2	-0.592725	54.1389	-56.3923	-20.093
  10	1	6	-0.000174	49.5849	-53.6172	-18.1321
  11	1	5	0.1602	52.308	-53.2275	-17.6445
  12	1	4	0.461284	55.0569	-55.6692	-19.4302
  13	1	1	-0.167191	49.7296	-52.3169	-17.5492
  14	1	5	0.164364	48.1003	-55.186	-18.5254
  15	1	1	-0.325009	48.6441	-51.6381	-16.9447
  16	1	8	0.422373	45.4772	-54.6613	-17.7313
  17	1	1	-0.217421	48.2855	-54.2007	-18.1167
  18	1	5	0.173851	56.3613	-57.6757	-20.7442
  19	1	5	0.197073	60.3355	-56.6883	-19.5322
  20	1	6	0.024852	50.763	-54.3555	-18.721
  21	1	1	0.048807	53.1495	-54.7611	-18.8968
  22	1	1	0.060532	58.7998	-55.3517	-18.7435
  23	1	5	0.140008	49.5927	-55.7163	-19.9682
  24	1	5	0.202663	48.7522	-50.6542	-16.5021
  25	1	1	-0.222969	52.097	-54.0186	-18.353
  26	1	1	0.35235	52.9683	-55.812	-19.7512
  27	1	1	0.269742	58.4026	-57.2797	-20.2042
  28	1	1	-0.166682	50.5884	-55.44	-19.6398
  29	1	1	-0.277787	51.6826	-56.1768	-20.1518
  30	1	1	-0.312482	57.0286	-57.0227	-20.1896
  31	1	9	0.442075	59.74	-54.3962	-17.956
  32	1	5	0.128262	57.0215	-54.2523	-18.223
  33	1	3	-0.434358	54.4863	-54.6386	-18.6808
  34	1	8	0.354457	54.966	-53.9808	-18.0952
  35	1	1	-0.233188	57.4085	-55.1096	-18.7599
  36	1	5	0.143867	50.693	-51.818	-17.5742
  37	1	9	-0.2502	61.1685	-54.9697	-17.7694
  38	1	9	-0.249785	59.1832	-54.1103	-16.5369
  39	1	9	-0.32829	59.8624	-53.0567	-18.7166
  40	1	10	0.056572	58.9944	-55.0487	-16.0004
  41	1	10	0.044267	58.2473	-53.5414	-16.5691
  42	1	10	0.051935	59.8942	-53.5201	-15.9456
  43	1	10	0.069302	60.2818	-53.2193	-19.7175
  44	1	10	0.077707	60.5159	-52.3564	-18.1823
  45	1	10	0.059383	58.8817	-52.5807	-18.8379
  46	1	10	0.048889	61.1349	-55.9464	-17.2701
  47	1	10	0.055177	61.784	-54.3009	-17.1547
  48	1	10	0.04962	61.6815	-55.0871	-18.7317
  49	1	1	0.438909	34.9339	-45.79	-11.2953
  50	1	1	0.108796	35.5312	-46.6754	-10.4378
  51	1	2	-0.726889	33.7155	-45.4143	-10.8595
  52	1	3	-0.675747	34.6739	-46.8742	-9.39687
  53	1	1	-0.43042	42.9953	-53.576	-17.1242
  54	1	4	0.62373	33.5557	-46.082	-9.70427
  55	1	1	0.00157	41.9035	-51.5506	-15.5061
  56	1	5	0.178696	42.1357	-47.2895	-12.376
  57	1	2	-0.592725	41.9753	-49.556	-13.9841
  58	1	6	-0.000174	37.4325	-46.9243	-11.9055
  59	1	5	0.1602	37.6115	-49.2001	-13.3771
  60	1	4	0.461284	41.2974	-50.5144	-14.6401
  61	1	1	-0.167191	36.8179	-45.9824	-12.7797
  62	1	5	0.164364	37.1967	-48.0082	-10.0229
  63	1	1	-0.325009	35.5621	-45.4073	-12.4802
  64	1	8	0.422373	34.8047	-47.4532	-8.59015
  65	1	1	-0.217421	36.7694	-47.2754	-10.6989
  66	1	5	0.173851	43.9508	-50.889	-15.2573
  67	1	5	0.197073	43.4113	-54.3289	-17.7803
  68	1	6	0.024852	38.6822	-47.6149	-12.3351
  69	1	1	0.048807	39.7639	-49.3567	-13.6061
  70	1	1	0.060532	41.595	-53.5036	-16.9874
  71	1	5	0.140008	40.0568	-46.1751	-11.467
  72	1	5	0.202663	35.0699	-44.7101	-13.1491
  73	1	1	-0.222969	38.5824	-48.7851	-13.1268
  74	1	1	0.35235	41.0082	-48.8449	-13.3564
  75	1	1	0.269742	43.8653	-52.6398	-16.5213
  76	1	1	-0.166682	39.9757	-47.0845	-12.0575
  77	1	1	-0.277787	41.1488	-47.6991	-12.5638
  78	1	1	-0.312482	43.2963	-51.6226	-15.7255
  79	1	9	0.442075	40.6865	-54.4631	-17.8081
  80	1	5	0.128262	40.0045	-52.4139	-16.0239
  81	1	3	-0.434358	39.9202	-50.4326	-14.419
  82	1	8	0.354457	39.2103	-51.0303	-14.7983
  83	1	1	-0.233188	41.075	-52.4917	-16.1548
  84	1	5	0.143867	37.3164	-45.7281	-13.7125
  85	1	9	-0.2502	39.1796	-54.3383	-17.4657
  86	1	9	-0.249785	41.0869	-55.9412	-17.5726
  87	1	9	-0.32829	40.8459	-54.1392	-19.3126
  88	1	10	0.056572	40.4409	-56.6171	-18.147
  89	1	10	0.044267	40.9925	-56.2043	-16.5118
  90	1	10	0.051935	42.119	-56.1405	-17.8808
  91	1	10	0.069302	41.8847	-54.2623	-19.6408
  92	1	10	0.077707	40.5545	-53.1005	-19.5138
  93	1	10	0.059383	40.2185	-54.7936	-19.9301
  94	1	10	0.048889	38.7997	-53.3359	-17.6996
  95	1	10	0.055177	38.9995	-54.5427	-16.403
  96	1	10	0.04962	38.5852	-55.0543	-18.0474
  97	1	1	0.438909	21.8171	-39.3757	-7.94237
  98	1	1	0.108796	21.9198	-39.8123	-9.23584
  99	1	2	-0.726889	20.6792	-38.6918	-7.73199
 100	1	3	-0.675747	20.7816	-39.4286	-9.88552
 101	1	1	-0.43042	32.2471	-46.7036	-7.63574
 102	1	4	0.62373	20.0464	-38.7257	-8.91641
 103	1	1	0.00157	30.0957	-45.0696	-8.42957
 104	1	5	0.178696	27.7025	-41.7114	-11.7239
 105	1	2	-0.592725	28.9022	-43.5078	-9.97677
 106	1	6	-0.000174	24.0823	-40.8035	-8.79768
 107	1	5	0.1602	25.4268	-42.7299	-7.37799
 108	1	4	0.461284	28.9661	-44.2036	-8.82816
 109	1	1	-0.167191	23.9484	-40.3638	-7.44628
 110	1	5	0.164364	23.0895	-40.8395	-10.7482
 111	1	1	-0.325009	22.8178	-39.6405	-7.01108
 112	1	8	0.422373	20.5399	-39.5682	-10.8478
 113	1	1	-0.217421	23.0344	-40.512	-9.71577
 114	1	5	0.173851	31.2905	-44.6443	-10.1771
 115	1	5	0.197073	33.0884	-47.3097	-7.33253
 116	1	6	0.024852	25.3116	-41.549	-9.21265
 117	1	1	0.048807	27.0857	-43.1109	-8.71199
 118	1	1	0.060532	31.1086	-46.6293	-6.80204
 119	1	5	0.140008	25.5429	-40.5544	-11.1336
 120	1	5	0.202663	22.7112	-39.2864	-5.99183
 121	1	1	-0.222969	25.8928	-42.4954	-8.32897
 122	1	1	0.35235	27.7317	-42.8372	-9.88573
 123	1	1	0.269742	32.3362	-45.9926	-8.85454
 124	1	1	-0.166682	25.9639	-41.2922	-10.4559
 125	1	1	-0.277787	27.1815	-41.9301	-10.7978
 126	1	1	-0.312482	31.2406	-45.1945	-9.23875
 127	1	9	0.442075	31.0351	-47.4029	-5.45191
 128	1	5	0.128262	29.1888	-45.6725	-6.57794
 129	1	3	-0.434358	27.8426	-44.0042	-8.02335
 130	1	8	0.354457	27.6693	-44.3956	-7.11674
 131	1	1	-0.233188	30.0575	-45.7821	-7.21307
 132	1	5	0.143867	24.7496	-40.5621	-6.73887
 133	1	9	-0.2502	31.8245	-48.7384	-5.49936
 134	1	9	-0.249785	29.5782	-47.7669	-5.05949
 135	1	9	-0.32829	31.6365	-46.5282	-4.33032
 136	1	10	0.056572	29.5581	-48.4298	-4.18546
 137	1	10	0.044267	29.0702	-48.2836	-5.8838
 138	1	10	0.051935	28.9938	-46.8789	-4.79257
 139	1	10	0.069302	32.6887	-46.2976	-4.53822
 140	1	10	0.077707	31.5839	-47.0378	-3.36015
 141	1	10	0.059383	31.096	-45.5772	-4.24561
 142	1	10	0.048889	31.6734	-49.3187	-4.58037
 143	1	10	0.055177	32.9037	-48.5724	-5.58981
 144	1	10	0.04962	31.4945	-49.3555	-6.34456
 145	1	1	0.438909	11.3138	-30.6184	-2.20909
 146	1	1	0.108796	11.1992	-30.8962	-3.54364
 147	1	2	-0.726889	10.319	-29.8209	-1.76963
 148	1	3	-0.675747	10.0762	-30.2608	-3.99064
 149	1	1	-0.43042	18.0124	-38.253	-10.3549
 150	1	4	0.62373	9.56079	-29.6065	-2.85752
 151	1	1	0.00157	16.8589	-36.7214	-8.28434
 152	1	5	0.178696	17.5228	-34.2331	-3.74782
 153	1	2	-0.592725	17.0476	-35.5609	-6.10991
 154	1	6	-0.000174	13.2136	-32.2598	-3.52681
 155	1	5	0.1602	13.0678	-33.6931	-5.95429
 156	1	4	0.461284	16.3166	-35.8854	-7.18794
 157	1	1	-0.167191	13.2949	-31.9807	-2.12438
 158	1	5	0.164364	11.9953	-31.8591	-5.30738
 159	1	1	-0.325009	12.359	-31.1543	-1.46258
 160	1	8	0.422373	9.74748	-30.1845	-4.93372
 161	1	1	-0.217421	12.1149	-31.6966	-4.24349
 162	1	5	0.173851	18.6903	-37.1394	-7.22258
 163	1	5	0.197073	18.4572	-38.8658	-11.1267
 164	1	6	0.024852	14.2595	-33.1186	-4.20313
 165	1	1	0.048807	15.0235	-34.5914	-5.98823
 166	1	1	0.060532	16.74	-37.6699	-10.5637
 167	1	5	0.140008	15.8071	-32.766	-2.6995
 168	1	5	0.202663	12.429	-30.9378	-0.402354
 169	1	1	-0.222969	14.0128	-33.7866	-5.44068
 170	1	1	0.35235	16.2415	-34.7566	-5.39359
 171	1	1	0.269742	18.7203	-38.09	-9.14607
 172	1	1	-0.166682	15.5523	-33.2899	-3.61415
 173	1	1	-0.277787	16.5434	-34.1088	-4.19744
 174	1	1	-0.312482	18.1357	-37.296	-8.14603
 175	1	9	0.442075	16.0019	-37.849	-11.9244
 176	1	5	0.128262	15.1849	-36.491	-9.60729
 177	1	3	-0.434358	15.0328	-35.3236	-7.14335
 178	1	8	0.354457	14.2288	-35.6126	-7.67746
 179	1	1	-0.233188	16.164	-36.939	-9.49311
 180	1	5	0.143867	14.088	-32.4215	-1.52919
 181	1	9	-0.2502	15.0788	-36.6455	-12.2487
 182	1	9	-0.249785	15.1401	-39.1286	-11.8871
 183	1	9	-0.32829	16.989	-37.9801	-13.116
 184	1	10	0.056572	14.6937	-39.3366	-12.8674
 185	1	10	0.044267	14.3288	-39.0193	-11.1632
 186	1	10	0.051935	15.7439	-39.9979	-11.5958
 187	1	10	0.069302	17.709	-37.1522	-13.119
 188	1	10	0.077707	16.4558	-37.9644	-14.0747
 189	1	10	0.059383	17.5436	-38.925	-13.0841
 190	1	10	0.048889	14.6719	-36.7196	-13.2649
 191	1	10	0.055177	15.6351	-35.7022	-12.1773
 192	1	10	0.04962	14.2226	-36.5945	-11.5663
 193	1	1	0.438909	4.9913	-18.7818	3.42431
 194	1	1	0.108796	6.02934	-19.5096	3.9239
 195	1	2	-0.726889	5.14802	-17.4551	3.69124
 196	1	3	-0.675747	6.85886	-18.6638	4.56741
 197	1	1	-0.43042	7.51256	-28.6715	-4.00895
 198	1	4	0.62373	6.32069	-17.3889	4.35907
 199	1	1	0.00157	6.77108	-27.2465	-1.69245
 200	1	5	0.178696	8.04532	-25.415	2.99756
 201	1	2	-0.592725	7.17636	-26.437	0.61035
 202	1	6	-0.000174	5.34599	-21.5482	2.80021
 203	1	5	0.1602	4.42306	-22.9883	0.548686
 204	1	4	0.461284	6.45171	-26.4077	-0.514918
 205	1	1	-0.167191	4.20384	-20.8118	2.34214
 206	1	5	0.164364	7.18448	-21.2936	3.97918
 207	1	1	-0.325009	4.02415	-19.4302	2.64443
 208	1	8	0.422373	7.73837	-18.888	4.9855
 209	1	1	-0.217421	6.26292	-20.8484	3.63148
 210	1	5	0.173851	8.54427	-28.1219	-0.813713
 211	1	5	0.197073	7.81106	-29.2218	-4.89
 212	1	6	0.024852	5.68534	-22.9525	2.34252
 213	1	1	0.048807	5.67906	-24.7474	0.689813
 214	1	1	0.060532	6.33836	-27.8825	-4.03824
 215	1	5	0.140008	7.11751	-23.3355	3.95493
 216	1	5	0.202663	3.19431	-18.8582	2.24396
 217	1	1	-0.222969	5.15654	-23.5209	1.14263
 218	1	1	0.35235	6.70191	-25.3971	1.32442
 219	1	1	0.269742	8.31876	-28.7791	-2.85319
 220	1	1	-0.166682	6.6925	-23.7029	3.02866
 221	1	1	-0.277787	7.22238	-24.902	2.51416
 222	1	1	-0.312482	7.91511	-28.073	-1.70147
 223	1	9	0.442075	5.4465	-27.7835	-5.31081
 224	1	5	0.128262	5.08816	-26.5819	-2.84601
 225	1	3	-0.434358	5.45575	-25.4207	-0.480219
 226	1	8	0.354457	4.82502	-25.1725	-1.2199
 227	1	1	-0.233188	5.98538	-27.1883	-2.85983
 228	1	5	0.143867	3.47268	-21.3051	1.70827
 229	1	9	-0.2502	4.87728	-26.3534	-5.49993
 230	1	9	-0.249785	4.26689	-28.776	-5.18906
 231	1	9	-0.32829	6.22529	-28.1266	-6.60826
 232	1	10	0.056572	3.62394	-28.7307	-6.07735
 233	1	10	0.044267	3.65041	-28.5412	-4.31226
 234	1	10	0.051935	4.63475	-29.8034	-5.07982
 235	1	10	0.069302	7.135	-27.5173	-6.68567
 236	1	10	0.077707	5.61612	-27.9293	-7.49929
 237	1	10	0.059383	6.50853	-29.1848	-6.64498
 238	1	10	0.048889	4.37219	-26.2515	-6.46856
 239	1	10	0.055177	5.68164	-25.6079	-5.46009
 240	1	10	0.04962	4.1365	-26.1027	-4.73207
 241	1	1	0.438909	9.42157	-4.70388	6.49869
 242	1	1	0.108796	8.57437	-5.55999	7.14624
 243	1	2	-0.726889	10.2527	-4.08131	7.36939
 244	1	3	-0.675747	8.87404	-5.51165	8.46786
 245	1	1	-0.43042	8.35903	-16.3713	5.37416
 246	1	4	0.62373	9.94861	-4.62157	8.56626
 247	1	1	0.00157	7.61488	-13.7523	4.68317
 248	1	5	0.178696	4.48645	-9.56611	3.53846
 249	1	2	-0.592725	6.1614	-11.7879	3.95185
 250	1	6	-0.000174	7.83599	-6.5546	5.07333
 251	1	5	0.1602	9.23628	-8.78579	4.88561
 252	1	4	0.461284	7.32622	-12.3296	4.36022
 253	1	1	-0.167191	8.67492	-5.62381	4.39004
 254	1	5	0.164364	7.25089	-7.26423	7.04496
 255	1	1	-0.325009	9.46156	-4.67834	5.1005
 256	1	8	0.422373	8.49067	-6.07748	9.20263
 257	1	1	-0.217421	7.78142	-6.49823	6.48782
 258	1	5	0.173851	5.76708	-14.6453	3.96685
 259	1	5	0.197073	8.66476	-17.3731	5.63981
 260	1	6	0.024852	7.34896	-7.81407	4.43576
 261	1	1	0.048807	7.71492	-10.187	4.26884
 262	1	1	0.060532	9.25762	-15.3296	5.64828
 263	1	5	0.140008	5.29968	-7.22162	4.02441
 264	1	5	0.202663	10.164	-4.02253	4.59649
 265	1	1	-0.222969	8.22525	-8.91637	4.51331
 266	1	1	0.35235	6.41485	-10.4478	3.94289
 267	1	1	0.269742	7.10622	-16.1701	4.73878
 268	1	1	-0.166682	5.99852	-8.05406	4.03999
 269	1	1	-0.277787	5.5287	-9.37201	3.76968
 270	1	1	-0.312482	6.72855	-14.8346	4.44188
 271	1	9	0.442075	10.622	-15.6301	6.33178
 272	1	5	0.128262	9.55128	-13.2238	5.46963
 273	1	3	-0.434358	8.3224	-11.3645	4.50779
 274	1	8	0.354457	9.27756	-11.5105	4.77166
 275	1	1	-0.233188	8.86816	-14.0366	5.27345
 276	1	5	0.143867	8.78079	-5.70677	3.31051
 277	1	9	-0.2502	11.5049	-14.3749	6.54851
 278	1	9	-0.249785	11.4395	-16.626	5.4759
 279	1	9	-0.32829	10.3735	-16.2478	7.72939
 280	1	10	0.056572	12.4126	-16.8364	5.93737
 281	1	10	0.044267	11.6237	-16.213	4.47581
 282	1	10	0.051935	10.9186	-17.5822	5.35347
 283	1	10	0.069302	9.83703	-15.5463	8.37808
 284	1	10	0.077707	11.3235	-16.494	8.22059
 285	1	10	0.059383	9.79087	-17.1732	7.66372
 286	1	10	0.048889	11.7602	-13.9002	5.59246
 287	1	10	0.055177	12.4471	-14.638	7.0457
 288	1	10	0.04962	10.9973	-13.6372	7.17842
 289	1	1	0.438909	20.2337	2.43952	14.3628
 290	1	1	0.108796	19.1977	3.20302	13.8981
 291	1	2	-0.726889	21.3203	3.19301	14.63
 292	1	3	-0.675747	19.584	4.50718	13.9576
 293	1	1	-0.43042	10.1424	-4.90062	11.0517
 294	1	4	0.62373	20.9234	4.45286	14.3654
 295	1	1	0.00157	12.3741	-3.19485	11.1799
 296	1	5	0.178696	15.4901	0.613028	9.31869
 297	1	2	-0.592725	13.9578	-1.46898	10.3112
 298	1	6	-0.000174	17.924	1.23828	13.3012
 299	1	5	0.1602	16.2007	-0.815555	14.0743
 300	1	4	0.461284	13.5135	-2.26182	11.2996
 301	1	1	-0.167191	18.9468	0.451009	13.9105
 302	1	5	0.164364	17.2986	3.28436	12.8596
 303	1	1	-0.325009	20.1293	1.04633	14.4135
 304	1	8	0.422373	19.1129	5.3003	13.5612
 305	1	1	-0.217421	18.0514	2.65269	13.3198
 306	1	5	0.173851	12.0993	-2.95877	9.04528
 307	1	5	0.197073	9.26694	-5.53112	10.9962
 308	1	6	0.024852	16.8263	0.587954	12.5209
 309	1	1	0.048807	15.1118	-1.08502	12.2136
 310	1	1	0.060532	10.7187	-4.63079	12.31
 311	1	5	0.140008	17.1635	1.81094	10.758
 312	1	5	0.202663	20.9525	0.462498	14.8117
 313	1	1	-0.222969	16.062	-0.484201	13.0505
 314	1	1	0.35235	14.9195	-0.728334	10.9053
 315	1	1	0.269742	10.6305	-4.32205	9.85807
 316	1	1	-0.166682	16.5805	0.995377	11.177
 317	1	1	-0.277787	15.648	0.326152	10.3521
 318	1	1	-0.312482	11.7321	-3.44431	9.94737
 319	1	9	0.442075	10.1118	-5.15166	13.6435
 320	1	5	0.128262	12.342	-3.63045	13.2913
 321	1	3	-0.434358	14.2185	-2.07061	12.4932
 322	1	8	0.354457	14.0615	-2.53779	13.3667
 323	1	1	-0.233188	11.8708	-3.82395	12.336
 324	1	5	0.143867	18.8483	-0.632482	13.9042
 325	1	9	-0.2502	8.7226	-5.81746	13.4608
 326	1	9	-0.249785	9.91574	-3.97965	14.6396
 327	1	9	-0.32829	11.0541	-6.19738	14.2821
 328	1	10	0.056572	10.8683	-3.52321	14.9298
 329	1	10	0.044267	9.42639	-4.3199	15.5606
 330	1	10	0.051935	9.28915	-3.19671	14.1923
 331	1	10	0.069302	12.032	-5.76045	14.5163
 332	1	10	0.077707	11.2166	-7.03888	13.5974
 333	1	10	0.059383	10.63	-6.59251	15.2139
 334	1	10	0.048889	8.29295	-6.10405	14.4288
 335	1	10	0.055177	8.79367	-6.7273	12.8527
 336	1	10	0.04962	8.0186	-5.12712	12.978
 337	1	1	0.438909	17.202	14.3744	19.1596
 338	1	1	0.108796	18.5061	14.7539	18.9962
 339	1	2	-0.726889	16.8122	14.4916	20.4456
 340	1	3	-0.675747	18.9703	15.1804	20.1979
 341	1	1	-0.43042	23.2177	5.50272	14.4382
 342	1	4	0.62373	17.9159	14.9254	21.0815
 343	1	1	0.00157	22.1147	8.07868	14.1989
 344	1	5	0.178696	22.6748	13.2778	14.4984
 345	1	2	-0.592725	22.2717	10.5692	14.1255
 346	1	6	-0.000174	18.6011	13.7634	16.7975
 347	1	5	0.1602	18.269	11.265	15.745
 348	1	4	0.461284	21.5463	9.44213	14.2198
 349	1	1	-0.167191	17.208	13.4732	16.9265
 350	1	5	0.164364	20.3173	14.6252	17.8446
 351	1	1	-0.325009	16.4988	13.7753	18.1136
 352	1	8	0.422373	19.9134	15.4117	20.4429
 353	1	1	-0.217421	19.2467	14.4568	17.8548
 354	1	5	0.173851	20.2083	7.06874	14.2617
 355	1	5	0.197073	23.6203	4.49667	14.5106
 356	1	6	0.024852	19.4492	13.1039	15.756
 357	1	1	0.048807	20.1564	11.0337	14.7287
 358	1	1	0.060532	24.0913	6.60587	14.3048
 359	1	5	0.140008	20.9364	14.6893	15.6328
 360	1	5	0.202663	15.4699	13.4684	18.2657
 361	1	1	-0.222969	19.1669	11.7608	15.3932
 362	1	1	0.35235	21.3965	11.5431	14.4545
 363	1	1	0.269742	21.8172	5.64252	14.3774
 364	1	1	-0.166682	20.6979	13.6668	15.353
 365	1	1	-0.277787	21.6839	12.8875	14.7051
 366	1	1	-0.312482	21.2829	6.94272	14.2711
 367	1	9	0.442075	25.6304	6.39204	14.2348
 368	1	5	0.128262	24.1366	8.76512	14.0735
 369	1	3	-0.434358	20.2046	9.69255	14.5123
 370	1	8	0.354457	19.508	9.01458	14.7534
 371	1	1	-0.233188	23.5084	7.88522	14.1675
 372	1	5	0.143867	16.7006	12.931	16.1328
 373	1	9	-0.2502	26.1083	5.36276	15.2922
 374	1	9	-0.249785	26.4439	7.69052	14.4768
 375	1	9	-0.32829	25.9919	5.85858	12.8306
 376	1	10	0.056572	26.1786	8.14393	15.4402
 377	1	10	0.044267	26.2695	8.42887	13.6847
 378	1	10	0.051935	27.5215	7.48425	14.488
 379	1	10	0.069302	25.4835	4.90748	12.6303
 380	1	10	0.077707	27.072	5.6957	12.7331
 381	1	10	0.059383	25.6824	6.57211	12.0562
 382	1	10	0.048889	25.7753	5.65555	16.2957
 383	1	10	0.055177	27.2032	5.29231	15.3066
 384	1	10	0.04962	25.7273	4.35641	15.0852
 385	1	1	0.438909	10.6257	13.0345	32.3503
 386	1	1	0.108796	10.0863	13.0799	31.0956
 387	1	2	-0.726889	9.67143	13.1659	33.3004
 388	1	3	-0.675747	8.74953	13.2541	31.2168
 389	1	1	-0.43042	19.255	15.5167	23.1337
 390	1	4	0.62373	8.53276	13.3232	32.5955
 391	1	1	0.00157	17.199	14.5991	24.8169
 392	1	5	0.178696	12.7512	11.9533	25.4562
 393	1	2	-0.592725	15.0978	13.3589	25.2131
 394	1	6	-0.000174	12.2475	12.8943	30.0419
 395	1	5	0.1602	14.7669	14.0028	29.569
 396	1	4	0.461284	16.1415	14.0536	25.6865
 397	1	1	-0.167191	12.8199	12.8582	31.3507
 398	1	5	0.164364	10.3543	13.1018	28.963
 399	1	1	-0.325009	12.0101	12.9211	32.5143
 400	1	8	0.422373	8.07263	13.3885	30.4882
 401	1	1	-0.217421	10.839	13.0174	29.9289
 402	1	5	0.173851	16.1461	14.1453	22.9834
 403	1	5	0.197073	20.0395	15.854	22.472
 404	1	6	0.024852	13.0671	12.8649	28.7896
 405	1	1	0.048807	14.9516	13.5733	27.4503
 406	1	1	0.060532	19.4438	15.5735	24.533
 407	1	5	0.140008	11.5807	11.7396	27.6602
 408	1	5	0.202663	12.4327	12.9022	33.5126
 409	1	1	-0.222969	14.3303	13.5134	28.7052
 410	1	1	0.35235	14.3841	13.0624	26.3136
 411	1	1	0.269742	18.0635	15.0227	22.557
 412	1	1	-0.166682	12.529	12.2669	27.61
 413	1	1	-0.277787	13.1776	12.3685	26.3632
 414	1	1	-0.312482	17.0545	14.5602	23.4174
 415	1	9	0.442075	20.7809	16.0324	25.1786
 416	1	5	0.128262	18.5154	15.1514	26.4319
 417	1	3	-0.434358	16.1105	14.1899	27.0786
 418	1	8	0.354457	16.7504	14.7106	27.6492
 419	1	1	-0.233188	18.3851	15.1352	25.3557
 420	1	5	0.143867	13.8983	12.773	31.4568
 421	1	9	-0.2502	21.8509	16.452	24.1364
 422	1	9	-0.249785	21.3793	14.8699	26.0075
 423	1	9	-0.32829	20.5451	17.2457	26.1079
 424	1	10	0.056572	22.3781	15.1232	26.3841
 425	1	10	0.044267	21.4693	13.9651	25.3924
 426	1	10	0.051935	20.7505	14.6264	26.8719
 427	1	10	0.069302	20.121	18.0859	25.5441
 428	1	10	0.077707	21.4863	17.581	26.561
 429	1	10	0.059383	19.8527	17.0019	26.9217
 430	1	10	0.048889	22.7761	16.7756	24.6294
 431	1	10	0.055177	21.4967	17.2888	23.5214
 432	1	10	0.04962	22.1075	15.6145	23.4753
 433	1	1	0.438909	-3.64642	18.0629	29.2649
 434	1	1	0.108796	-3.39688	16.8953	28.5935
 435	1	2	-0.726889	-4.93587	18.4294	29.1719
 436	1	3	-0.675747	-4.5773	16.4858	28.0373
 437	1	1	-0.43042	6.97381	13.6811	34.5639
 438	1	4	0.62373	-5.5053	17.465	28.428
 439	1	1	0.00157	4.85084	14.2498	32.8062
 440	1	5	0.178696	2.93943	14.8475	27.9312
 441	1	2	-0.592725	3.88395	14.522	30.5255
 442	1	6	-0.000174	-1.10488	16.8826	29.3604
 443	1	5	0.1602	0.0663957	16.3561	31.7489
 444	1	4	0.461284	3.77443	14.6128	31.8637
 445	1	1	-0.167191	-1.37148	18.1135	30.0276
 446	1	5	0.164364	-1.98356	15.3179	28.109
 447	1	1	-0.325009	-2.64483	18.7175	29.9785
 448	1	8	0.422373	-4.75519	15.6659	27.4862
 449	1	1	-0.217421	-2.14272	16.2696	28.6046
 450	1	5	0.173851	6.24417	13.8263	31.2414
 451	1	5	0.197073	7.81255	13.4666	35.2216
 452	1	6	0.024852	0.210698	16.2135	29.5768
 453	1	1	0.048807	1.90791	15.4224	31.0999
 454	1	1	0.060532	5.71223	14.0143	35.1074
 455	1	5	0.140008	0.687906	15.8992	27.4791
 456	1	5	0.202663	-2.8684	19.6418	30.4993
 457	1	1	-0.222969	0.669937	16.0348	30.9064
 458	1	1	0.35235	2.71328	15.0199	30.0703
 459	1	1	0.269742	7.19504	13.6109	33.1737
 460	1	1	-0.166682	1.02916	15.7583	28.5017
 461	1	1	-0.277787	2.2954	15.1698	28.7425
 462	1	1	-0.312482	6.108	13.8659	32.3161
 463	1	9	0.442075	5.51078	14.0356	36.6495
 464	1	5	0.128262	3.68953	14.5876	34.5776
 465	1	3	-0.434358	2.54969	15.1446	32.2658
 466	1	8	0.354457	2.25789	15.3554	33.2023
 467	1	1	-0.233188	4.66693	14.3136	34.2023
 468	1	5	0.143867	-0.578326	18.5871	30.6019
 469	1	9	-0.2502	4.09233	14.4908	37.0827
 470	1	9	-0.249785	6.52147	15.0022	37.3137
 471	1	9	-0.32829	5.73032	12.6142	37.2183
 472	1	10	0.056572	7.55681	14.6903	37.1343
 473	1	10	0.044267	6.37378	15.0417	38.4004
 474	1	10	0.051935	6.40206	16.0184	36.918
 475	1	10	0.069302	6.75477	12.2673	37.0377
 476	1	10	0.077707	5.04586	11.9004	36.7434
 477	1	10	0.059383	5.55324	12.5874	38.3007
 478	1	10	0.048889	3.32173	13.8125	36.6957
 479	1	10	0.055177	3.87845	15.5062	36.7264
 480	1	10	0.04962	4.00055	14.4993	38.1763
 481	1	1	0.438909	-12.5901	14.1568	17.8273
 482	1	1	0.108796	-13.2923	14.6399	18.8974
 483	1	2	-0.726889	-13.2466	14.3502	16.661
 484	1	3	-0.675747	-14.4587	15.1529	18.4141
 485	1	1	-0.43042	-7.7759	18.533	28.5218
 486	1	4	0.62373	-14.3922	14.9544	17.0256
 487	1	1	0.00157	-8.85145	16.6342	26.7595
 488	1	5	0.178696	-8.28929	12.519	23.5649
 489	1	2	-0.592725	-8.72612	14.6115	25.3131
 490	1	6	-0.000174	-11.5447	14.0039	20.4617
 491	1	5	0.1602	-12.0143	15.7244	22.6178
 492	1	4	0.461284	-9.3776	15.707	25.7355
 493	1	1	-0.167191	-10.8294	13.4906	19.3327
 494	1	5	0.164364	-13.4159	14.9997	21.0244
 495	1	1	-0.325009	-11.3436	13.5624	18.0165
 496	1	8	0.422373	-15.184	15.6214	18.9221
 497	1	1	-0.217421	-12.819	14.5948	20.2163
 498	1	5	0.173851	-6.91438	15.6957	26.849
 499	1	5	0.197073	-7.32307	19.2745	29.1723
 500	1	6	0.024852	-10.9201	13.9923	21.8373
 501	1	1	0.048807	-10.5118	15.0246	24.0011
 502	1	1	0.060532	-9.13495	18.6454	28.164
 503	1	5	0.140008	-9.61983	12.2784	21.4662
 504	1	5	0.202663	-10.7913	13.1863	17.1628
 505	1	1	-0.222969	-11.2579	14.9745	22.8144
 506	1	1	0.35235	-9.44324	14.2053	24.2432
 507	1	1	0.269742	-6.94864	17.4884	28.0603
 508	1	1	-0.166682	-9.88139	13.0655	22.1664
 509	1	1	-0.277787	-9.12931	13.1736	23.3584
 510	1	1	-0.312482	-7.52476	16.5111	27.2234
 511	1	9	0.442075	-10.0225	19.7963	28.7227
 512	1	5	0.128262	-10.6566	17.8003	26.8871
 513	1	3	-0.434358	-10.5419	15.9525	25.0009
 514	1	8	0.354457	-11.1304	16.7616	25.0729
 515	1	1	-0.233188	-9.63508	17.7081	27.2338
 516	1	5	0.143867	-9.84036	13.0643	19.4703
 517	1	9	-0.2502	-11.5021	19.3593	28.8866
 518	1	9	-0.249785	-9.96814	21.0029	27.7598
 519	1	9	-0.32829	-9.5501	20.2724	30.1225
 520	1	10	0.056572	-10.3768	20.7383	26.7771
 521	1	10	0.044267	-8.93304	21.3373	27.6147
 522	1	10	0.051935	-10.5461	21.8485	28.1536
 523	1	10	0.069302	-10.2622	20.9803	30.5642
 524	1	10	0.077707	-8.58474	20.7891	30.0696
 525	1	10	0.059383	-9.4499	19.4223	30.8094
 526	1	10	0.048889	-12.0868	20.1311	29.4031
 527	1	10	0.055177	-11.57	18.4362	29.476
 528	1	10	0.04962	-11.9875	19.1895	27.9192
 529	1	1	0.438909	-10.5288	14.6917	3.4965
 530	1	1	0.108796	-10.4775	14.017	4.65566
 531	1	2	-0.726889	-9.45243	14.4505	2.70976
 532	1	3	-0.675747	-9.36992	13.2371	4.63323
 533	1	1	-0.43042	-16.6581	15.9545	16.5656
 534	1	4	0.62373	-8.77557	13.5101	3.3991
 535	1	1	0.00157	-16.2978	15.7345	13.7845
 536	1	5	0.178696	-17.6266	16.9802	8.82493
 537	1	2	-0.592725	-16.969	16.2303	11.4261
 538	1	6	-0.000174	-12.6687	14.9585	5.69128
 539	1	5	0.1602	-13.4818	14.5421	9.71417
 540	1	4	0.461284	-16.1189	15.6856	12.3179
 541	1	1	-0.167191	-12.6767	15.4857	4.27226
 542	1	5	0.164364	-11.0215	13.6195	6.54579
 543	1	1	-0.325009	-11.6687	15.432	3.26761
 544	1	8	0.422373	-9.04995	12.5904	5.33023
 545	1	1	-0.217421	-11.4007	14.15	5.68336
 546	1	5	0.173851	-14.3964	14.8127	14.3018
 547	1	5	0.197073	-16.7842	16.0531	17.6337
 548	1	6	0.024852	-14.4976	15.4371	7.86777
 549	1	1	0.048807	-15.2016	15.3518	10.3758
 550	1	1	0.060532	-17.6924	16.3904	15.7082
 551	1	5	0.140008	-16.2581	16.573	6.98534
 552	1	5	0.202663	-11.7898	15.9237	2.30853
 553	1	1	-0.222969	-14.347	15.0625	9.31987
 554	1	1	0.35235	-16.3558	16.0218	10.2411
 555	1	1	0.269742	-15.462	15.3834	16.0775
 556	1	1	-0.166682	-15.8291	16.1501	7.8861
 557	1	1	-0.277787	-16.7043	16.4279	8.96986
 558	1	1	-0.312482	-15.3151	15.2504	14.6796
 559	1	9	0.442075	-19.0058	17.0034	16.2696
 560	1	5	0.128262	-18.2076	16.6846	13.6269
 561	1	3	-0.434358	-15.0141	15.1028	11.7009
 562	1	8	0.354457	-14.2393	14.6452	12.1467
 563	1	1	-0.233188	-17.4653	16.3053	14.321
 564	1	5	0.143867	-13.5142	16.0537	3.88538
 565	1	9	-0.2502	-18.7931	18.5159	16.4959
 566	1	9	-0.249785	-19.4114	16.35	17.6182
 567	1	9	-0.32829	-20.2124	16.8117	15.3138
 568	1	10	0.056572	-20.404	16.6898	17.9389
 569	1	10	0.044267	-18.7156	16.607	18.4246
 570	1	10	0.051935	-19.4452	15.2571	17.5235
 571	1	10	0.069302	-21.1459	17.1461	15.7826
 572	1	10	0.077707	-20.3293	15.7543	15.0447
 573	1	10	0.059383	-20.0976	17.3924	14.3911
 574	1	10	0.048889	-17.9738	18.6932	17.2035
 575	1	10	0.055177	-19.6991	18.9885	16.8946
 576	1	10	0.04962	-18.5347	19.0145	15.553
 577	1	1	0.438909	2.95867	15.7699	-1.21566
 578	1	1	0.108796	2.47506	15.3588	-2.4271
 579	1	2	-0.726889	4.30789	15.7731	-1.19328
 580	1	3	-0.675747	3.54516	15.1438	-3.2436
 581	1	1	-0.43042	-7.33037	11.4727	3.47418
 582	1	4	0.62373	4.66296	15.3561	-2.42187
 583	1	1	0.00157	-5.81873	12.3334	1.27468
 584	1	5	0.178696	-2.28004	11.2937	-2.33622
 585	1	2	-0.592725	-4.21492	11.9661	-0.567741
 586	1	6	-0.000174	0.223906	15.1565	-1.54436
 587	1	5	0.1602	-2.2276	15.8724	-0.312056
 588	1	4	0.461284	-4.88553	12.8023	0.233345
 589	1	1	-0.167191	0.721482	15.6903	-0.317238
 590	1	5	0.164364	0.814608	14.5996	-3.57992
 591	1	1	-0.325009	2.09357	15.9931	-0.143466
 592	1	8	0.422373	3.54755	14.7429	-4.1626
 593	1	1	-0.217421	1.13259	15.0254	-2.63446
 594	1	5	0.173851	-6.99883	14.1505	1.39688
 595	1	5	0.197073	-7.93625	11.1234	4.29991
 596	1	6	0.024852	-1.11375	14.4724	-1.57596
 597	1	1	0.048807	-3.33098	14.035	-0.67637
 598	1	1	0.060532	-6.37661	10.5901	2.9281
 599	1	5	0.140008	-0.323779	12.8369	-2.75101
 600	1	5	0.202663	2.49826	16.3051	0.813005
 601	1	1	-0.222969	-2.24191	14.9151	-0.821756
 602	1	1	0.35235	-3.28991	12.7498	-1.14498
 603	1	1	0.269742	-7.61501	12.7304	2.89595
 604	1	1	-0.166682	-1.18157	13.192	-2.19405
 605	1	1	-0.277787	-2.26003	12.3134	-1.96725
 606	1	1	-0.312482	-6.81073	13.1704	1.82651
 607	1	9	0.442075	-6.15273	9.19428	3.57957
 608	1	5	0.128262	-4.91549	10.3879	1.34131
 609	1	3	-0.434358	-4.44205	14.1266	0.121216
 610	1	8	0.354457	-4.71487	14.8921	0.710227
 611	1	1	-0.233188	-5.671	11.0274	1.78808
 612	1	5	0.143867	0.0571773	15.7585	0.540261
 613	1	9	-0.2502	-7.41884	8.3228	3.39549
 614	1	9	-0.249785	-5.87574	9.35487	5.09692
 615	1	9	-0.32829	-4.9545	8.41166	2.98647
 616	1	10	0.056572	-6.73055	9.79032	5.62612
 617	1	10	0.044267	-5.0076	10.005	5.26391
 618	1	10	0.051935	-5.66554	8.38497	5.56507
 619	1	10	0.069302	-4.81277	7.45695	3.50889
 620	1	10	0.077707	-4.02404	8.98501	3.08347
 621	1	10	0.059383	-5.11348	8.18346	1.92525
 622	1	10	0.048889	-7.63123	8.17266	2.32945
 623	1	10	0.055177	-8.29704	8.79268	3.85298
 624	1	10	0.04962	-7.28712	7.33608	3.85778
 625	1	1	0.438909	16.2425	11.2204	3.2701
 626	1	1	0.108796	16.0961	12.5684	3.458
 627	1	2	-0.726889	17.1366	10.6919	4.13068
 628	1	3	-0.675747	16.9737	12.9466	4.4312
 629	1	1	-0.43042	6.35467	14.7441	-4.19139
 630	1	4	0.62373	17.5542	11.7439	4.85897
 631	1	1	0.00157	8.4056	14.5654	-2.26781
 632	1	5	0.178696	10.2398	15.0896	2.62037
 633	1	2	-0.592725	9.34679	14.7908	0.0265037
 634	1	6	-0.000174	14.2031	12.6415	1.9508
 635	1	5	0.1602	13.1551	12.6374	-0.640953
 636	1	4	0.461284	9.46762	14.3977	-1.2511
 637	1	1	-0.167191	14.4209	11.2555	1.69339
 638	1	5	0.164364	14.9374	14.3611	3.08201
 639	1	1	-0.325009	15.4367	10.5324	2.36177
 640	1	8	0.422373	17.0519	13.8431	4.87371
 641	1	1	-0.217421	15.0817	13.3124	2.84592