pySIMM System Object

866 atoms
955 bonds
1656 angles
2534 dihedrals
216 impropers

10 atom types
14 bond types
23 angle types
11 dihedral types
3 improper types

-137.027003 137.027003 xlo xhi
-137.027003 137.027003 ylo yhi
-137.027003 137.027003 zlo zhi

Masses

   1	12.01	# ca
   2	14.01	# nc
   3	14.01	# na
   4	12.01	# cd
   5	1.008	# ha
   6	12.01	# cp
   7	1.008	# h5
   8	1.008	# hn
   9	12.01	# c3
  10	1.008	# hc

Pair Coeffs

   1	0.086	3.3996695084235347	# ca
   2	0.17	3.249998523775958	# nc
   3	0.17	3.249998523775958	# na
   4	0.086	3.3996695084235347	# cd
   5	0.015	2.59964245953351	# ha
   6	0.086	3.3996695084235347	# cp
   7	0.015	2.421462715905442	# h5
   8	0.0157	1.069078461768407	# hn
   9	0.1094	3.3996695084235347	# c3
  10	0.0157	2.649532787749369	# hc

Bond Coeffs

   1	425.8	1.3802	# cd,na
   2	467.7	1.3517	# ca,nc
   3	345.8	1.086	# ca,ha
   4	351.8	1.0818	# cd,h5
   5	385.1	1.4555	# ca,cd
   6	351.4	1.4854	# cp,cp
   7	321.0	1.5156	# c3,ca
   8	525.4	1.3172	# cd,nc
   9	300.9	1.5375	# c3,c3
  10	330.6	1.0969	# c3,hc
  11	450.2	1.4058	# ca,cp
  12	420.5	1.384	# ca,na
  13	408.4	1.01	# hn,na
  14	461.1	1.3984	# ca,ca

Angle Coeffs

   1	66.72	118.38	# ca,cp,ca
   2	62.86	111.51	# c3,c3,c3
   3	66.26	120.69	# ca,ca,cp
   4	63.15	112.07	# c3,c3,ca
   5	67.4	113.15	# ca,na,cd
   6	46.34	109.8	# c3,c3,hc
   7	66.28	123.45	# ca,cd,na
   8	48.18	119.88	# ca,ca,ha
   9	67.6	123.24	# ca,cd,nc
  10	64.05	121.11	# ca,cp,cp
  11	46.75	125.5	# cd,na,hn
  12	66.62	120.02	# ca,ca,ca
  13	72.48	104.88	# ca,nc,cd
  14	74.9	112.22	# na,cd,nc
  15	46.63	125.54	# ca,na,hn
  16	65.02	120.79	# ca,ca,cd
  17	69.46	119.72	# ca,ca,nc
  18	47.98	119.86	# cp,ca,ha
  19	39.4	107.58	# hc,c3,hc
  20	63.53	120.77	# c3,ca,ca
  21	69.08	118.34	# ca,ca,na
  22	49.58	121.55	# h5,cd,na
  23	50.58	125.52	# h5,cd,nc

Dihedral Coeffs

   1	1	4.0	2	180	# X,ca,cd,X
   2	1	3.625	2	180	# X,ca,cp,X
   3	1	4.75	2	180	# X,cd,nc,X
   4	1	0.3	2	180	# X,ca,na,X
   5	1	3.625	2	180	# X,ca,ca,X
   6	1	1.7	2	180	# X,cd,na,X
   7	1	1.0	2	180	# X,cp,cp,X
   8	1	0.16	3	0	# hc,c3,c3,c3
   9	1	0.15555555555555556	3	0	# X,c3,c3,X
  10	1	0.0	2	0	# X,c3,ca,X
  11	1	4.8	2	180	# X,ca,nc,X

Improper Coeffs

   1	1.1	-1	2	# na,X,X,hn
   2	1.1	-1	2	# ca,ca,ca,c3
   3	1.1	-1	2	# ca,X,X,ha

Atoms

   1	1	1	0.438909	8.49393	39.8899	22.8181
   2	1	1	0.108796	9.79811	40.0659	23.1798
   3	1	2	-0.726889	8.32513	40.0867	21.485
   4	1	3	-0.675747	10.5026	40.3815	22.0748
   5	1	1	-0.43042	10.1509	41.1369	35.5893
   6	1	4	0.62373	9.56268	40.3916	21.0409
   7	1	1	0.00157	10.2117	40.6262	32.8209
   8	1	5	0.178696	12.8398	39.0062	28.6224
   9	1	2	-0.592725	11.381	39.8949	30.7707
  10	1	6	-0.000174	9.35473	39.6379	25.5106
  11	1	5	0.1602	8.03969	40.2754	27.9011
  12	1	4	0.461284	10.2614	40.3097	31.3805
  13	1	1	-0.167191	7.98392	39.4479	25.1464
  14	1	5	0.164364	11.3148	40.1662	24.6913
  15	1	1	-0.325009	7.54632	39.5705	23.7984
  16	1	8	0.422373	11.4851	40.5562	22.0025
  17	1	1	-0.217421	10.2718	39.9631	24.4805
  18	1	5	0.173851	12.3488	40.4042	33.1081
  19	1	5	0.197073	10.1642	41.2978	36.6611
  20	1	6	0.024852	9.86332	39.5636	26.9213
  21	1	1	0.048807	9.67897	40.002	29.2968
  22	1	1	0.060532	8.93503	41.1579	34.8694
  23	1	5	0.140008	11.8394	38.8401	26.3404
  24	1	5	0.202663	6.50927	39.4301	23.5145
  25	1	1	-0.222969	9.06882	39.9609	28.0338
  26	1	1	0.35235	10.9992	39.6985	29.4962
  27	1	1	0.269742	11.3695	40.8836	34.953
  28	1	1	-0.166682	11.2202	39.1843	27.163
  29	1	1	-0.277787	11.8004	39.2609	28.4447
  30	1	1	-0.312482	11.3954	40.6174	33.5836
  31	1	9	0.442075	7.59043	41.3642	35.6217
  32	1	5	0.128262	8.08347	40.8988	32.8912
  33	1	3	-0.434358	9.17122	40.3859	30.5051
  34	1	8	0.354457	8.24106	40.6938	30.7215
  35	1	1	-0.233188	8.9945	40.9147	33.475
  36	1	5	0.143867	7.26073	39.1952	25.9174
  37	1	9	-0.2502	7.67345	42.5708	36.5915
  38	1	9	-0.249785	7.2715	40.0898	36.4377
  39	1	9	-0.32829	6.39077	41.6319	34.6769
  40	1	10	0.056572	8.05577	39.8894	37.1781
  41	1	10	0.044267	7.20389	39.2151	35.7782
  42	1	10	0.051935	6.31859	40.1874	36.9724
  43	1	10	0.069302	6.58307	42.5038	34.0393
  44	1	10	0.077707	5.47788	41.8323	35.2515
  45	1	10	0.059383	6.18416	40.7657	34.0368
  46	1	10	0.048889	8.40653	42.4054	37.3889
  47	1	10	0.055177	6.7069	42.7527	37.0776
  48	1	10	0.04962	7.95832	43.4823	36.0515
  49	1	1	0.438909	5.87754	42.5488	7.92995
  50	1	1	0.108796	5.06521	43.1104	8.87721
  51	1	2	-0.726889	5.39872	42.748	6.68443
  52	1	3	-0.675747	4.05465	43.7478	8.22997
  53	1	1	-0.43042	11.3318	41.0201	19.3949
  54	1	4	0.62373	4.25951	43.4364	6.87915
  55	1	1	0.00157	9.52477	41.0678	17.2539
  56	1	5	0.178696	4.74547	40.9817	14.995
  57	1	2	-0.592725	7.27734	40.9851	16.1422
  58	1	6	-0.000174	6.33087	42.1171	10.6762
  59	1	5	0.1602	8.69643	42.0288	12.0889
  60	1	4	0.461284	8.60963	41.1527	16.0972
  61	1	1	-0.167191	7.21653	41.5895	9.68757
  62	1	5	0.164364	4.5411	43.338	10.9646
  63	1	1	-0.325009	6.98871	41.793	8.30568
  64	1	8	0.422373	3.23776	44.1654	8.63151
  65	1	1	-0.217421	5.23427	42.9105	10.2486
  66	1	5	0.173851	8.02318	40.5306	18.7261
  67	1	5	0.197073	12.0225	41.0411	20.2225
  68	1	6	0.024852	6.52433	41.8108	12.1275
  69	1	1	0.048807	7.94482	41.5003	14.051
  70	1	1	0.060532	11.8253	41.3226	18.1139
  71	1	5	0.140008	4.41317	41.5032	12.5542
  72	1	5	0.202663	7.61631	41.3445	7.54333
  73	1	1	-0.222969	7.82462	41.7951	12.6909
  74	1	1	0.35235	6.88402	41.2157	14.8672
  75	1	1	0.269742	9.97245	40.7145	19.6447
  76	1	1	-0.166682	5.41419	41.5166	12.9766
  77	1	1	-0.277787	5.58589	41.2119	14.3488
  78	1	1	-0.312482	9.07674	40.7465	18.5552
  79	1	9	0.442075	13.3185	41.706	17.9004
  80	1	5	0.128262	11.2381	41.6126	16.071
  81	1	3	-0.434358	9.06433	41.4595	14.8127
  82	1	8	0.354457	10.0111	41.6307	14.5312
  83	1	1	-0.233188	10.8953	41.3441	17.0599
  84	1	5	0.143867	8.05093	40.9665	10.0
  85	1	9	-0.2502	13.8088	41.4264	16.4559
  86	1	9	-0.249785	14.2631	40.917	18.8472
  87	1	9	-0.32829	13.4892	43.213	18.1908
  88	1	10	0.056572	15.3151	41.1112	18.6041
  89	1	10	0.044267	14.0909	39.8369	18.7576
  90	1	10	0.051935	14.1293	41.2035	19.8962
  91	1	10	0.069302	13.207	43.4452	19.2253
  92	1	10	0.077707	12.8483	43.8092	17.5295
  93	1	10	0.059383	14.5277	43.5325	18.0404
  94	1	10	0.048889	13.3122	42.0726	15.7234
  95	1	10	0.055177	13.6282	40.3796	16.1804
  96	1	10	0.04962	14.8854	41.6169	16.3635
  97	1	1	0.438909	0.0357809	36.6487	-3.52252
  98	1	1	0.108796	0.938582	37.5048	-4.0946
  99	1	2	-0.726889	-0.121823	35.5335	-4.2578
 100	1	3	-0.675747	1.31614	36.9705	-5.29095
 101	1	1	-0.43042	2.07604	44.4445	6.13305
 102	1	4	0.62373	0.688937	35.717	-5.31372
 103	1	1	0.00157	2.34355	43.2899	3.58387
 104	1	5	0.178696	4.85296	40.1533	0.239239
 105	1	2	-0.592725	3.51256	41.917	1.87448
 106	1	6	-0.000174	1.00656	38.8537	-2.0943
 107	1	5	0.1602	-0.0435014	40.9128	-0.541568
 108	1	4	0.461284	2.42141	42.5712	2.29855
 109	1	1	-0.167191	-0.0209672	38.0268	-1.5541
 110	1	5	0.164364	2.28632	39.1834	-3.83327
 111	1	1	-0.325009	-0.502943	36.9036	-2.26188
 112	1	8	0.422373	2.06339	37.2716	-5.88712
 113	1	1	-0.217421	1.48125	38.5943	-3.40753
 114	1	5	0.173851	4.27459	42.615	4.28289
 115	1	5	0.197073	1.98466	44.8738	7.12049
 116	1	6	0.024852	1.72185	39.8087	-1.20243
 117	1	1	0.048807	1.75922	41.4926	0.525725
 118	1	1	0.060532	1.03245	44.6155	5.19696
 119	1	5	0.140008	3.64414	38.859	-1.54678
 120	1	5	0.202663	-1.2051	36.202	-1.82499
 121	1	1	-0.222969	1.02649	40.773	-0.42651
 122	1	1	0.35235	3.08561	41.2599	0.778274
 123	1	1	0.269742	3.25012	43.7202	5.82461
 124	1	1	-0.166682	3.11873	39.629	-0.987749
 125	1	1	-0.277787	3.80933	40.3446	0.0133749
 126	1	1	-0.312482	3.38619	43.1963	4.52575
 127	1	9	0.442075	-0.260512	45.4162	5.5175
 128	1	5	0.128262	0.395214	44.1208	3.19993
 129	1	3	-0.434358	1.32208	42.3883	1.45401
 130	1	8	0.354457	0.381711	42.6942	1.62199
 131	1	1	-0.233188	1.18619	44.0129	3.93249
 132	1	5	0.143867	-0.358556	38.1983	-0.534606
 133	1	9	-0.2502	-1.51992	44.5727	5.19478
 134	1	9	-0.249785	-0.286537	46.7091	4.67048
 135	1	9	-0.32829	-0.369821	45.8287	7.00858
 136	1	10	0.056572	-1.18791	47.2993	4.87717
 137	1	10	0.044267	-0.2706	46.4823	3.59753
 138	1	10	0.051935	0.587486	47.334	4.89395
 139	1	10	0.069302	-0.342061	44.9473	7.66157
 140	1	10	0.077707	-1.31331	46.3544	7.20105
 141	1	10	0.059383	0.443752	46.5061	7.29582
 142	1	10	0.048889	-2.43516	45.1063	5.48005
 143	1	10	0.055177	-1.49804	43.6222	5.74253
 144	1	10	0.04962	-1.59882	44.3465	4.12574
 145	1	1	0.438909	0.357451	22.2455	-7.03576
 146	1	1	0.108796	-0.675835	22.8164	-6.34487
 147	1	2	-0.726889	0.0703128	20.9793	-7.39891
 148	1	3	-0.675747	-1.66716	21.8918	-6.24098
 149	1	1	-0.43042	1.65158	34.9623	-7.53232
 150	1	4	0.62373	-1.17338	20.7748	-6.92851
 151	1	1	0.00157	1.00097	32.289	-6.93025
 152	1	5	0.178696	-0.782405	28.6636	-3.59516
 153	1	2	-0.592725	0.171108	30.5162	-5.40357
 154	1	6	-0.000174	0.456811	24.9458	-6.24463
 155	1	5	0.1602	1.43001	27.0203	-7.7846
 156	1	4	0.461284	0.766637	30.8842	-6.54858
 157	1	1	-0.167191	1.54745	24.338	-6.93772
 158	1	5	0.164364	-1.54392	24.5767	-5.44245
 159	1	1	-0.325009	1.50532	22.9806	-7.3356
 160	1	8	0.422373	-2.57795	22.006	-5.8405
 161	1	1	-0.217421	-0.676764	24.1491	-5.93298
 162	1	5	0.173851	0.1181	33.0936	-5.13351
 163	1	5	0.197073	1.89184	35.9965	-7.74287
 164	1	6	0.024852	0.445081	26.4077	-5.93024
 165	1	1	0.048807	0.826177	28.7068	-6.56826
 166	1	1	0.060532	1.94213	33.9557	-8.48408
 167	1	5	0.140008	-0.584717	26.1929	-4.02393
 168	1	5	0.202663	2.31508	22.5123	-7.88419
 169	1	1	-0.222969	0.973398	27.3467	-6.85647
 170	1	1	0.35235	0.211972	29.1699	-5.43664
 171	1	1	0.269742	0.974227	34.6681	-6.32648
 172	1	1	-0.166682	-0.183001	26.8981	-4.7461
 173	1	1	-0.277787	-0.298727	28.2823	-4.48834
 174	1	1	-0.312482	0.619042	33.3327	-6.07034
 175	1	9	0.442075	2.56581	34.2548	-9.87599
 176	1	5	0.128262	1.90384	31.8297	-8.83087
 177	1	3	-0.434358	1.18518	29.7901	-7.31069
 178	1	8	0.354457	1.68228	29.8114	-8.18146
 179	1	1	-0.233188	1.64072	32.6217	-8.13943
 180	1	5	0.143867	2.42596	24.933	-7.1745
 181	1	9	-0.2502	2.78072	35.7673	-10.139
 182	1	9	-0.249785	1.63069	33.7254	-10.9922
 183	1	9	-0.32829	3.94193	33.5607	-10.0071
 184	1	10	0.056572	2.026	33.9641	-11.9872
 185	1	10	0.044267	0.633778	34.1765	-10.9068
 186	1	10	0.051935	1.5107	32.6371	-10.9388
 187	1	10	0.069302	4.62134	33.8988	-9.21494
 188	1	10	0.077707	4.40659	33.789	-10.9744
 189	1	10	0.059383	3.85223	32.4708	-9.93165
 190	1	10	0.048889	3.2	35.9355	-11.1392
 191	1	10	0.055177	3.47914	36.2004	-9.4127
 192	1	10	0.04962	1.83154	36.3153	-10.0835
 193	1	1	0.438909	-0.920458	8.31787	-12.6298
 194	1	1	0.108796	-1.99797	8.98016	-12.1169
 195	1	2	-0.726889	-1.15557	6.99312	-12.7334
 196	1	3	-0.675747	-2.98179	8.06979	-11.8986
 197	1	1	-0.43042	-3.26038	19.3867	-6.61237
 198	1	4	0.62373	-2.39194	6.84251	-12.2245
 199	1	1	0.00157	-2.17316	17.3038	-8.16164
 200	1	5	0.178696	1.57969	15.1531	-11.1749
 201	1	2	-0.592725	-0.419932	16.2452	-9.5906
 202	1	6	-0.000174	-0.759631	11.0589	-11.9093
 203	1	5	0.1602	-2.57984	12.5157	-10.3424
 204	1	4	0.461284	-1.62332	16.217	-8.99388
 205	1	1	-0.167191	0.346401	10.3651	-12.5024
 206	1	5	0.164364	-2.86032	10.7553	-11.3161
 207	1	1	-0.325009	0.272253	8.99844	-12.8669
 208	1	8	0.422373	-3.85876	8.21088	-11.4373
 209	1	1	-0.217421	-1.97142	10.3237	-11.7498
 210	1	5	0.173851	-0.43208	18.5697	-8.33071
 211	1	5	0.197073	-3.66824	20.201	-6.03044
 212	1	6	0.024852	-0.636192	12.4726	-11.3805
 213	1	1	0.048807	-1.48561	14.3207	-10.0504
 214	1	1	0.060532	-4.03303	18.222	-6.82343
 215	1	5	0.140008	1.35118	12.896	-12.1969
 216	1	5	0.202663	1.12785	8.45929	-13.2584
 217	1	1	-0.222969	-1.66925	13.0442	-10.5803
 218	1	1	0.35235	-0.356644	15.0629	-10.2412
 219	1	1	0.269742	-1.95745	19.5297	-7.1452
 220	1	1	-0.166682	0.534227	13.2725	-11.593
 221	1	1	-0.277787	0.683138	14.5608	-11.0246
 222	1	1	-0.312482	-1.43131	18.4715	-7.90913
 223	1	9	0.442075	-5.47866	18.0579	-6.27163
 224	1	5	0.128262	-4.0559	16.3161	-7.81882
 225	1	3	-0.434358	-2.32008	15.0364	-9.25314
 226	1	8	0.354457	-3.22926	14.7838	-8.91523
 227	1	1	-0.233188	-3.46732	17.2009	-7.61293
 228	1	5	0.143867	1.2976	10.8669	-12.6371
 229	1	9	-0.2502	-6.48668	18.2	-7.43506
 230	1	9	-0.249785	-5.84147	19.1131	-5.19434
 231	1	9	-0.32829	-5.67332	16.6672	-5.61365
 232	1	10	0.056572	-6.843	18.9281	-4.78571
 233	1	10	0.044267	-5.84776	20.1273	-5.6113
 234	1	10	0.051935	-5.12986	19.0801	-4.35963
 235	1	10	0.069302	-5.60101	15.853	-6.34269
 236	1	10	0.077707	-6.66216	16.589	-5.14491
 237	1	10	0.059383	-4.91722	16.4978	-4.83676
 238	1	10	0.048889	-7.52044	18.1139	-7.07744
 239	1	10	0.055177	-6.32613	17.4249	-8.19424
 240	1	10	0.04962	-6.37644	19.1759	-7.92464
 241	1	1	0.438909	0.0404781	-6.5748	-11.5914
 242	1	1	0.108796	-0.190479	-5.6966	-10.5676
 243	1	2	-0.726889	0.341277	-7.80309	-11.1278
 244	1	3	-0.675747	-0.0542465	-6.37635	-9.3944
 245	1	1	-0.43042	-4.27143	5.47949	-11.2453
 246	1	4	0.62373	0.340949	-7.66259	-9.79045
 247	1	1	0.00157	-2.8784	3.08977	-11.7374
 248	1	5	0.178696	0.947408	0.28018	-14.0199
 249	1	2	-0.592725	-1.06014	1.72109	-12.76
 250	1	6	-0.000174	-0.376219	-3.8431	-12.1047
 251	1	5	0.1602	-2.28937	-2.1694	-11.0754
 252	1	4	0.461284	-2.16224	1.82748	-11.9997
 253	1	1	-0.167191	-0.157036	-4.76517	-13.1699
 254	1	5	0.164364	-0.527937	-3.65339	-9.93433
 255	1	1	-0.325009	0.0455435	-6.14279	-12.919
 256	1	8	0.422373	0.00153537	-5.99021	-8.47129
 257	1	1	-0.217421	-0.402405	-4.33149	-10.7713
 258	1	5	0.173851	-1.39123	4.34836	-12.6724
 259	1	5	0.197073	-4.80837	6.40123	-11.0732
 260	1	6	0.024852	-0.538084	-2.382	-12.3612
 261	1	1	0.048807	-1.66282	-0.289425	-11.95
 262	1	1	0.060532	-4.82781	4.26703	-10.7836
 263	1	5	0.140008	1.16676	-2.21283	-13.7015
 264	1	5	0.202663	0.246967	-6.85117	-13.7151
 265	1	1	-0.222969	-1.57635	-1.66305	-11.7169
 266	1	1	0.35235	-0.778915	0.400265	-12.7347
 267	1	1	0.269742	-3.01888	5.53425	-11.9002
 268	1	1	-0.166682	0.361067	-1.67185	-13.2113
 269	1	1	-0.277787	0.254658	-0.272188	-13.3933
 270	1	1	-0.312482	-2.35386	4.32342	-12.1637
 271	1	9	0.442075	-6.19876	4.24779	-10.0451
 272	1	5	0.128262	-4.50943	2.13299	-10.7227
 273	1	3	-0.434358	-2.57299	0.600225	-11.4771
 274	1	8	0.354457	-3.34862	0.432543	-10.8645
 275	1	1	-0.233188	-4.10386	3.08373	-11.04
 276	1	5	0.143867	-0.138146	-4.39696	-14.1935
 277	1	9	-0.2502	-6.32156	5.43238	-9.05029
 278	1	9	-0.249785	-6.42699	2.95275	-9.22081
 279	1	9	-0.32829	-7.33842	4.35712	-11.0816
 280	1	10	0.056572	-7.35401	3.01566	-8.6372
 281	1	10	0.044267	-5.60045	2.78526	-8.51856
 282	1	10	0.051935	-6.52008	2.07316	-9.86883
 283	1	10	0.069302	-7.26187	5.29114	-11.6514
 284	1	10	0.077707	-8.32089	4.33469	-10.594
 285	1	10	0.059383	-7.29314	3.52526	-11.7958
 286	1	10	0.048889	-5.47139	5.44508	-8.35657
 287	1	10	0.055177	-7.24011	5.35396	-8.45537
 288	1	10	0.04962	-6.36102	6.39904	-9.56402
 289	1	1	0.438909	10.2952	-9.20448	-11.0422
 290	1	1	0.108796	10.477	-10.4587	-11.5652
 291	1	2	-0.726889	11.2304	-8.34051	-11.4642
 292	1	3	-0.675747	11.6289	-10.4244	-12.3019
 293	1	1	-0.43042	0.922089	-8.46331	-7.45813
 294	1	4	0.62373	12.0307	-9.07792	-12.248
 295	1	1	0.00157	2.15631	-10.7505	-8.53506
 296	1	5	0.178696	4.44335	-12.3285	-12.813
 297	1	2	-0.592725	3.08896	-12.0132	-10.4636
 298	1	6	-0.000174	8.34773	-11.1834	-10.6842
 299	1	5	0.1602	6.92916	-11.9898	-8.50793
 300	1	4	0.461284	3.05097	-11.7519	-9.14794
 301	1	1	-0.167191	8.22073	-9.89897	-10.0776
 302	1	5	0.164364	9.62363	-12.4229	-11.9582
 303	1	1	-0.325009	9.18939	-8.89486	-10.2602
 304	1	8	0.422373	11.9916	-11.1393	-12.9027
 305	1	1	-0.217421	9.5137	-11.4729	-11.4466
 306	1	5	0.173851	1.3958	-10.0606	-10.4306
 307	1	5	0.197073	0.50405	-7.54339	-7.07338
 308	1	6	0.024852	7.12912	-12.0427	-10.673
 309	1	1	0.048807	5.06233	-12.4602	-9.48642
 310	1	1	0.060532	1.60336	-9.3432	-6.58209
 311	1	5	0.140008	6.92267	-12.0193	-12.8333
 312	1	5	0.202663	9.06251	-7.88849	-9.87711
 313	1	1	-0.222969	6.44002	-12.2276	-9.44698
 314	1	1	0.35235	4.35901	-12.4232	-10.6637
 315	1	1	0.269742	0.847783	-8.70176	-8.85183
 316	1	1	-0.166682	6.41972	-12.2301	-11.8931
 317	1	1	-0.277787	5.01815	-12.4096	-11.8962
 318	1	1	-0.312482	1.39765	-9.89539	-9.35391
 319	1	9	0.442075	1.83044	-9.02218	-5.07324
 320	1	5	0.128262	2.83485	-11.1092	-6.52432
 321	1	3	-0.434358	4.18433	-12.2077	-8.47759
 322	1	8	0.354457	4.42067	-11.9778	-7.53083
 323	1	1	-0.233188	2.23186	-10.4676	-7.15614
 324	1	5	0.143867	7.30488	-9.65187	-9.54556
 325	1	9	-0.2502	0.904827	-7.89292	-4.55111
 326	1	9	-0.249785	3.29509	-8.57379	-4.86503
 327	1	9	-0.32829	1.57777	-10.2559	-4.17283
 328	1	10	0.056572	3.48233	-8.31395	-3.81536
 329	1	10	0.044267	3.52453	-7.69448	-5.47951
 330	1	10	0.051935	3.99534	-9.37095	-5.14248
 331	1	10	0.069302	2.23387	-11.0975	-4.41813
 332	1	10	0.077707	0.545447	-10.5923	-4.26673
 333	1	10	0.059383	1.74337	-10.0136	-3.11533
 334	1	10	0.048889	-0.150188	-8.13444	-4.73136
 335	1	10	0.055177	1.13313	-6.93354	-5.03035
 336	1	10	0.04962	1.033	-7.7498	-3.47038
 337	1	1	0.438909	20.8905	-14.3226	-9.30998
 338	1	1	0.108796	21.3768	-13.0472	-9.41628
 339	1	2	-0.726889	20.9857	-14.7887	-8.05245
 340	1	3	-0.675747	21.8656	-12.6915	-8.18818
 341	1	1	-0.43042	13.3394	-7.09364	-13.0622
 342	1	4	0.62373	21.5594	-13.7851	-7.36331
 343	1	1	0.00157	15.3383	-8.73731	-14.1277
 344	1	5	0.178696	20.4773	-8.95027	-14.3411
 345	1	2	-0.592725	17.7436	-9.04307	-14.6643
 346	1	6	-0.000174	20.4668	-12.8386	-11.6523
 347	1	5	0.1602	17.9444	-12.9042	-12.6323
 348	1	4	0.461284	16.5388	-9.5612	-14.373
 349	1	1	-0.167191	20.0661	-14.2045	-11.5635
 350	1	5	0.164364	21.4428	-11.2109	-10.5626
 351	1	1	-0.325009	20.2696	-14.9548	-10.3861
 352	1	8	0.422373	22.2372	-11.8045	-7.90347
 353	1	1	-0.217421	21.1733	-12.2615	-10.558
 354	1	5	0.173851	14.1002	-10.3791	-13.4446
 355	1	5	0.197073	12.5902	-6.47257	-12.5795
 356	1	6	0.024852	19.9136	-11.9691	-12.7367
 357	1	1	0.048807	17.9395	-11.1286	-13.8529
 358	1	1	0.060532	14.3973	-6.48634	-13.7693
 359	1	5	0.140008	21.6648	-10.7019	-12.9794
 360	1	5	0.202663	19.8988	-15.9674	-10.2771
 361	1	1	-0.222969	18.5441	-12.1183	-13.0784
 362	1	1	0.35235	18.6027	-10.0094	-14.2771
 363	1	1	0.269742	13.1864	-8.4922	-12.9778
 364	1	1	-0.166682	20.6238	-10.8463	-13.2558
 365	1	1	-0.277787	19.973	-9.86195	-14.0383
 366	1	1	-0.312482	14.1762	-9.30656	-13.5617
 367	1	9	0.442075	14.4812	-4.93668	-13.8759
 368	1	5	0.128262	16.2882	-6.91549	-14.7386
 369	1	3	-0.434358	16.6079	-10.9055	-14.0053
 370	1	8	0.354457	15.8643	-11.4454	-13.6079
 371	1	1	-0.233188	15.4003	-7.33762	-14.2796
 372	1	5	0.143867	19.5273	-14.6558	-12.3935
 373	1	9	-0.2502	15.4822	-4.45221	-14.9564
 374	1	9	-0.249785	14.9213	-4.35081	-12.515
 375	1	9	-0.32829	13.1031	-4.33188	-14.2509
 376	1	10	0.056572	15.9031	-4.74489	-12.2242
 377	1	10	0.044267	14.2068	-4.61157	-11.7243
 378	1	10	0.051935	14.9926	-3.25688	-12.5595
 379	1	10	0.069302	12.723	-4.78246	-15.1761
 380	1	10	0.077707	13.177	-3.2487	-14.4065
 381	1	10	0.059383	12.3572	-4.49118	-13.4641
 382	1	10	0.048889	15.2312	-4.8727	-15.9384
 383	1	10	0.055177	16.5116	-4.73625	-14.7081
 384	1	10	0.04962	15.4648	-3.35864	-15.0453
 385	1	1	0.438909	14.1192	-21.7037	-1.82129
 386	1	1	0.108796	14.7238	-21.2521	-2.95767
 387	1	2	-0.726889	12.9199	-22.2642	-2.08822
 388	1	3	-0.675747	13.8885	-21.4984	-4.00185
 389	1	1	-0.43042	22.5048	-12.8825	-5.1634
 390	1	4	0.62373	12.7614	-22.0879	-3.41343
 391	1	1	0.00157	21.3628	-15.0584	-3.78143
 392	1	5	0.178696	20.0689	-17.8929	0.51882
 393	1	2	-0.592725	20.7879	-16.4456	-1.76221
 394	1	6	-0.000174	16.5566	-20.2466	-1.71596
 395	1	5	0.1602	17.7158	-18.7775	-3.79268
 396	1	4	0.461284	20.6799	-16.1575	-3.07276
 397	1	1	-0.167191	15.9143	-20.7318	-0.530349
 398	1	5	0.164364	16.3314	-20.2355	-3.91003
 399	1	1	-0.325009	14.7045	-21.4698	-0.576637
 400	1	8	0.422373	13.985	-21.198	-4.95208
 401	1	1	-0.217421	15.9283	-20.5524	-2.96072
 402	1	5	0.173851	20.6309	-15.6494	-5.72714
 403	1	5	0.197073	22.9539	-12.0592	-5.70413
 404	1	6	0.024852	17.7776	-19.3515	-1.66694
 405	1	1	0.048807	19.262	-17.7663	-2.74814
 406	1	1	0.060532	22.7091	-12.9947	-3.76286
 407	1	5	0.140008	18.235	-19.5866	0.460242
 408	1	5	0.202663	14.1958	-21.7987	0.322713
 409	1	1	-0.222969	18.2065	-18.6667	-2.83854
 410	1	1	0.35235	19.9014	-17.4551	-1.58446
 411	1	1	0.269742	21.7753	-13.8521	-5.88948
 412	1	1	-0.166682	18.5028	-19.0786	-0.459584
 413	1	1	-0.277787	19.5543	-18.1261	-0.407679
 414	1	1	-0.312482	21.2098	-14.9198	-5.17245
 415	1	9	0.442075	23.552	-11.9417	-2.98426
 416	1	5	0.128262	22.2698	-14.2441	-2.03213
 417	1	3	-0.434358	19.7678	-16.9809	-3.72671
 418	1	8	0.354457	19.4774	-16.9161	-4.68464
 419	1	1	-0.233188	22.1431	-14.1095	-3.10138
 420	1	5	0.143867	16.3283	-20.4994	0.444861
 421	1	9	-0.2502	23.2268	-10.5017	-3.45891
 422	1	9	-0.249785	25.0556	-12.2131	-3.21629
 423	1	9	-0.32829	23.2976	-11.9686	-1.45379
 424	1	10	0.056572	25.3229	-13.2206	-2.87281
 425	1	10	0.044267	25.6767	-11.4929	-2.66855
 426	1	10	0.051935	25.31	-12.1421	-4.28062
 427	1	10	0.069302	22.2271	-11.8692	-1.2336
 428	1	10	0.077707	23.8219	-11.1477	-0.94935
 429	1	10	0.059383	23.6592	-12.9008	-1.00257
 430	1	10	0.048889	23.5526	-10.3272	-4.4901
 431	1	10	0.055177	23.7353	-9.75697	-2.83355
 432	1	10	0.04962	22.148	-10.31	-3.40016
 433	1	1	0.438909	0.269013	-24.2646	0.0942191
 434	1	1	0.108796	0.456597	-24.6361	-1.21092
 435	1	2	-0.726889	-0.91932	-23.6513	0.27775
 436	1	3	-0.675747	-0.689432	-24.3432	-1.88284
 437	1	1	-0.43042	11.3231	-21.8877	-5.47441
 438	1	4	0.62373	-1.45385	-23.6223	-0.955114
 439	1	1	0.00157	9.14271	-23.0902	-4.15733
 440	1	5	0.178696	7.37856	-25.9993	-0.191469
 441	1	2	-0.592725	8.21274	-24.5034	-2.34544
 442	1	6	-0.000174	2.82254	-25.0012	-0.850948
 443	1	5	0.1602	3.92294	-23.954	-3.18302
 444	1	4	0.461284	8.02876	-23.7715	-3.45494
 445	1	1	-0.167191	2.58773	-24.7269	0.532367
 446	1	5	0.164364	1.83677	-25.1532	-2.79793
 447	1	1	-0.325009	1.31384	-24.3458	1.01226
 448	1	8	0.422373	-0.831398	-24.3571	-2.8762
 449	1	1	-0.217421	1.70951	-24.9769	-1.73589
 450	1	5	0.173851	10.5265	-23.3564	-2.5165
 451	1	5	0.197073	12.1694	-21.4433	-5.97842
 452	1	6	0.024852	4.23395	-25.1163	-1.35362
 453	1	1	0.048807	6.01885	-24.3876	-2.83614
 454	1	1	0.060532	10.0734	-21.9271	-6.13206
 455	1	5	0.140008	4.94452	-26.2356	0.371309
 456	1	5	0.202663	1.15777	-24.0241	2.03588
 457	1	1	-0.222969	4.64452	-24.4635	-2.55419
 458	1	1	0.35235	6.97067	-24.8819	-1.98584
 459	1	1	0.269742	11.4916	-22.3439	-4.14892
 460	1	1	-0.166682	5.23717	-25.7197	-0.539284
 461	1	1	-0.277787	6.6102	-25.6018	-0.845865
 462	1	1	-0.312482	10.4003	-22.9776	-3.5293
 463	1	9	0.442075	9.93942	-21.3542	-7.57644
 464	1	5	0.128262	8.01926	-22.5941	-5.92056
 465	1	3	-0.434358	6.6795	-23.7161	-3.83123
 466	1	8	0.354457	6.28741	-23.187	-4.58808
 467	1	1	-0.233188	8.98713	-22.5201	-5.44093
 468	1	5	0.143867	3.4289	-24.7034	1.22039
 469	1	9	-0.2502	8.47623	-21.0217	-7.96561
 470	1	9	-0.249785	10.4886	-22.3859	-8.58775
 471	1	9	-0.32829	10.7453	-20.0363	-7.74878
 472	1	10	0.056572	9.93401	-23.3298	-8.51898
 473	1	10	0.044267	11.5463	-22.603	-8.39263
 474	1	10	0.051935	10.4043	-22.0153	-9.61733
 475	1	10	0.069302	10.473	-19.3103	-6.97247
 476	1	10	0.077707	10.5458	-19.5762	-8.72472
 477	1	10	0.059383	11.8269	-20.2035	-7.69961
 478	1	10	0.048889	7.85321	-21.9225	-8.0046
 479	1	10	0.055177	8.43163	-20.5608	-8.96091
 480	1	10	0.04962	8.03319	-20.3166	-7.25121
 481	1	1	0.438909	-4.31826	-17.7358	-12.3164
 482	1	1	0.108796	-5.15297	-17.6051	-11.2418
 483	1	2	-0.726889	-4.05384	-16.5356	-12.8923
 484	1	3	-0.675747	-5.45314	-16.2961	-11.1103
 485	1	1	-0.43042	-3.0816	-21.7333	-0.507531
 486	1	4	0.62373	-4.60062	-15.6664	-12.0235
 487	1	1	0.00157	-3.80473	-21.7114	-3.22908
 488	1	5	0.178696	-3.09988	-23.684	-8.0431
 489	1	2	-0.592725	-3.62195	-22.642	-5.52708
 490	1	6	-0.000174	-4.50516	-19.7443	-10.3136
 491	1	5	0.1602	-5.08992	-19.1239	-7.65494
 492	1	4	0.461284	-4.05462	-21.6832	-4.68677
 493	1	1	-0.167191	-3.70957	-19.9282	-11.4917
 494	1	5	0.164364	-5.89896	-18.3343	-9.38016
 495	1	1	-0.325009	-3.61857	-18.9315	-12.501
 496	1	8	0.422373	-5.80534	-15.8577	-10.2794
 497	1	1	-0.217421	-5.28573	-18.5614	-10.2407
 498	1	5	0.173851	-2.60962	-23.4823	-3.38463
 499	1	5	0.197073	-2.73189	-21.7245	0.521978
 500	1	6	0.024852	-4.38679	-20.6334	-9.09674
 501	1	1	0.048807	-4.48887	-20.9249	-6.67985
 502	1	1	0.060532	-3.91539	-20.6919	-0.977184
 503	1	5	0.140008	-3.55559	-22.3687	-10.1249
 504	1	5	0.202663	-2.90817	-19.0096	-13.3165
 505	1	1	-0.222969	-4.72301	-20.1298	-7.80267
 506	1	1	0.35235	-3.89977	-22.1538	-6.75443
 507	1	1	0.269742	-2.56251	-22.7227	-1.36766
 508	1	1	-0.166682	-3.82699	-21.9472	-9.16195
 509	1	1	-0.277787	-3.57253	-22.7089	-7.99499
 510	1	1	-0.312482	-2.98741	-22.7256	-2.70624
 511	1	9	0.442075	-4.28624	-19.5157	-0.021927
 512	1	5	0.128262	-4.86401	-19.8993	-2.7618
 513	1	3	-0.434358	-4.64648	-20.6141	-5.36048
 514	1	8	0.354457	-4.97278	-19.754	-4.95859
 515	1	1	-0.233188	-4.25812	-20.6987	-2.35365
 516	1	5	0.143867	-3.06593	-20.7987	-11.5738
 517	1	9	-0.2502	-2.99961	-18.7378	0.347882
 518	1	9	-0.249785	-4.93279	-20.0339	1.28521
 519	1	9	-0.32829	-5.28157	-18.4982	-0.636625
 520	1	10	0.056572	-5.23283	-19.2018	1.93514
 521	1	10	0.044267	-4.23837	-20.6573	1.86052
 522	1	10	0.051935	-5.82895	-20.6255	1.06401
 523	1	10	0.069302	-5.48714	-17.683	0.0696055
 524	1	10	0.077707	-6.23815	-18.9795	-0.87418
 525	1	10	0.059383	-4.87808	-18.0388	-1.54645
 526	1	10	0.048889	-2.27888	-19.3838	0.864152
 527	1	10	0.055177	-3.22285	-17.8931	1.01193
 528	1	10	0.04962	-2.51262	-18.3436	-0.552398
 529	1	1	0.438909	-0.612254	-12.2045	0.0412661
 530	1	1	0.108796	0.0767472	-13.2891	-0.428376
 531	1	2	-0.726889	-0.496245	-12.086	1.37199
 532	1	3	-0.675747	0.689299	-13.8862	0.634865
 533	1	1	-0.43042	-3.43502	-13.4024	-12.4936
 534	1	4	0.62373	0.253572	-13.139	1.73856
 535	1	1	0.00157	-2.81525	-13.2762	-9.75374
 536	1	5	0.178696	-1.7393	-16.3829	-5.749
 537	1	2	-0.592725	-2.31577	-14.6317	-7.77807
 538	1	6	-0.000174	-0.826123	-12.9683	-2.64594
 539	1	5	0.1602	-1.25454	-11.4644	-4.95598
 540	1	4	0.461284	-2.33699	-13.4268	-8.37024
 541	1	1	-0.167191	-1.50527	-11.8151	-2.15295
 542	1	5	0.164364	0.519279	-14.6043	-2.08522
 543	1	1	-0.325009	-1.40219	-11.4252	-0.801183
 544	1	8	0.422373	1.22929	-14.7304	0.647454
 545	1	1	-0.217421	-0.00421193	-13.7141	-1.75567
 546	1	5	0.173851	-3.85805	-15.1284	-9.61136
 547	1	5	0.197073	-3.62337	-13.5226	-13.5549
 548	1	6	0.024852	-1.07547	-13.4471	-4.03675
 549	1	1	0.048807	-1.59511	-13.0553	-6.36585
 550	1	1	0.060532	-2.78658	-12.2403	-11.9854
 551	1	5	0.140008	-1.05239	-15.5552	-3.48225
 552	1	5	0.202663	-1.96089	-10.5883	-0.394251
 553	1	1	-0.222969	-1.29077	-12.5344	-5.10757
 554	1	1	0.35235	-1.8106	-14.3905	-6.56292
 555	1	1	0.269742	-3.91694	-14.4084	-11.6303
 556	1	1	-0.166682	-1.19287	-14.845	-4.292
 557	1	1	-0.277787	-1.58669	-15.3263	-5.55521
 558	1	1	-0.312482	-3.60337	-14.3054	-10.2714
 559	1	9	0.442075	-2.35633	-11.0627	-12.9113
 560	1	5	0.128262	-1.86079	-11.4075	-10.2021
 561	1	3	-0.434358	-1.85281	-12.4115	-7.54469
 562	1	8	0.354457	-1.76964	-11.4352	-7.76412
 563	1	1	-0.233188	-2.47586	-12.2063	-10.6007
 564	1	5	0.143867	-2.17324	-11.2631	-2.80861
 565	1	9	-0.2502	-2.49415	-9.69129	-12.1968
 566	1	9	-0.249785	-3.23323	-10.9724	-14.1878
 567	1	9	-0.32829	-0.88571	-11.2406	-13.348
 568	1	10	0.056572	-2.97856	-10.0821	-14.7766
 569	1	10	0.044267	-4.29694	-10.9081	-13.926
 570	1	10	0.051935	-3.0874	-11.839	-14.8426
 571	1	10	0.069302	-0.574346	-10.4325	-14.022
 572	1	10	0.077707	-0.74943	-12.1941	-13.8727
 573	1	10	0.059383	-0.21352	-11.2333	-12.4807
 574	1	10	0.048889	-1.80995	-9.60015	-11.3471
 575	1	10	0.055177	-3.51793	-9.54138	-11.8332
 576	1	10	0.04962	-2.25274	-8.86591	-12.8787
 577	1	1	0.438909	-3.59481	-9.25049	14.0375
 578	1	1	0.108796	-4.47362	-9.72448	13.1035
 579	1	2	-0.726889	-3.98727	-9.5752	15.2866
 580	1	3	-0.675747	-5.47625	-10.3518	13.7681
 581	1	1	-0.43042	1.26856	-14.611	3.5511
 582	1	4	0.62373	-5.06247	-10.3638	15.1099
 583	1	1	0.00157	0.122882	-12.9663	5.5343
 584	1	5	0.178696	-3.37211	-9.27449	6.65855
 585	1	2	-0.592725	-1.43844	-11.1635	6.16983
 586	1	6	-0.000174	-2.8555	-9.47153	11.3358
 587	1	5	0.1602	-0.894159	-11.2386	10.5525
 588	1	4	0.461284	-0.536221	-12.091	6.52576
 589	1	1	-0.167191	-1.9555	-8.92835	12.2979
 590	1	5	0.164364	-4.82957	-10.3475	11.0604
 591	1	1	-0.325009	-2.3263	-8.80348	13.6591
 592	1	8	0.422373	-6.11945	-11.0136	13.3713
 593	1	1	-0.217421	-4.15167	-9.85925	11.7532
 594	1	5	0.173851	-0.679278	-11.8498	3.8772
 595	1	5	0.197073	1.70165	-15.2374	2.78207
 596	1	6	0.024852	-2.42773	-9.80221	9.94877
 597	1	1	0.048807	-1.16914	-11.1666	8.39927
 598	1	1	0.060532	1.45182	-14.9524	4.91295
 599	1	5	0.140008	-3.93553	-8.55153	9.00999
 600	1	5	0.202663	-1.61898	-8.492	14.4201
 601	1	1	-0.222969	-1.41702	-10.7765	9.72141
 602	1	1	0.35235	-1.8362	-10.6242	7.33397
 603	1	1	0.269742	0.508202	-13.4864	3.16114
 604	1	1	-0.166682	-3.13848	-9.27019	8.83607
 605	1	1	-0.277787	-2.83413	-9.66531	7.51611
 606	1	1	-0.312482	-0.0675243	-12.7013	4.16975
 607	1	9	0.442075	2.20501	-16.2622	5.29385
 608	1	5	0.128262	1.03887	-14.3	6.94466
 609	1	3	-0.434358	-0.337601	-12.136	7.91002
 610	1	8	0.354457	0.312937	-12.7131	8.41087
 611	1	1	-0.233188	0.907841	-14.0826	5.89215
 612	1	5	0.143867	-0.947687	-8.66144	11.9873
 613	1	9	-0.2502	3.72866	-16.0587	5.13657
 614	1	9	-0.249785	1.76498	-17.4347	4.37505
 615	1	9	-0.32829	1.92966	-16.7146	6.75162
 616	1	10	0.056572	0.670827	-17.4843	4.30671
 617	1	10	0.044267	2.12046	-18.3997	4.75819
 618	1	10	0.051935	2.16601	-17.3297	3.36039
 619	1	10	0.069302	0.851557	-16.8072	6.93403
 620	1	10	0.077707	2.35081	-16.0086	7.4767
 621	1	10	0.059383	2.38639	-17.6917	6.9547
 622	1	10	0.048889	4.27775	-16.9691	5.40977
 623	1	10	0.055177	4.08021	-15.2429	5.77985
 624	1	10	0.04962	3.98733	-15.8066	4.10084
 625	1	1	0.438909	-5.20801	-19.694	7.66134
 626	1	1	0.108796	-5.92063	-20.0961	8.75783
 627	1	2	-0.726889	-5.46577	-20.4631	6.59818
 628	1	3	-0.675747	-6.77719	-21.0903	8.35411
 629	1	1	-0.43042	-5.57517	-11.9246	17.0803
 630	1	4	0.62373	-6.39752	-21.3336	7.02344
 631	1	1	0.00157	-4.34422	-14.0175	15.6378