pySIMM System Object

1010 atoms
1114 bonds
1932 angles
2957 dihedrals
252 impropers

10 atom types
14 bond types
23 angle types
11 dihedral types
3 improper types

-144.654911 144.654911 xlo xhi
-144.654911 144.654911 ylo yhi
-144.654911 144.654911 zlo zhi

Masses

   1	12.01	# ca
   2	14.01	# nc
   3	14.01	# na
   4	12.01	# cd
   5	1.008	# ha
   6	12.01	# cp
   7	1.008	# h5
   8	1.008	# hn
   9	12.01	# c3
  10	1.008	# hc

Pair Coeffs

   1	0.086	3.3996695084235347	# ca
   2	0.17	3.249998523775958	# nc
   3	0.17	3.249998523775958	# na
   4	0.086	3.3996695084235347	# cd
   5	0.015	2.59964245953351	# ha
   6	0.086	3.3996695084235347	# cp
   7	0.015	2.421462715905442	# h5
   8	0.0157	1.069078461768407	# hn
   9	0.1094	3.3996695084235347	# c3
  10	0.0157	2.649532787749369	# hc

Bond Coeffs

   1	425.8	1.3802	# cd,na
   2	467.7	1.3517	# ca,nc
   3	345.8	1.086	# ca,ha
   4	351.8	1.0818	# cd,h5
   5	385.1	1.4555	# ca,cd
   6	351.4	1.4854	# cp,cp
   7	321.0	1.5156	# c3,ca
   8	525.4	1.3172	# cd,nc
   9	300.9	1.5375	# c3,c3
  10	330.6	1.0969	# c3,hc
  11	450.2	1.4058	# ca,cp
  12	420.5	1.384	# ca,na
  13	408.4	1.01	# hn,na
  14	461.1	1.3984	# ca,ca

Angle Coeffs

   1	66.72	118.38	# ca,cp,ca
   2	62.86	111.51	# c3,c3,c3
   3	66.26	120.69	# ca,ca,cp
   4	63.15	112.07	# c3,c3,ca
   5	67.4	113.15	# ca,na,cd
   6	46.34	109.8	# c3,c3,hc
   7	66.28	123.45	# ca,cd,na
   8	48.18	119.88	# ca,ca,ha
   9	67.6	123.24	# ca,cd,nc
  10	64.05	121.11	# ca,cp,cp
  11	46.75	125.5	# cd,na,hn
  12	66.62	120.02	# ca,ca,ca
  13	72.48	104.88	# ca,nc,cd
  14	74.9	112.22	# na,cd,nc
  15	46.63	125.54	# ca,na,hn
  16	65.02	120.79	# ca,ca,cd
  17	69.46	119.72	# ca,ca,nc
  18	47.98	119.86	# cp,ca,ha
  19	39.4	107.58	# hc,c3,hc
  20	63.53	120.77	# c3,ca,ca
  21	69.08	118.34	# ca,ca,na
  22	49.58	121.55	# h5,cd,na
  23	50.58	125.52	# h5,cd,nc

Dihedral Coeffs

   1	1	4.0	2	180	# X,ca,cd,X
   2	1	3.625	2	180	# X,ca,cp,X
   3	1	4.75	2	180	# X,cd,nc,X
   4	1	0.3	2	180	# X,ca,na,X
   5	1	3.625	2	180	# X,ca,ca,X
   6	1	1.7	2	180	# X,cd,na,X
   7	1	1.0	2	180	# X,cp,cp,X
   8	1	0.16	3	0	# hc,c3,c3,c3
   9	1	0.15555555555555556	3	0	# X,c3,c3,X
  10	1	0.0	2	0	# X,c3,ca,X
  11	1	4.8	2	180	# X,ca,nc,X

Improper Coeffs

   1	1.1	-1	2	# na,X,X,hn
   2	1.1	-1	2	# ca,ca,ca,c3
   3	1.1	-1	2	# ca,X,X,ha

Atoms

   1	1	1	0.438909	28.1595	19.93	-8.48348
   2	1	1	0.108796	26.9705	20.5906	-8.34365
   3	1	2	-0.726889	28.9685	20.1398	-7.42463
   4	1	3	-0.675747	27.019	21.2946	-7.18118
   5	1	1	-0.43042	19.9673	15.2842	-17.3875
   6	1	4	0.62373	28.235	20.9104	-6.60052
   7	1	1	0.00157	21.377	16.4806	-15.2619
   8	1	5	0.178696	21.3836	18.437	-10.4381
   9	1	2	-0.592725	21.4764	17.4524	-12.9941
  10	1	6	-0.000174	25.9935	19.3979	-10.2098
  11	1	5	0.1602	25.7887	18.4196	-12.8372
  12	1	4	0.461284	22.0907	17.1156	-14.137
  13	1	1	-0.167191	27.2661	18.779	-10.4059
  14	1	5	0.164364	24.9266	20.8541	-8.96871
  15	1	1	-0.325009	28.3566	19.0394	-9.54061
  16	1	8	0.422373	26.265	21.7704	-6.72525
  17	1	1	-0.217421	25.8686	20.3564	-9.16593
  18	1	5	0.173851	19.469	16.4377	-14.2338
  19	1	5	0.197073	19.379	14.8412	-18.1814
  20	1	6	0.024852	24.7771	18.9479	-10.9663
  21	1	1	0.048807	23.6655	17.9766	-12.89
  22	1	1	0.060532	21.3504	15.5336	-17.5458
  23	1	5	0.140008	23.4313	19.2685	-9.27917
  24	1	5	0.202663	29.297	18.5055	-9.62154
  25	1	1	-0.222969	24.8485	18.4438	-12.2975
  26	1	1	0.35235	22.4593	17.9786	-12.2428
  27	1	1	0.269742	19.3026	15.6058	-16.2006
  28	1	1	-0.166682	23.5079	18.9403	-10.3105
  29	1	1	-0.277787	22.3434	18.4616	-10.9424
  30	1	1	-0.312482	20.0034	16.1949	-15.1482
  31	1	9	0.442075	22.0909	15.2039	-18.873
  32	1	5	0.128262	23.0833	16.3851	-16.5671
  33	1	3	-0.434358	23.4562	17.4268	-14.1233
  34	1	8	0.354457	24.1252	17.2477	-14.8497
  35	1	1	-0.233188	22.0317	16.1485	-16.4674
  36	1	5	0.143867	27.379	18.0221	-11.1772
  37	1	9	-0.2502	22.1462	16.4758	-19.7482
  38	1	9	-0.249785	21.385	14.0852	-19.6853
  39	1	9	-0.32829	23.5407	14.7148	-18.6198
  40	1	10	0.056572	20.406	14.4107	-20.0557
  41	1	10	0.044267	21.2438	13.187	-19.0709
  42	1	10	0.051935	21.9767	13.801	-20.5643
  43	1	10	0.069302	24.1788	15.5138	-18.2279
  44	1	10	0.077707	24.0058	14.3654	-19.5497
  45	1	10	0.059383	23.5485	13.8824	-17.905
  46	1	10	0.048889	21.1343	16.8439	-19.9596
  47	1	10	0.055177	22.6433	16.2769	-20.7056
  48	1	10	0.04962	22.6943	17.2777	-19.2387
  49	1	1	0.438909	33.7336	14.4137	3.39662
  50	1	1	0.108796	34.1611	14.0312	2.15535
  51	1	2	-0.726889	33.617	13.3622	4.23031
  52	1	3	-0.675747	34.403	12.6917	2.19824
  53	1	1	-0.43042	27.6914	21.9197	-4.35352
  54	1	4	0.62373	33.9947	12.3099	3.48401
  55	1	1	0.00157	29.9187	20.6619	-3.18806
  56	1	5	0.178696	34.0058	17.3526	-3.36738
  57	1	2	-0.592725	31.9493	19.2054	-3.21824
  58	1	6	-0.000174	33.7184	16.2305	1.23827
  59	1	5	0.1602	31.953	18.3589	1.07999
  60	1	4	0.461284	31.0187	19.9101	-2.55249
  61	1	1	-0.167191	33.3919	16.6452	2.56856
  62	1	5	0.164364	34.3702	14.494	0.0645767
  63	1	1	-0.325009	33.3796	15.7366	3.65089
  64	1	8	0.422373	34.6103	12.0811	1.43145
  65	1	1	-0.217421	34.1458	14.8848	1.04912
  66	1	5	0.173851	30.38	20.0016	-5.19185
  67	1	5	0.197073	26.8243	22.3887	-4.79995
  68	1	6	0.024852	33.4527	17.1266	0.0576588
  69	1	1	0.048807	32.1121	18.8429	-1.00538
  70	1	1	0.060532	27.8822	22.0378	-2.96024
  71	1	5	0.140008	34.7915	16.1134	-1.33759
  72	1	5	0.202663	33.056	16.0241	4.64515
  73	1	1	-0.222969	32.4758	18.1564	0.153709
  74	1	1	0.35235	32.6126	18.5477	-2.2419
  75	1	1	0.269742	28.5706	21.1763	-5.17538
  76	1	1	-0.166682	34.0352	16.8836	-1.2263
  77	1	1	-0.277787	33.6133	17.5833	-2.38262
  78	1	1	-0.312482	29.7055	20.5963	-4.57774
  79	1	9	0.442075	26.8461	22.8128	-2.09574
  80	1	5	0.128262	29.1689	21.437	-1.33154
  81	1	3	-0.434358	31.1233	19.7596	-1.16892
  82	1	8	0.354457	30.4839	20.1058	-0.478548
  83	1	1	-0.233188	29.0015	21.3873	-2.39931
  84	1	5	0.143867	33.0931	17.6714	2.75751
  85	1	9	-0.2502	27.157	22.7836	-0.57642
  86	1	9	-0.249785	25.4362	22.1987	-2.28337
  87	1	9	-0.32829	26.803	24.2969	-2.52888
  88	1	10	0.056572	24.6965	22.7105	-1.65484
  89	1	10	0.044267	25.4375	21.1368	-2.00635
  90	1	10	0.051935	25.0937	22.2753	-3.32148
  91	1	10	0.069302	26.5053	24.4006	-3.57855
  92	1	10	0.077707	27.7909	24.7597	-2.41204
  93	1	10	0.059383	26.088	24.8654	-1.92085
  94	1	10	0.048889	28.1238	23.2552	-0.360289
  95	1	10	0.055177	27.1758	21.7543	-0.196697
  96	1	10	0.04962	26.392	23.3285	-0.00874637
  97	1	1	0.438909	27.1165	3.74546	11.5539
  98	1	1	0.108796	26.6241	5.0209	11.5266
  99	1	2	-0.726889	26.2676	2.89224	12.1552
 100	1	3	-0.675747	25.411	5.00353	12.1478
 101	1	1	-0.43042	34.474	9.8524	3.15933
 102	1	4	0.62373	25.2268	3.66165	12.5154
 103	1	1	0.00157	33.0056	9.20866	5.47007
 104	1	5	0.178696	29.6168	10.3718	9.34459
 105	1	2	-0.592725	31.4598	9.72105	7.36952
 106	1	6	-0.000174	28.5623	5.83167	10.3176
 107	1	5	0.1602	30.4663	5.54864	8.3185
 108	1	4	0.461284	32.137	8.84531	6.60682
 109	1	1	-0.167191	29.0771	4.49782	10.387
 110	1	5	0.164364	26.8407	7.06891	10.8865
 111	1	1	-0.325009	28.3555	3.44732	10.9949
 112	1	8	0.422373	24.7765	5.76537	12.29
 113	1	1	-0.217421	27.296	6.0868	10.9194
 114	1	5	0.173851	32.7309	11.3402	5.6829
 115	1	5	0.197073	35.0477	10.1071	2.277
 116	1	6	0.024852	29.323	6.9144	9.59934
 117	1	1	0.048807	30.9491	7.60759	7.94433
 118	1	1	0.060532	34.3659	8.49607	3.53685
 119	1	5	0.140008	28.3924	8.6011	10.6262
 120	1	5	0.202663	28.7334	2.43174	11.037
 121	1	1	-0.222969	30.2764	6.57678	8.60002
 122	1	1	0.35235	30.7257	8.9331	8.18743
 123	1	1	0.269742	33.9047	10.8942	3.92792
 124	1	1	-0.166682	29.1038	8.30379	9.86265
 125	1	1	-0.277787	29.7961	9.31843	9.15708
 126	1	1	-0.312482	33.1998	10.551	5.0971
 127	1	9	0.442075	35.0568	7.38519	2.69408
 128	1	5	0.128262	33.4907	7.17235	5.00086
 129	1	3	-0.434358	31.8668	7.52004	6.94924
 130	1	8	0.354457	32.2197	6.69546	6.50123
 131	1	1	-0.233188	33.6168	8.20189	4.69525
 132	1	5	0.143867	30.0525	4.2695	9.97045
 133	1	9	-0.2502	34.6453	7.49896	1.20522
 134	1	9	-0.249785	34.7023	5.94649	3.1548
 135	1	9	-0.32829	36.5918	7.53733	2.79764
 136	1	10	0.056572	35.1783	5.19793	2.50913
 137	1	10	0.044267	33.619	5.77532	3.11585
 138	1	10	0.051935	35.0503	5.7599	4.17851
 139	1	10	0.069302	36.923	8.50877	2.41245
 140	1	10	0.077707	37.1057	6.75475	2.22559
 141	1	10	0.059383	36.9173	7.46231	3.84301
 142	1	10	0.048889	35.0831	6.68557	0.612736
 143	1	10	0.055177	34.9815	8.44226	0.76094
 144	1	10	0.04962	33.5545	7.44355	1.10087
 145	1	1	0.438909	19.1163	-7.67321	16.8399
 146	1	1	0.108796	19.6176	-6.71949	17.6839
 147	1	2	-0.726889	18.1551	-8.40071	17.4388
 148	1	3	-0.675747	19.0201	-6.87691	18.8978
 149	1	1	-0.43042	22.9877	4.00405	13.6427
 150	1	4	0.62373	18.0545	-7.86548	18.6687
 151	1	1	0.00157	22.7958	1.24778	14.1935
 152	1	5	0.178696	24.3755	-3.70716	13.4307
 153	1	2	-0.592725	23.5342	-1.11615	13.9382
 154	1	6	-0.000174	20.8269	-5.66669	15.8795
 155	1	5	0.1602	20.2471	-3.0148	16.1873
 156	1	4	0.461284	22.6773	-0.205205	14.4292
 157	1	1	-0.167191	20.3722	-6.71202	15.0233
 158	1	5	0.164364	20.7611	-4.89669	17.9219
 159	1	1	-0.325009	19.4967	-7.71694	15.4974
 160	1	8	0.422373	19.0474	-6.24543	19.6746
 161	1	1	-0.217421	20.4441	-5.6835	17.2465
 162	1	5	0.173851	24.6865	1.09157	13.1664
 163	1	5	0.197073	23.0812	5.05851	13.4249
 164	1	6	0.024852	21.5958	-4.50875	15.3402
 165	1	1	0.048807	21.8799	-2.12584	15.0756
 166	1	1	0.060532	21.8547	3.52614	14.3419
 167	1	5	0.140008	23.0998	-5.69772	14.317
 168	1	5	0.202663	19.0687	-8.46707	14.8412
 169	1	1	-0.222969	21.1488	-3.18894	15.61
 170	1	1	0.35235	23.0142	-2.29799	14.3302
 171	1	1	0.269742	24.0283	3.14269	13.2267
 172	1	1	-0.166682	22.7576	-4.68909	14.5353
 173	1	1	-0.277787	23.4843	-3.58205	14.0365
 174	1	1	-0.312482	23.9022	1.76902	13.5006
 175	1	9	0.442075	20.7012	4.46466	14.8032
 176	1	5	0.128262	20.9532	1.75762	15.1838
 177	1	3	-0.434358	21.6328	-0.789513	15.1489
 178	1	8	0.354457	20.8522	-0.322406	15.5706
 179	1	1	-0.233188	21.8003	2.14515	14.6316
 180	1	5	0.143867	20.6409	-6.68911	13.9694
 181	1	9	-0.2502	20.7415	5.85562	14.1168
 182	1	9	-0.249785	20.7905	4.68618	16.3301
 183	1	9	-0.32829	19.3166	3.8501	14.4726
 184	1	10	0.056572	19.9816	5.33928	16.6814
 185	1	10	0.044267	21.7458	5.15398	16.5993
 186	1	10	0.051935	20.717	3.73556	16.872
 187	1	10	0.069302	19.2539	3.58954	13.4086
 188	1	10	0.077707	18.5078	4.55747	14.6947
 189	1	10	0.059383	19.1183	2.94535	15.0577
 190	1	10	0.048889	19.8728	6.46206	14.403
 191	1	10	0.055177	20.7304	5.75264	13.0243
 192	1	10	0.04962	21.6355	6.42051	14.4072
 193	1	1	0.438909	7.25994	-5.17298	14.429
 194	1	1	0.108796	6.95149	-6.49559	14.6057
 195	1	2	-0.726889	6.34267	-4.54952	13.6643
 196	1	3	-0.675747	5.78826	-6.74313	13.9568
 197	1	1	-0.43042	16.8244	-7.4854	20.8517
 198	1	4	0.62373	5.46078	-5.51917	13.3643
 199	1	1	0.00157	14.5556	-8.73645	19.7739
 200	1	5	0.178696	12.3979	-10.0552	15.2885
 201	1	2	-0.592725	13.3402	-9.67791	17.8364
 202	1	6	-0.000174	8.99181	-6.89614	15.7986
 203	1	5	0.1602	9.87593	-7.04768	18.4069
 204	1	4	0.461284	13.3301	-9.08276	19.0379
 205	1	1	-0.167191	9.30095	-5.51192	15.6527
 206	1	5	0.164364	7.53561	-8.45142	15.334
 207	1	1	-0.325009	8.43444	-4.63702	14.9577
 208	1	8	0.422373	5.30828	-7.61612	13.8581
 209	1	1	-0.217421	7.78402	-7.39806	15.262
 210	1	5	0.173851	15.8339	-9.25623	18.1191
 211	1	5	0.197073	17.6966	-6.96542	21.2238
 212	1	6	0.024852	9.98829	-7.82989	16.3744
 213	1	1	0.048807	11.4268	-8.55013	18.1651
 214	1	1	0.060532	15.634	-7.51202	21.6178
 215	1	5	0.140008	10.4065	-8.75614	14.4568
 216	1	5	0.202663	8.67472	-3.59288	14.7891
 217	1	1	-0.222969	10.3612	-7.75187	17.7389
 218	1	1	0.35235	12.1607	-9.32021	17.3006
 219	1	1	0.269742	16.9085	-8.10789	19.5839
 220	1	1	-0.166682	10.6769	-8.72533	15.5097
 221	1	1	-0.277787	11.785	-9.46863	15.9648
 222	1	1	-0.312482	15.7935	-8.82125	19.1166
 223	1	9	0.442075	15.5021	-6.832	23.0098
 224	1	5	0.128262	13.5493	-8.0668	21.555
 225	1	3	-0.434358	12.1001	-8.50024	19.3479
 226	1	8	0.354457	11.9369	-7.86213	20.1041
 227	1	1	-0.233188	14.4981	-8.106	21.0309
 228	1	5	0.143867	10.25	-5.13936	16.0318
 229	1	9	-0.2502	14.4405	-5.70538	22.9543
 230	1	9	-0.249785	16.8264	-6.1964	23.5047
 231	1	9	-0.32829	15.0667	-7.87053	24.0713
 232	1	10	0.056572	16.6965	-5.74026	24.4941
 233	1	10	0.044267	17.1664	-5.40771	22.8221
 234	1	10	0.051935	17.6175	-6.95196	23.5899
 235	1	10	0.069302	14.0923	-8.31044	23.8289
 236	1	10	0.077707	14.985	-7.40946	25.0636
 237	1	10	0.059383	15.797	-8.68686	24.1361
 238	1	10	0.048889	14.3596	-5.19228	23.9209
 239	1	10	0.055177	13.447	-6.09657	22.7065
 240	1	10	0.04962	14.7077	-4.95888	22.1959
 241	1	1	0.438909	-2.57462	3.4459	7.40085
 242	1	1	0.108796	-2.38394	3.35517	8.75363
 243	1	2	-0.726889	-3.65395	4.18444	7.10499
 244	1	3	-0.675747	-3.38914	4.04097	9.36578
 245	1	1	-0.43042	3.40203	-6.41661	12.2353
 246	1	4	0.62373	-4.12352	4.57868	8.30071
 247	1	1	0.00157	2.91238	-3.93484	11.0228
 248	1	5	0.178696	3.63564	1.25762	10.7572
 249	1	2	-0.592725	3.29821	-1.49403	10.7346
 250	1	6	-0.000174	-0.406756	2.02786	8.43521
 251	1	5	0.1602	-0.369156	-0.671034	8.43079
 252	1	4	0.461284	2.60831	-2.61214	10.4554
 253	1	1	-0.167191	-0.61084	2.11866	7.02974
 254	1	5	0.164364	-1.19355	2.58468	10.3953
 255	1	1	-0.325009	-1.69812	2.84442	6.49912
 256	1	8	0.422373	-3.50169	4.23374	10.3426
 257	1	1	-0.217421	-1.3129	2.66508	9.31984
 258	1	5	0.173851	4.68425	-3.26762	12.0634
 259	1	5	0.197073	3.57963	-7.3656	12.7233
 260	1	6	0.024852	0.666929	1.16626	8.97734
 261	1	1	0.048807	1.48362	-1.02876	9.49606
 262	1	1	0.060532	2.28379	-6.28971	11.3877
 263	1	5	0.140008	1.91809	2.78685	9.70349
 264	1	5	0.202663	-1.87125	2.94018	5.43314
 265	1	1	-0.222969	0.50811	-0.235762	8.89851
 266	1	1	0.35235	2.57291	-0.518982	10.15
 267	1	1	0.269742	4.28515	-5.34308	12.4811
 268	1	1	-0.166682	1.80508	1.70733	9.63947
 269	1	1	-0.277787	2.77545	0.862674	10.2268
 270	1	1	-0.312482	4.01952	-4.10832	11.8694
 271	1	9	0.442075	1.32709	-7.49735	11.1936
 272	1	5	0.128262	1.21287	-4.89934	10.1275
 273	1	3	-0.434358	1.49911	-2.37571	9.6459
 274	1	8	0.354457	0.81766	-3.04446	9.34015
 275	1	1	-0.233188	2.0668	-5.03665	10.7774
 276	1	5	0.143867	0.0830262	1.6146	6.36104
 277	1	9	-0.2502	0.684373	-7.86788	12.5522
 278	1	9	-0.249785	2.11524	-8.71793	10.6583
 279	1	9	-0.32829	0.173146	-7.22139	10.1972
 280	1	10	0.056572	1.44979	-9.57322	10.488
 281	1	10	0.044267	2.89125	-9.04107	11.3617
 282	1	10	0.051935	2.6043	-8.47338	9.70697
 283	1	10	0.069302	-0.465995	-6.4024	10.5498
 284	1	10	0.077707	-0.463249	-8.10744	10.0813
 285	1	10	0.059383	0.562981	-6.96094	9.20522
 286	1	10	0.048889	1.44141	-8.16008	13.2895
 287	1	10	0.055177	-0.0155628	-8.70556	12.4441
 288	1	10	0.04962	0.130772	-7.01359	12.9624
 289	1	1	0.438909	-4.7032	15.561	3.80167
 290	1	1	0.108796	-6.03169	15.2397	3.86797
 291	1	2	-0.726889	-4.464	16.7782	4.33988
 292	1	3	-0.675747	-6.68584	16.2791	4.43237
 293	1	1	-0.43042	-5.59935	6.09918	9.69708
 294	1	4	0.62373	-5.67095	17.1752	4.78394
 295	1	1	0.00157	-6.57313	7.28386	7.33839
 296	1	5	0.178696	-5.21618	8.30609	2.46132
 297	1	2	-0.592725	-6.35427	7.68231	4.89763
 298	1	6	-0.000174	-5.60028	12.9414	3.31195
 299	1	5	0.1602	-7.09204	11.9491	5.3171
 300	1	4	0.461284	-6.84184	8.03398	6.1
 301	1	1	-0.167191	-4.22743	13.2916	3.13991
 302	1	5	0.164364	-7.56618	13.7246	3.84037
 303	1	1	-0.325009	-3.76832	14.6091	3.38719
 304	1	8	0.422373	-7.65873	16.3396	4.65495
 305	1	1	-0.217421	-6.52469	13.9586	3.65
 306	1	5	0.173851	-5.42259	5.78765	6.31161
 307	1	5	0.197073	-5.15768	5.67371	10.5874
 308	1	6	0.024852	-6.01503	11.5189	3.46669
 309	1	1	0.048807	-6.94485	9.84159	4.93131
 310	1	1	0.060532	-6.48373	7.19913	9.80486
 311	1	5	0.140008	-4.8978	10.7131	1.78422
 312	1	5	0.202663	-2.71383	14.8619	3.37109
 313	1	1	-0.222969	-6.77292	11.1848	4.61772
 314	1	1	0.35235	-6.37831	8.83457	4.19936
 315	1	1	0.269742	-5.20289	5.58563	8.44142
 316	1	1	-0.166682	-5.50571	10.4675	2.65139
 317	1	1	-0.277787	-5.69188	9.11124	3.01153
 318	1	1	-0.312482	-5.75452	6.15039	7.28288
 319	1	9	0.442075	-6.79829	7.86564	11.1766
 320	1	5	0.128262	-7.5482	8.68049	8.64956
 321	1	3	-0.434358	-7.35329	9.32739	6.11956
 322	1	8	0.354457	-7.59972	9.83922	6.94505
 323	1	1	-0.233188	-6.9436	7.78438	8.60368
 324	1	5	0.143867	-3.50248	12.5066	2.93693
 325	1	9	-0.2502	-5.7789	9.0021	11.421
 326	1	9	-0.249785	-6.70481	6.86725	12.3603
 327	1	9	-0.32829	-8.22367	8.47647	11.2219
 328	1	10	0.056572	-7.0142	7.34295	13.2996
 329	1	10	0.044267	-5.6799	6.51064	12.5135
 330	1	10	0.051935	-7.35583	6.00049	12.1917
 331	1	10	0.069302	-8.97475	7.73265	10.9286
 332	1	10	0.077707	-8.31798	9.34464	10.5606
 333	1	10	0.059383	-8.47086	8.82467	12.2328
 334	1	10	0.048889	-5.9639	9.50299	12.3796
 335	1	10	0.055177	-5.83598	9.75705	10.627
 336	1	10	0.04962	-4.75426	8.60961	11.4348
 337	1	1	0.438909	-17.4067	18.1759	8.67283
 338	1	1	0.108796	-17.1111	19.5105	8.62168
 339	1	2	-0.726889	-18.7413	17.9621	8.73647
 340	1	3	-0.675747	-18.2825	20.1926	8.6339
 341	1	1	-0.43042	-4.91041	19.2365	6.0584
 342	1	4	0.62373	-19.267	19.2025	8.74027
 343	1	1	0.00157	-7.53355	19.6322	7.00782
 344	1	5	0.178696	-11.3128	22.2196	9.62957
 345	1	2	-0.592725	-9.34825	20.8159	8.26282
 346	1	6	-0.000174	-14.734	19.0943	8.60942
 347	1	5	0.1602	-12.5714	17.9413	7.33882
 348	1	4	0.461284	-8.91648	19.8004	7.49814
 349	1	1	-0.167191	-15.0416	17.6985	8.65173
 350	1	5	0.164364	-15.6362	21.0858	8.54428
 351	1	1	-0.325009	-16.3787	17.2305	8.6875
 352	1	8	0.422373	-18.4178	21.1852	8.64563
 353	1	1	-0.217421	-15.8118	20.0171	8.59459
 354	1	5	0.173851	-8.01814	17.8978	5.84171
 355	1	5	0.197073	-3.90468	19.0599	5.68461
 356	1	6	0.024852	-13.3193	19.5876	8.56501
 357	1	1	0.048807	-11.0301	19.3808	7.82651
 358	1	1	0.060532	-5.16288	20.316	6.937
 359	1	5	0.140008	-13.6772	21.3793	9.7517
 360	1	5	0.202663	-16.6198	16.1749	8.742
 361	1	1	-0.222969	-12.3261	18.8598	7.86044
 362	1	1	0.35235	-10.6609	20.5445	8.44324
 363	1	1	0.269742	-5.92777	18.3535	5.65087
 364	1	1	-0.166682	-12.9361	20.8105	9.19786
 365	1	1	-0.277787	-11.6068	21.2942	9.14567
 366	1	1	-0.312482	-7.229	18.5698	6.14059
 367	1	9	0.442075	-3.99685	21.2484	7.37218
 368	1	5	0.128262	-6.74091	21.3161	8.05983
 369	1	3	-0.434358	-9.93223	18.8863	7.2037
 370	1	8	0.354457	-9.85052	18.0273	6.69721
 371	1	1	-0.233188	-6.49297	20.5013	7.38695
 372	1	5	0.143867	-14.2302	16.9762	8.68511
 373	1	9	-0.2502	-4.39966	22.2659	8.47053
 374	1	9	-0.249785	-3.49029	22.0473	6.14893
 375	1	9	-0.32829	-2.81956	20.4161	7.94077
 376	1	10	0.056572	-4.29658	22.6608	5.72824
 377	1	10	0.044267	-3.13051	21.3772	5.35854
 378	1	10	0.051935	-2.664	22.7136	6.42635
 379	1	10	0.069302	-3.1589	19.7828	8.76965
 380	1	10	0.077707	-2.02168	21.0683	8.31711
 381	1	10	0.059383	-2.37543	19.766	7.17821
 382	1	10	0.048889	-4.77752	21.7508	9.36296
 383	1	10	0.055177	-5.1759	22.9521	8.11009
 384	1	10	0.04962	-3.54108	22.8763	8.77724
 385	1	1	0.438909	-28.8122	10.5162	8.95476
 386	1	1	0.108796	-27.4571	10.6415	9.08385
 387	1	2	-0.726889	-29.1641	9.3029	8.49239
 388	1	3	-0.675747	-26.8993	9.45565	8.71557
 389	1	1	-0.43042	-21.1195	20.875	8.97076
 390	1	4	0.62373	-27.9898	8.68234	8.29389
 391	1	1	0.00157	-23.0357	18.8519	9.33754
 392	1	5	0.178696	-27.9283	17.6204	10.6271
 393	1	2	-0.592725	-25.3288	18.1601	9.93561
 394	1	6	-0.000174	-27.6358	13.0043	9.60097
 395	1	5	0.1602	-24.9879	13.8513	9.14659
 396	1	4	0.461284	-24.0873	17.8346	9.5458
 397	1	1	-0.167191	-29.0561	12.8418	9.49576
 398	1	5	0.164364	-25.7477	11.8878	9.46054
 399	1	1	-0.325009	-29.6512	11.6007	9.1821
 400	1	8	0.422373	-25.9281	9.24199	8.59537
 401	1	1	-0.217421	-26.8269	11.8472	9.4028
 402	1	5	0.173851	-21.3793	17.4804	9.0156
 403	1	5	0.197073	-20.3861	21.6591	8.84054
 404	1	6	0.024852	-27.0215	14.3673	9.81149
 405	1	1	0.048807	-25.1731	15.9406	9.62436
 406	1	1	0.060532	-22.4519	21.2485	9.22934
 407	1	5	0.140008	-28.8561	15.3208	10.5333
 408	1	5	0.202663	-30.7217	11.4899	9.04983
 409	1	1	-0.222969	-25.6497	14.6281	9.50585
 410	1	1	0.35235	-25.9762	16.9848	9.98712
 411	1	1	0.269742	-20.7099	19.5238	8.9103
 412	1	1	-0.166682	-27.8195	15.4689	10.2548
 413	1	1	-0.277787	-27.3097	16.7806	10.3291
 414	1	1	-0.312482	-21.6905	18.5195	9.06287
 415	1	9	0.442075	-22.8382	22.7515	9.31105
 416	1	5	0.128262	-24.4188	20.4598	9.64407
 417	1	3	-0.434358	-23.9333	16.4559	9.35884
 418	1	8	0.354457	-23.1111	15.9766	9.03999
 419	1	1	-0.233188	-23.3844	20.2145	9.42904
 420	1	5	0.143867	-29.7164	13.6954	9.59599
 421	1	9	-0.2502	-24.3439	22.9936	9.58761
 422	1	9	-0.249785	-22.4948	23.4556	7.97548
 423	1	9	-0.32829	-22.044	23.4327	10.4515
 424	1	10	0.056572	-23.0265	22.9789	7.14232
 425	1	10	0.044267	-21.4214	23.4128	7.75818
 426	1	10	0.051935	-22.7855	24.5132	8.00167
 427	1	10	0.069302	-20.964	23.3926	10.2719
 428	1	10	0.077707	-22.2454	22.9338	11.4079
 429	1	10	0.059383	-22.3256	24.4881	10.5535
 430	1	10	0.048889	-24.9653	22.5611	8.79297
 431	1	10	0.055177	-24.5682	24.0663	9.63626
 432	1	10	0.04962	-24.6467	22.5504	10.5448
 433	1	1	0.438909	-26.2512	-2.41201	5.28917
 434	1	1	0.108796	-27.3926	-2.70842	4.58912
 435	1	2	-0.726889	-25.5347	-3.50934	5.57505
 436	1	3	-0.675747	-27.4074	-4.05674	4.39017
 437	1	1	-0.43042	-26.5942	6.77509	7.40545
 438	1	4	0.62373	-26.2622	-4.51307	5.05996
 439	1	1	0.00157	-28.8957	5.50471	6.42008
 440	1	5	0.178696	-29.8892	3.14995	2.31214
 441	1	2	-0.592725	-30.1919	4.57542	4.62954
 442	1	6	-0.000174	-28.1391	-0.427723	4.73608
 443	1	5	0.1602	-29.324	0.9124	6.73218
 444	1	4	0.461284	-30.056	4.73672	5.95768
 445	1	1	-0.167191	-26.931	-0.124334	5.4289
 446	1	5	0.164364	-29.2886	-2.02055	3.77423
 447	1	1	-0.325009	-25.9722	-1.11586	5.7093
 448	1	8	0.422373	-28.1323	-4.61492	3.97801
 449	1	1	-0.217421	-28.3694	-1.7529	4.28453
 450	1	5	0.173851	-29.993	7.1417	7.29497
 451	1	5	0.197073	-25.7179	7.2788	7.78821
 452	1	6	0.024852	-29.1279	0.669091	4.58073
 453	1	1	0.048807	-30.1409	2.58588	5.63851
 454	1	1	0.060532	-26.4484	5.55267	6.7102
 455	1	5	0.140008	-28.9597	0.816021	2.4213
 456	1	5	0.202663	-25.067	-0.908159	6.26853
 457	1	1	-0.222969	-29.57	1.32042	5.75676
 458	1	1	0.35235	-30.2018	3.24214	4.44179
 459	1	1	0.269742	-27.8634	7.36811	7.61615
 460	1	1	-0.166682	-29.3541	1.2857	3.31891
 461	1	1	-0.277787	-29.8892	2.59248	3.24294
 462	1	1	-0.312482	-29.0103	6.70395	7.13517
 463	1	9	0.442075	-25.0819	4.84795	6.48002
 464	1	5	0.128262	-27.5529	3.99701	5.70301
 465	1	3	-0.434358	-30.2057	3.51916	6.62237
 466	1	8	0.354457	-29.8923	3.37571	7.56552
 467	1	1	-0.233188	-27.6204	4.94277	6.23348
 468	1	5	0.143867	-26.7573	0.894677	5.76611
 469	1	9	-0.2502	-23.8727	5.72227	6.89893
 470	1	9	-0.249785	-24.891	4.48905	4.98428
 471	1	9	-0.32829	-25.027	3.54448	7.31122
 472	1	10	0.056572	-24.9952	5.382	4.35555
 473	1	10	0.044267	-25.626	3.75011	4.64373
 474	1	10	0.051935	-23.897	4.06114	4.80391
 475	1	10	0.069302	-25.1477	3.76135	8.37973
 476	1	10	0.077707	-24.0685	3.02885	7.17355
 477	1	10	0.059383	-25.8251	2.8526	7.01711
 478	1	10	0.048889	-22.926	5.20873	6.68851
 479	1	10	0.055177	-23.8934	5.93973	7.97364
 480	1	10	0.04962	-23.8663	6.67076	6.34746
 481	1	1	0.438909	-26.096	-16.4098	0.0342851
 482	1	1	0.108796	-26.4999	-15.3589	-0.745971
 483	1	2	-0.726889	-25.1633	-17.1592	-0.58157
 484	1	3	-0.675747	-25.8453	-15.4558	-1.93671
 485	1	1	-0.43042	-24.7829	-6.28665	6.0418
 486	1	4	0.62373	-24.9786	-16.5432	-1.76235
 487	1	1	0.00157	-26.3491	-8.32296	4.92111
 488	1	5	0.178696	-29.6305	-10.0357	1.20719
 489	1	2	-0.592725	-28.0797	-9.20535	3.35449
 490	1	6	-0.000174	-27.5952	-14.3102	1.13193
 491	1	5	0.1602	-26.5942	-13.3296	3.43638
 492	1	4	0.461284	-27.1056	-9.40097	4.26108
 493	1	1	-0.167191	-27.2603	-15.4601	1.90787
 494	1	5	0.164364	-27.3997	-13.3951	-0.842994
 495	1	1	-0.325009	-26.5041	-16.5201	1.36246
 496	1	8	0.422373	-25.8268	-14.7878	-2.6858
 497	1	1	-0.217421	-27.2334	-14.2822	-0.241406
 498	1	5	0.173851	-27.5271	-6.73764	4.07045
 499	1	5	0.197073	-24.2008	-5.47986	6.47808
 500	1	6	0.024852	-28.0158	-13.0465	1.80453
 501	1	1	0.048807	-27.499	-11.3749	3.46153
 502	1	1	0.060532	-24.4168	-7.62403	6.28854
 503	1	5	0.140008	-29.3946	-12.3633	0.267466
 504	1	5	0.202663	-26.1559	-17.351	1.96565
 505	1	1	-0.222969	-27.3284	-12.6709	2.98469
 506	1	1	0.35235	-28.2826	-10.4405	2.84161
 507	1	1	0.269742	-25.9035	-5.93819	5.2594
 508	1	1	-0.166682	-28.8841	-12.0957	1.18908
 509	1	1	-0.277787	-29.0313	-10.7867	1.71104
 510	1	1	-0.312482	-26.6742	-6.9733	4.69875
 511	1	9	0.442075	-23.1725	-7.95161	7.16244
 512	1	5	0.128262	-24.9913	-9.66695	5.90913
 513	1	3	-0.434358	-26.7747	-10.7442	4.41646
 514	1	8	0.354457	-26.0377	-11.121	4.9831
 515	1	1	-0.233188	-25.2366	-8.62848	5.73374
 516	1	5	0.143867	-27.5154	-15.4811	2.96473
 517	1	9	-0.2502	-23.5099	-7.685	8.64639
 518	1	9	-0.249785	-21.9597	-7.07477	6.75524
 519	1	9	-0.32829	-22.7095	-9.427	7.03659
 520	1	10	0.056572	-21.0598	-7.36094	7.31352
 521	1	10	0.044267	-22.1353	-6.01196	6.95654
 522	1	10	0.051935	-21.7439	-7.18691	5.68527
 523	1	10	0.069302	-23.4587	-10.1184	7.43989
 524	1	10	0.077707	-21.7821	-9.59576	7.59802
 525	1	10	0.059383	-22.5168	-9.68825	5.98824
 526	1	10	0.048889	-24.348	-8.3142	8.97153
 527	1	10	0.055177	-23.7979	-6.63775	8.80044
 528	1	10	0.04962	-22.6505	-7.89958	9.29365
 529	1	1	0.438909	-19.2329	-11.9499	-13.1098
 530	1	1	0.108796	-19.9042	-11.1991	-12.1854
 531	1	2	-0.726889	-18.4209	-11.1801	-13.8732
 532	1	3	-0.675747	-19.5217	-9.90965	-12.3364
 533	1	1	-0.43042	-22.9084	-17.8471	-2.3604
 534	1	4	0.62373	-18.5593	-9.9451	-13.3506
 535	1	1	0.00157	-22.7219	-16.546	-4.84239
 536	1	5	0.178696	-24.5535	-13.0168	-8.22425
 537	1	2	-0.592725	-23.5533	-14.9433	-6.53382
 538	1	6	-0.000174	-20.8621	-13.1464	-11.136
 539	1	5	0.1602	-20.2181	-15.2402	-9.42193
 540	1	4	0.461284	-22.642	-15.8461	-6.13987
 541	1	1	-0.167191	-20.1632	-13.9408	-12.0952
 542	1	5	0.164364	-21.1887	-11.0982	-10.4557
 543	1	1	-0.325009	-19.3519	-13.3445	-13.0968
 544	1	8	0.422373	-19.7951	-9.1178	-11.7876
 545	1	1	-0.217421	-20.7202	-11.7381	-11.1955
 546	1	5	0.173851	-24.5319	-15.5402	-4.25844
 547	1	5	0.197073	-22.9881	-18.3072	-1.37984
 548	1	6	0.024852	-21.6755	-13.7265	-10.0243
 549	1	1	0.048807	-21.9154	-15.1305	-8.07054
 550	1	1	0.060532	-21.8119	-18.1455	-3.19767
 551	1	5	0.140008	-23.3018	-12.3069	-10.2836
 552	1	5	0.202663	-18.7975	-13.9363	-13.8168
 553	1	1	-0.222969	-21.176	-14.778	-9.20825
 554	1	1	0.35235	-23.0854	-14.5103	-7.72013
 555	1	1	0.269742	-23.8944	-16.9043	-2.71225
 556	1	1	-0.166682	-22.9128	-13.1136	-9.66755
 557	1	1	-0.277787	-23.6293	-13.5034	-8.51691
 558	1	1	-0.312482	-23.7822	-16.2655	-3.95986
 559	1	9	0.442075	-20.6896	-19.1052	-2.70821
 560	1	5	0.128262	-20.9086	-17.6648	-5.10692
 561	1	3	-0.434358	-21.6123	-16.0106	-7.07263
 562	1	8	0.354457	-20.8178	-16.6189	-6.99891
 563	1	1	-0.233188	-21.7408	-17.4763	-4.44156
 564	1	5	0.143867	-20.2548	-15.0237	-12.0534
 565	1	9	-0.2502	-19.7542	-18.3323	-1.74988
 566	1	9	-0.249785	-19.8306	-19.6728	-3.8683
 567	1	9	-0.32829	-21.2714	-20.3244	-1.94726
 568	1	10	0.056572	-20.4647	-20.1652	-4.6162
 569	1	10	0.044267	-19.111	-20.4142	-3.49855
 570	1	10	0.051935	-19.2498	-18.8858	-4.36311
 571	1	10	0.069302	-22.0333	-20.8307	-2.5527
 572	1	10	0.077707	-21.7302	-20.0308	-0.996423
 573	1	10	0.059383	-20.4879	-21.054	-1.70796
 574	1	10	0.048889	-18.9511	-18.9776	-1.37241
 575	1	10	0.055177	-20.3116	-17.9455	-0.887419
 576	1	10	0.04962	-19.2939	-17.4773	-2.2608
 577	1	1	0.438909	-7.90279	-11.5242	-14.1328
 578	1	1	0.108796	-9.08783	-12.0398	-14.5718
 579	1	2	-0.726889	-7.27569	-12.3978	-13.3107
 580	1	3	-0.675747	-9.27319	-13.2509	-14.0027
 581	1	1	-0.43042	-17.706	-7.66011	-12.7835
 582	1	4	0.62373	-8.11151	-13.4564	-13.2577
 583	1	1	0.00157	-15.7629	-7.77923	-14.8012
 584	1	5	0.178696	-13.3325	-10.4933	-18.4566
 585	1	2	-0.592725	-14.6261	-8.77474	-16.7796
 586	1	6	-0.000174	-9.57912	-10.0838	-15.8822
 587	1	5	0.1602	-10.747	-7.72424	-15.207
 588	1	4	0.461284	-14.6624	-7.89028	-15.7739
 589	1	1	-0.167191	-8.35897	-9.51447	-15.4078
 590	1	5	0.164364	-10.8947	-11.8177	-15.7104
 591	1	1	-0.325009	-7.50019	-10.2457	-14.5423
 592	1	8	0.422373	-9.97479	-13.9275	-14.2311
 593	1	1	-0.217421	-9.94162	-11.3771	-15.437
 594	1	5	0.173851	-16.698	-9.65159	-15.3567
 595	1	5	0.197073	-18.4147	-7.64036	-11.9674
 596	1	6	0.024852	-10.6291	-9.35314	-16.6443
 597	1	1	0.048807	-12.573	-7.9596	-16.3401
 598	1	1	0.060532	-16.7473	-6.63026	-12.857
 599	1	5	0.140008	-10.9099	-10.9662	-18.0708
 600	1	5	0.202663	-6.56317	-9.83684	-14.1816
 601	1	1	-0.222969	-11.2308	-8.22033	-16.0422
 602	1	1	0.35235	-13.3215	-8.80847	-17.1172
 603	1	1	0.269742	-17.6867	-8.77741	-13.6499
 604	1	1	-0.166682	-11.3549	-10.0738	-17.6373
 605	1	1	-0.277787	-12.7206	-9.81656	-17.8697
 606	1	1	-0.312482	-16.7389	-8.79097	-14.6908
 607	1	9	0.442075	-16.7218	-5.51398	-11.7759
 608	1	5	0.128262	-14.9941	-5.9731	-13.9347
 609	1	3	-0.434358	-13.4424	-7.24286	-15.5786
 610	1	8	0.354457	-13.214	-6.65942	-14.7955
 611	1	1	-0.233188	-15.7658	-6.72861	-13.8627
 612	1	5	0.143867	-8.09037	-8.50542	-15.7123
 613	1	9	-0.2502	-15.7584	-4.34841	-12.1166
 614	1	9	-0.249785	-16.2653	-6.12871	-10.4316
 615	1	9	-0.32829	-18.13	-4.89638	-11.588
 616	1	10	0.056572	-16.949	-6.92119	-10.1039
 617	1	10	0.044267	-16.226	-5.3695	-9.64054
 618	1	10	0.051935	-15.2653	-6.57022	-10.5284
 619	1	10	0.069302	-18.8494	-5.62453	-11.1985
 620	1	10	0.077707	-18.5129	-4.51668	-12.5434
 621	1	10	0.059383	-18.1013	-4.06034	-10.8781
 622	1	10	0.048889	-14.7158	-4.68728	-12.1522
 623	1	10	0.055177	-15.8136	-3.55984	-11.3557
 624	1	10	0.04962	-16.0145	-3.8985	-13.0841
 625	1	1	0.438909	-16.1762	-22.4687	-9.32936
 626	1	1	0.108796	-15.8343	-21.141	-9.25094
 627	1	2	-0.726889	-16.4355	-22.9824	-8.10409
 628	1	3	-0.675747	-15.9755	-20.7609	-7.95805
 629	1	1	-0.43042	-6.59633	-15.0109	-11.9688
 630	1	4	0.62373	-16.0509	-21.9851	-7.28844
 631	1	1	0.00157	-8.52064	-17.0647	-12.1191
 632	1	5	0.178696	-9.82155	-22.0849	-11.5724
 633	1	2	-0.592725	-9.21874	-19.4377	-11.9713
 634	1	6	-0.000174	-14.406	-21.3277	-11.1916
 635	1	5	0.1602	-13.5815	-18.8188	-12.1194
 636	1	4	0.461284	-9.52277	-18.1491	-12.1768
 637	1	1	-0.167191	-14.9072	-22.6514	-11.3713
 638	1	5	0.164364	-14.4846	-19.5935	-9.88776