pySIMM System Object

962 atoms
1061 bonds
1840 angles
2816 dihedrals
240 impropers

10 atom types
14 bond types
23 angle types
11 dihedral types
3 improper types

-142.202660 142.202660 xlo xhi
-142.202660 142.202660 ylo yhi
-142.202660 142.202660 zlo zhi

Masses

   1	12.01	# ca
   2	14.01	# nc
   3	14.01	# na
   4	12.01	# cd
   5	1.008	# ha
   6	12.01	# cp
   7	1.008	# h5
   8	1.008	# hn
   9	12.01	# c3
  10	1.008	# hc

Pair Coeffs

   1	0.086	3.3996695084235347	# ca
   2	0.17	3.249998523775958	# nc
   3	0.17	3.249998523775958	# na
   4	0.086	3.3996695084235347	# cd
   5	0.015	2.59964245953351	# ha
   6	0.086	3.3996695084235347	# cp
   7	0.015	2.421462715905442	# h5
   8	0.0157	1.069078461768407	# hn
   9	0.1094	3.3996695084235347	# c3
  10	0.0157	2.649532787749369	# hc

Bond Coeffs

   1	425.8	1.3802	# cd,na
   2	467.7	1.3517	# ca,nc
   3	345.8	1.086	# ca,ha
   4	351.8	1.0818	# cd,h5
   5	385.1	1.4555	# ca,cd
   6	351.4	1.4854	# cp,cp
   7	321.0	1.5156	# c3,ca
   8	525.4	1.3172	# cd,nc
   9	300.9	1.5375	# c3,c3
  10	330.6	1.0969	# c3,hc
  11	450.2	1.4058	# ca,cp
  12	420.5	1.384	# ca,na
  13	408.4	1.01	# hn,na
  14	461.1	1.3984	# ca,ca

Angle Coeffs

   1	66.72	118.38	# ca,cp,ca
   2	62.86	111.51	# c3,c3,c3
   3	66.26	120.69	# ca,ca,cp
   4	63.15	112.07	# c3,c3,ca
   5	67.4	113.15	# ca,na,cd
   6	46.34	109.8	# c3,c3,hc
   7	66.28	123.45	# ca,cd,na
   8	48.18	119.88	# ca,ca,ha
   9	67.6	123.24	# ca,cd,nc
  10	64.05	121.11	# ca,cp,cp
  11	46.75	125.5	# cd,na,hn
  12	66.62	120.02	# ca,ca,ca
  13	72.48	104.88	# ca,nc,cd
  14	74.9	112.22	# na,cd,nc
  15	46.63	125.54	# ca,na,hn
  16	65.02	120.79	# ca,ca,cd
  17	69.46	119.72	# ca,ca,nc
  18	47.98	119.86	# cp,ca,ha
  19	39.4	107.58	# hc,c3,hc
  20	63.53	120.77	# c3,ca,ca
  21	69.08	118.34	# ca,ca,na
  22	49.58	121.55	# h5,cd,na
  23	50.58	125.52	# h5,cd,nc

Dihedral Coeffs

   1	1	4.0	2	180	# X,ca,cd,X
   2	1	3.625	2	180	# X,ca,cp,X
   3	1	4.75	2	180	# X,cd,nc,X
   4	1	0.3	2	180	# X,ca,na,X
   5	1	3.625	2	180	# X,ca,ca,X
   6	1	1.7	2	180	# X,cd,na,X
   7	1	1.0	2	180	# X,cp,cp,X
   8	1	0.16	3	0	# hc,c3,c3,c3
   9	1	0.15555555555555556	3	0	# X,c3,c3,X
  10	1	0.0	2	0	# X,c3,ca,X
  11	1	4.8	2	180	# X,ca,nc,X

Improper Coeffs

   1	1.1	-1	2	# na,X,X,hn
   2	1.1	-1	2	# ca,ca,ca,c3
   3	1.1	-1	2	# ca,X,X,ha

Atoms

   1	1	1	0.438909	-4.45207	-21.7754	-11.2401
   2	1	1	0.108796	-3.95851	-22.7915	-10.4744
   3	1	2	-0.726889	-5.27464	-20.9722	-10.5325
   4	1	3	-0.675747	-4.46349	-22.6466	-9.21962
   5	1	1	-0.43042	0.952262	-30.0405	-19.578
   6	1	4	0.62373	-5.31882	-21.5404	-9.31355
   7	1	1	0.00157	0.113105	-28.5384	-17.3421
   8	1	5	0.178696	-1.03248	-28.2343	-12.2554
   9	1	2	-0.592725	-0.399605	-28.2931	-14.9303
  10	1	6	-0.000174	-2.88442	-23.8535	-12.3826
  11	1	5	0.1602	-1.98003	-24.191	-15.0437
  12	1	4	0.461284	-0.348581	-27.7744	-16.1668
  13	1	1	-0.167191	-3.38047	-22.7575	-13.1643
  14	1	5	0.164364	-2.85192	-24.6082	-10.3117
  15	1	1	-0.325009	-4.15867	-21.7166	-12.6008
  16	1	8	0.422373	-4.33098	-23.2433	-8.42665
  17	1	1	-0.217421	-3.18026	-23.8314	-10.986
  18	1	5	0.173851	0.530523	-30.3433	-16.2189
  19	1	5	0.197073	1.28229	-30.6578	-20.405
  20	1	6	0.024852	-2.1521	-25.0241	-13.0127
  21	1	1	0.048807	-1.18985	-26.184	-14.9285
  22	1	1	0.060532	0.537885	-28.7027	-19.7731
  23	1	5	0.140008	-2.11251	-26.2742	-11.2096
  24	1	5	0.202663	-4.57108	-20.9139	-13.2025
  25	1	1	-0.222969	-1.7899	-25.0351	-14.3952
  26	1	1	0.35235	-0.926578	-27.3009	-14.1876
  27	1	1	0.269742	0.951562	-30.6182	-18.3037
  28	1	1	-0.166682	-1.84955	-26.2042	-12.2563
  29	1	1	-0.277787	-1.23713	-27.3382	-12.8316
  30	1	1	-0.312482	0.53323	-29.8745	-17.199
  31	1	9	0.442075	0.519748	-28.027	-21.1724
  32	1	5	0.128262	-0.18128	-26.9393	-18.7586
  33	1	3	-0.434358	-0.812581	-26.4551	-16.2118
  34	1	8	0.354457	-0.890782	-25.8695	-17.0229
  35	1	1	-0.233188	0.13116	-27.9695	-18.6344
  36	1	5	0.143867	-3.20311	-22.7226	-14.2323
  37	1	9	-0.2502	-0.895461	-27.48	-21.4835
  38	1	9	-0.249785	0.898797	-28.9928	-22.3255
  39	1	9	-0.32829	1.52767	-26.8544	-21.2008
  40	1	10	0.056572	0.20742	-29.8438	-22.3686
  41	1	10	0.044267	1.91864	-29.3781	-22.2025
  42	1	10	0.051935	0.856246	-28.4825	-23.2957
  43	1	10	0.069302	1.26786	-26.0856	-20.464
  44	1	10	0.077707	1.55153	-26.3786	-22.1887
  45	1	10	0.059383	2.53937	-27.2118	-20.9713
  46	1	10	0.048889	-1.63789	-28.2868	-21.4407
  47	1	10	0.055177	-0.935061	-27.0362	-22.4858
  48	1	10	0.04962	-1.1981	-26.7058	-20.7695
  49	1	1	0.438909	-16.2034	-13.7048	-7.19418
  50	1	1	0.108796	-15.7696	-13.9798	-8.46095
  51	1	2	-0.726889	-17.4532	-13.1899	-7.19992
  52	1	3	-0.675747	-16.7562	-13.6301	-9.32334
  53	1	1	-0.43042	-6.32198	-21.861	-7.01835
  54	1	4	0.62373	-17.7848	-13.1491	-8.50435
  55	1	1	0.00157	-8.03675	-19.6652	-7.38915
  56	1	5	0.178696	-9.93256	-15.8297	-10.3914
  57	1	2	-0.592725	-8.95304	-17.7854	-8.72092
  58	1	6	-0.000174	-13.6726	-14.8717	-7.66049
  59	1	5	0.1602	-12.3601	-16.7644	-6.10491
  60	1	4	0.461284	-8.97047	-18.5451	-7.61573
  61	1	1	-0.167191	-14.1186	-14.5685	-6.33693
  62	1	5	0.164364	-14.2625	-14.7951	-9.76744
  63	1	1	-0.325009	-15.3865	-13.9825	-6.09577
  64	1	8	0.422373	-16.7608	-13.7097	-10.3214
  65	1	1	-0.217421	-14.534	-14.5584	-8.74533
  66	1	5	0.173851	-7.04556	-19.4416	-9.29724
  67	1	5	0.197073	-5.69384	-22.7329	-6.90167
  68	1	6	0.024852	-12.3609	-15.5486	-7.92451
  69	1	1	0.048807	-10.6604	-17.1842	-7.38145
  70	1	1	0.060532	-7.24558	-21.5424	-5.9982
  71	1	5	0.140008	-12.0152	-14.5487	-9.83036
  72	1	5	0.202663	-15.7367	-13.7532	-5.09552
  73	1	1	-0.222969	-11.8368	-16.5149	-7.02148
  74	1	1	0.35235	-10.0038	-16.9581	-8.56075
  75	1	1	0.269742	-6.23467	-21.1185	-8.21799
  76	1	1	-0.166682	-11.6449	-15.2956	-9.13434
  77	1	1	-0.277787	-10.4651	-15.9987	-9.46139
  78	1	1	-0.312482	-7.09105	-20.0144	-8.37228
  79	1	9	0.442075	-7.36602	-22.4466	-4.73764
  80	1	5	0.128262	-8.84396	-20.1823	-5.46926
  81	1	3	-0.434358	-10.001	-18.1895	-6.73857
  82	1	8	0.354457	-10.2343	-18.6291	-5.86747
  83	1	1	-0.233188	-8.10122	-20.4396	-6.213
  84	1	5	0.143867	-13.4684	-14.7854	-5.49369
  85	1	9	-0.2502	-8.15965	-21.7826	-3.58241
  86	1	9	-0.249785	-5.96951	-22.8125	-4.17034
  87	1	9	-0.32829	-8.09649	-23.7525	-5.12498
  88	1	10	0.056572	-6.06198	-23.3824	-3.23715
  89	1	10	0.044267	-5.38798	-21.907	-3.95656
  90	1	10	0.051935	-5.39284	-23.4338	-4.86406
  91	1	10	0.069302	-7.55028	-24.2925	-5.9078
  92	1	10	0.077707	-9.10003	-23.5324	-5.51043
  93	1	10	0.059383	-8.20223	-24.4208	-4.26131
  94	1	10	0.048889	-9.21337	-21.6382	-3.84972
  95	1	10	0.055177	-7.72702	-20.8087	-3.3209
  96	1	10	0.04962	-8.14179	-22.4092	-2.68168
  97	1	1	0.438909	-27.8162	-5.06652	-5.2878
  98	1	1	0.108796	-27.6101	-5.91582	-4.23618
  99	1	2	-0.726889	-28.0716	-3.81087	-4.86921
 100	1	3	-0.675747	-27.7955	-5.20954	-3.09108
 101	1	1	-0.43042	-19.301	-12.6371	-10.4445
 102	1	4	0.62373	-27.9276	-3.888	-3.5346
 103	1	1	0.00157	-21.3348	-11.7375	-8.72853
 104	1	5	0.178696	-23.0317	-10.2845	-4.00829
 105	1	2	-0.592725	-22.2827	-11.17	-6.50304
 106	1	6	-0.000174	-26.5231	-7.54814	-5.65814
 107	1	5	0.1602	-25.7767	-8.9408	-7.97539
 108	1	4	0.461284	-22.3883	-11.2146	-7.83923
 109	1	1	-0.167191	-26.8561	-6.70349	-6.76599
 110	1	5	0.164364	-26.7447	-7.72504	-3.48192
 111	1	1	-0.325009	-27.5077	-5.46063	-6.58807
 112	1	8	0.422373	-27.5551	-5.49733	-2.16291
 113	1	1	-0.217421	-26.9734	-7.14909	-4.36856
 114	1	5	0.173851	-19.9533	-12.2068	-7.12995
 115	1	5	0.197073	-18.5121	-12.9876	-11.0931
 116	1	6	0.024852	-25.5409	-8.68269	-5.80882
 117	1	1	0.048807	-24.1492	-10.1113	-7.18774
 118	1	1	0.060532	-20.5063	-12.1693	-11.0105
 119	1	5	0.140008	-24.9096	-8.6929	-3.71118
 120	1	5	0.202663	-27.6394	-4.7596	-7.40495
 121	1	1	-0.222969	-25.232	-9.23164	-7.08588
 122	1	1	0.35235	-23.3698	-10.4699	-6.12311
 123	1	1	0.269742	-19.0806	-12.661	-9.04833
 124	1	1	-0.166682	-24.7498	-9.11581	-4.69547
 125	1	1	-0.277787	-23.6704	-10.0134	-4.84236
 126	1	1	-0.312482	-20.1127	-12.2065	-8.20725
 127	1	9	0.442075	-20.7518	-12.1505	-12.5459
 128	1	5	0.128262	-22.4588	-11.399	-10.5338
 129	1	3	-0.434358	-23.5657	-10.6223	-8.30533
 130	1	8	0.354457	-23.82	-10.4637	-9.26213
 131	1	1	-0.233188	-21.5144	-11.7372	-10.1263
 132	1	5	0.143867	-26.5008	-6.94689	-7.76135
 133	1	9	-0.2502	-21.3797	-10.8059	-12.9959
 134	1	9	-0.249785	-21.7082	-13.304	-12.9214
 135	1	9	-0.32829	-19.4485	-12.3268	-13.3693
 136	1	10	0.056572	-21.8994	-13.3238	-14.0014
 137	1	10	0.044267	-22.6718	-13.2011	-12.4075
 138	1	10	0.051935	-21.277	-14.2714	-12.634
 139	1	10	0.069302	-18.7074	-11.5654	-13.0942
 140	1	10	0.077707	-19.6463	-12.227	-14.4437
 141	1	10	0.059383	-19.0074	-13.319	-13.216
 142	1	10	0.048889	-21.4626	-10.7558	-14.0889
 143	1	10	0.055177	-20.7618	-9.96136	-12.6658
 144	1	10	0.04962	-22.3892	-10.6684	-12.5934
 145	1	1	0.438909	-22.0359	8.09277	-4.26939
 146	1	1	0.108796	-23.2391	8.18913	-4.91559
 147	1	2	-0.726889	-21.3834	9.2708	-4.25204
 148	1	3	-0.675747	-23.376	9.4753	-5.33924
 149	1	1	-0.43042	-27.2972	-2.91236	-1.30262
 150	1	4	0.62373	-22.2052	10.1124	-4.90279
 151	1	1	0.00157	-27.0483	-0.351171	-2.44132
 152	1	5	0.178696	-26.6712	2.83077	-6.61878
 153	1	2	-0.592725	-26.9902	1.25867	-4.35246
 154	1	6	-0.000174	-23.7592	5.88003	-4.45469
 155	1	5	0.1602	-24.3989	4.22484	-2.37415
 156	1	4	0.461284	-26.7487	0.950468	-3.06684
 157	1	1	-0.167191	-22.4971	5.78123	-3.79536
 158	1	5	0.164364	-25.0891	7.23948	-5.53049
 159	1	1	-0.325009	-21.6229	6.88752	-3.70307
 160	1	8	0.422373	-24.1669	9.89859	-5.78445
 161	1	1	-0.217421	-24.1295	7.11908	-5.03989
 162	1	5	0.173851	-27.7892	-1.26755	-4.25025
 163	1	5	0.197073	-27.3473	-3.91125	-0.894019
 164	1	6	0.024852	-24.6873	4.71171	-4.4825
 165	1	1	0.048807	-25.7401	2.84946	-3.37099
 166	1	1	0.060532	-26.7939	-1.86052	-0.506206
 167	1	5	0.140008	-25.2063	4.88424	-6.58716
 168	1	5	0.202663	-20.6627	6.82829	-3.20256
 169	1	1	-0.222969	-24.8913	3.95426	-3.30224
 170	1	1	0.35235	-26.3494	2.43615	-4.52398
 171	1	1	0.269742	-27.655	-2.7186	-2.65817
 172	1	1	-0.166682	-25.3677	4.3186	-5.67329
 173	1	1	-0.277787	-26.1942	3.16918	-5.70502
 174	1	1	-0.312482	-27.5645	-1.42036	-3.19571
 175	1	9	0.442075	-26.2243	-2.07739	0.924237
 176	1	5	0.128262	-26.2714	0.220426	-0.513202
 177	1	3	-0.434358	-26.0353	1.94792	-2.4015
 178	1	8	0.354457	-25.6699	1.90362	-1.46904
 179	1	1	-0.233188	-26.6904	-0.588367	-1.09926
 180	1	5	0.143867	-22.1984	4.83054	-3.36014
 181	1	9	-0.2502	-26.4052	-3.52633	1.44571
 182	1	9	-0.249785	-26.9097	-1.13037	1.93831
 183	1	9	-0.32829	-24.7035	-1.78527	0.915307
 184	1	10	0.056572	-26.5185	-1.29152	2.95078
 185	1	10	0.044267	-27.9924	-1.30595	1.96135
 186	1	10	0.051935	-26.7433	-0.0767868	1.68684
 187	1	10	0.069302	-24.1925	-2.4309	0.189404
 188	1	10	0.077707	-24.2588	-1.96619	1.90151
 189	1	10	0.059383	-24.493	-0.744699	0.641796
 190	1	10	0.048889	-26.0057	-3.62903	2.46272
 191	1	10	0.055177	-25.8701	-4.24504	0.812449
 192	1	10	0.04962	-27.4657	-3.80539	1.47596
 193	1	1	0.438909	-12.4052	18.4354	-0.931734
 194	1	1	0.108796	-12.5796	18.062	-2.23927
 195	1	2	-0.726889	-11.0978	18.4915	-0.601924
 196	1	3	-0.675747	-11.3458	17.9414	-2.79876
 197	1	1	-0.43042	-22.7955	12.374	-5.85914
 198	1	4	0.62373	-10.4661	18.0868	-1.71763
 199	1	1	0.00157	-20.4521	13.5066	-4.7919
 200	1	5	0.178696	-16.7702	13.2085	-1.15327
 201	1	2	-0.592725	-18.5915	13.4346	-3.18366
 202	1	6	-0.000174	-14.8655	17.4138	-1.81525
 203	1	5	0.1602	-16.92	17.4992	-3.76031
 204	1	4	0.461284	-19.2703	14.0958	-4.12991
 205	1	1	-0.167191	-14.7133	17.9179	-0.490476
 206	1	5	0.164364	-13.8254	17.0552	-3.69388
 207	1	1	-0.325009	-13.4789	18.4401	-0.0397308
 208	1	8	0.422373	-11.126	17.4995	-3.67018
 209	1	1	-0.217421	-13.7791	17.5279	-2.71884
 210	1	5	0.173851	-20.0873	11.5303	-3.99411
 211	1	5	0.197073	-23.7014	11.9386	-6.26053
 212	1	6	0.024852	-15.9459	16.4323	-2.11625
 213	1	1	0.048807	-17.7625	15.5167	-3.42333
 214	1	1	0.060532	-22.5359	13.7433	-6.08529
 215	1	5	0.140008	-15.1952	15.0865	-0.587731
 216	1	5	0.202663	-13.3108	18.6935	1.00123
 217	1	1	-0.222969	-16.8872	16.5875	-3.17266
 218	1	1	0.35235	-17.6977	14.3319	-2.73717
 219	1	1	0.269742	-21.914	11.5534	-5.125
 220	1	1	-0.166682	-15.9286	15.2137	-1.38069
 221	1	1	-0.277787	-16.7942	14.1487	-1.6934
 222	1	1	-0.312482	-20.7594	12.1468	-4.58889
 223	1	9	0.442075	-23.592	14.6	-6.83718
 224	1	5	0.128262	-21.1005	15.3306	-5.71886
 225	1	3	-0.434358	-18.7816	15.3952	-4.32876
 226	1	8	0.354457	-19.1255	16.0801	-4.97637
 227	1	1	-0.233188	-21.3313	14.2825	-5.57437
 228	1	5	0.143867	-15.5246	17.7793	0.220981
 229	1	9	-0.2502	-24.9584	14.5041	-6.11102
 230	1	9	-0.249785	-23.7601	14.0803	-8.28469
 231	1	9	-0.32829	-23.2267	16.1031	-6.91451
 232	1	10	0.056572	-24.4966	14.679	-8.83501
 233	1	10	0.044267	-24.1012	13.0383	-8.30044
 234	1	10	0.051935	-22.8075	14.1304	-8.82639
 235	1	10	0.069302	-23.1208	16.5324	-5.91018
 236	1	10	0.077707	-24.0098	16.6689	-7.43451
 237	1	10	0.059383	-22.2895	16.2559	-7.46331
 238	1	10	0.048889	-25.7088	15.1442	-6.59141
 239	1	10	0.055177	-24.8625	14.8215	-5.06488
 240	1	10	0.04962	-25.3518	13.4811	-6.1155
 241	1	1	0.438909	-4.7673	10.6409	6.54107
 242	1	1	0.108796	-5.90655	11.3155	6.20307
 243	1	2	-0.726889	-5.05998	9.42028	7.06206
 244	1	3	-0.675747	-6.96181	10.5235	6.46713
 245	1	1	-0.43042	-8.52637	17.0909	-2.97097
 246	1	4	0.62373	-6.39947	9.33277	6.92512
 247	1	1	0.00157	-7.09609	16.7077	-0.580882
 248	1	5	0.178696	-6.6577	17.2674	4.58326
 249	1	2	-0.592725	-6.70145	17.019	1.85108
 250	1	6	-0.000174	-4.69462	13.1096	5.16731
 251	1	5	0.1602	-4.25501	13.4196	2.46381
 252	1	4	0.461284	-6.39835	16.4219	0.689895
 253	1	1	-0.167191	-3.4877	12.4225	5.49972
 254	1	5	0.164364	-6.86518	12.9956	5.25428
 255	1	1	-0.325009	-3.51886	11.1869	6.2076
 256	1	8	0.422373	-7.93483	10.7239	6.33886
 257	1	1	-0.217421	-5.92651	12.5309	5.5385
 258	1	5	0.173851	-8.70615	17.8098	0.35137
 259	1	5	0.197073	-9.08565	17.25	-3.88155
 260	1	6	0.024852	-4.79915	14.3559	4.35864
 261	1	1	0.048807	-5.24247	15.3354	2.1912
 262	1	1	0.060532	-7.30176	16.3884	-3.01976
 263	1	5	0.140008	-5.61721	15.4875	6.01897
 264	1	5	0.202663	-2.61526	10.633	6.43696
 265	1	1	-0.222969	-4.66483	14.3023	2.94471
 266	1	1	0.35235	-5.97426	16.3437	2.76256
 267	1	1	0.269742	-9.06518	17.5844	-1.76169
 268	1	1	-0.166682	-5.46201	15.473	4.9427
 269	1	1	-0.277787	-6.05665	16.4756	4.14881
 270	1	1	-0.312482	-8.29643	17.4474	-0.590135
 271	1	9	0.442075	-6.70332	15.8746	-4.36231
 272	1	5	0.128262	-5.68416	15.6415	-1.79785
 273	1	3	-0.434358	-5.44259	15.4105	0.842498
 274	1	8	0.354457	-5.15994	14.7497	0.142267
 275	1	1	-0.233188	-6.62295	16.181	-1.79952
 276	1	5	0.143867	-2.5352	12.8459	5.18966
 277	1	9	-0.2502	-6.03568	14.4833	-4.20568
 278	1	9	-0.249785	-5.64277	16.8838	-4.85468
 279	1	9	-0.32829	-7.77329	15.7224	-5.47701
 280	1	10	0.056572	-5.19867	16.562	-5.80474
 281	1	10	0.044267	-4.83529	16.9926	-4.11994
 282	1	10	0.051935	-6.09208	17.8735	-5.00653
 283	1	10	0.069302	-8.59971	15.0845	-5.13898
 284	1	10	0.077707	-7.34287	15.2639	-6.37597
 285	1	10	0.059383	-8.18096	16.6932	-5.78268
 286	1	10	0.048889	-5.14399	14.5246	-3.57055
 287	1	10	0.055177	-5.71091	14.0917	-5.17781
 288	1	10	0.04962	-6.7383	13.7616	-3.77042
 289	1	1	0.438909	-12.6941	0.737872	14.0963
 290	1	1	0.108796	-11.6154	0.0140739	13.6638
 291	1	2	-0.726889	-13.6881	-0.0664697	14.5349
 292	1	3	-0.675747	-11.8965	-1.29635	13.8409
 293	1	1	-0.43042	-8.49578	8.09339	6.42683
 294	1	4	0.62373	-13.1654	-1.30171	14.433
 295	1	1	0.00157	-7.70494	5.86676	7.92093
 296	1	5	0.178696	-6.49538	4.69314	12.7895
 297	1	2	-0.592725	-6.77562	4.95654	10.0417
 298	1	6	-0.000174	-10.3796	1.9933	13.111
 299	1	5	0.1602	-10.1208	2.14478	10.4596
 300	1	4	0.461284	-7.51508	4.8088	8.92936
 301	1	1	-0.167191	-11.4846	2.75928	13.5865
 302	1	5	0.164364	-9.64218	-0.0277376	12.7677
 303	1	1	-0.325009	-12.656	2.13395	14.08
 304	1	8	0.422373	-11.32	-2.08311	13.6174
 305	1	1	-0.217421	-10.4542	0.582916	13.148
 306	1	5	0.173851	-5.92776	7.01726	8.39702
 307	1	5	0.197073	-8.79904	8.96	5.8593
 308	1	6	0.024852	-9.25445	2.63873	12.3911
 309	1	1	0.048807	-8.3343	3.35262	10.2925
 310	1	1	0.060532	-9.31909	6.95379	6.40663
 311	1	5	0.140008	-8.18328	3.37385	14.1318
 312	1	5	0.202663	-13.5079	2.70149	14.438
 313	1	1	-0.222969	-9.29934	2.62571	10.9811
 314	1	1	0.35235	-7.3591	4.09218	10.9062
 315	1	1	0.269742	-7.23983	8.11739	7.07823
 316	1	1	-0.166682	-8.20485	3.34589	13.0451
 317	1	1	-0.277787	-7.2404	4.07321	12.3021
 318	1	1	-0.312482	-6.85331	6.98764	7.82483
 319	1	9	0.442075	-10.7017	6.94362	5.69435
 320	1	5	0.128262	-9.55875	4.99955	7.22809
 321	1	3	-0.434358	-8.37258	3.71311	8.99246
 322	1	8	0.354457	-9.08439	3.4868	8.32406
 323	1	1	-0.233188	-8.88881	5.84454	7.15153
 324	1	5	0.143867	-11.4365	3.84471	13.5297
 325	1	9	-0.2502	-10.8054	8.01375	4.57503
 326	1	9	-0.249785	-11.8026	7.23181	6.73985
 327	1	9	-0.32829	-10.9941	5.57601	5.02508
 328	1	10	0.056572	-12.796	7.25089	6.2748
 329	1	10	0.044267	-11.634	8.20294	7.22261
 330	1	10	0.051935	-11.8087	6.46598	7.52527
 331	1	10	0.069302	-11.1353	4.77919	5.7632
 332	1	10	0.077707	-10.1709	5.28894	4.35905
 333	1	10	0.059383	-11.9132	5.61887	4.4275
 334	1	10	0.048889	-11.7511	7.9212	4.02665
 335	1	10	0.055177	-9.98638	7.90223	3.85308
 336	1	10	0.04962	-10.7766	9.03118	4.98268
 337	1	1	0.438909	-4.5746	-8.69041	18.6091
 338	1	1	0.108796	-5.54836	-9.64374	18.7295
 339	1	2	-0.726889	-3.34229	-9.23593	18.6423
 340	1	3	-0.675747	-4.94117	-10.8509	18.8494
 341	1	1	-0.43042	-15.0918	-2.58324	15.4925
 342	1	4	0.62373	-3.57783	-10.5575	18.7461
 343	1	1	0.00157	-13.385	-4.77416	15.905
 344	1	5	0.178696	-11.9269	-8.65301	19.0914
 345	1	2	-0.592725	-12.6731	-6.76253	17.2164
 346	1	6	-0.000174	-7.29458	-8.03172	18.3464
 347	1	5	0.1602	-8.34686	-6.23748	16.5397
 348	1	4	0.461284	-12.4054	-5.7828	16.3398
 349	1	1	-0.167191	-6.27907	-7.03142	18.2436
 350	1	5	0.164364	-7.6388	-10.1695	18.6448
 351	1	1	-0.325009	-4.9085	-7.35516	18.3799
 352	1	8	0.422373	-5.36822	-11.7574	18.8667
 353	1	1	-0.217421	-6.90747	-9.3701	18.6065
 354	1	5	0.173851	-11.9299	-3.6206	14.8295
 355	1	5	0.197073	-15.7161	-1.7016	15.3711
 356	1	6	0.024852	-8.7331	-7.72259	18.0972
 357	1	1	0.048807	-10.4576	-6.57263	16.8731
 358	1	1	0.060532	-15.6067	-3.73786	16.129
 359	1	5	0.140008	-9.50476	-9.12399	19.5745
 360	1	5	0.202663	-4.12444	-6.61403	18.2705
 361	1	1	-0.222969	-9.09793	-6.77464	17.1088
 362	1	1	0.35235	-11.4505	-7.22063	17.5556
 363	1	1	0.269742	-13.7725	-2.53158	14.9997
 364	1	1	-0.166682	-9.76884	-8.41081	18.7988
 365	1	1	-0.277787	-11.135	-8.16166	18.5363
 366	1	1	-0.312482	-12.9575	-3.66605	15.157
 367	1	9	0.442075	-17.0809	-3.77561	16.6172
 368	1	5	0.128262	-15.0348	-5.68862	16.9059
 369	1	3	-0.434358	-11.0459	-5.68607	16.0348
 370	1	8	0.354457	-10.5977	-4.9801	15.4845
 371	1	1	-0.233188	-14.7186	-4.81506	16.3449
 372	1	5	0.143867	-6.56148	-6.0008	18.0437
 373	1	9	-0.2502	-18.0301	-3.60827	15.4067
 374	1	9	-0.249785	-17.3378	-2.63112	17.6263
 375	1	9	-0.32829	-17.4678	-5.10257	17.3202
 376	1	10	0.056572	-17.1829	-1.64782	17.1674
 377	1	10	0.044267	-16.6583	-2.71409	18.484
 378	1	10	0.051935	-18.367	-2.6631	18.0049
 379	1	10	0.069302	-17.3272	-5.95974	16.6497
 380	1	10	0.077707	-18.5202	-5.09281	17.6287
 381	1	10	0.059383	-16.8617	-5.26321	18.2209
 382	1	10	0.048889	-17.8742	-4.41646	14.6809
 383	1	10	0.055177	-17.8574	-2.65597	14.8917
 384	1	10	0.04962	-19.0807	-3.63307	15.7216
 385	1	1	0.438909	8.23551	-6.66201	18.888
 386	1	1	0.108796	7.04311	-6.38012	18.2804
 387	1	2	-0.726889	9.02907	-5.57892	18.9474
 388	1	3	-0.675747	7.04624	-5.05559	17.9538
 389	1	1	-0.43042	-2.84419	-12.9706	18.6776
 390	1	4	0.62373	8.31313	-4.60782	18.3554
 391	1	1	0.00157	-0.162547	-12.1861	18.3403
 392	1	5	0.178696	4.98341	-13.1928	17.8457
 393	1	2	-0.592725	2.2786	-12.6091	18.0357
 394	1	6	-0.000174	6.32604	-8.68403	18.4663
 395	1	5	0.1602	3.58138	-8.42804	18.5064
 396	1	4	0.461284	1.24427	-11.7681	18.2029
 397	1	1	-0.167191	7.56848	-8.96122	19.1131
 398	1	5	0.164364	5.14889	-7.09084	17.5273
 399	1	1	-0.325009	8.53301	-7.95119	19.3255
 400	1	8	0.422373	6.36665	-4.54672	17.4225
 401	1	1	-0.217421	6.06702	-7.34988	18.0411
 402	1	5	0.173851	-0.939089	-10.1674	18.4992
 403	1	5	0.197073	-3.87981	-13.2533	18.798
 404	1	6	0.024852	5.30165	-9.76053	18.2771
 405	1	1	0.048807	2.99836	-10.4839	18.2072
 406	1	1	0.060532	-1.85995	-13.9702	18.5044
 407	1	5	0.140008	6.72543	-11.3917	18.0284
 408	1	5	0.202663	9.48311	-8.14911	19.8096
 409	1	1	-0.222969	3.91909	-9.44252	18.3293
 410	1	1	0.35235	3.35621	-11.7945	18.0493
 411	1	1	0.269742	-2.52246	-11.5964	18.66
 412	1	1	-0.166682	5.67323	-11.1269	18.0858
 413	1	1	-0.277787	4.70446	-12.1518	17.9706
 414	1	1	-0.312482	-1.17709	-11.2257	18.5075
 415	1	9	0.442075	-2.21575	-15.4835	18.4542
 416	1	5	0.128262	0.255722	-14.2813	18.1539
 417	1	3	-0.434358	1.64437	-10.4339	18.2875
 418	1	8	0.354457	1.06039	-9.63727	18.4646
 419	1	1	-0.233188	-0.526516	-13.546	18.3173
 420	1	5	0.143867	7.77466	-9.96689	19.4699
 421	1	9	-0.2502	-1.22079	-16.3215	19.2957
 422	1	9	-0.249785	-2.17161	-15.9648	16.9864
 423	1	9	-0.32829	-3.63213	-15.7963	19.0081
 424	1	10	0.056572	-1.17001	-15.8306	16.5597
 425	1	10	0.044267	-2.87802	-15.3939	16.3704
 426	1	10	0.051935	-2.43412	-17.0272	16.9093
 427	1	10	0.069302	-4.41655	-15.3328	18.3985
 428	1	10	0.077707	-3.73254	-15.4442	20.0425
 429	1	10	0.059383	-3.82413	-16.8767	19.0037
 430	1	10	0.048889	-0.207519	-16.2925	18.8795
 431	1	10	0.055177	-1.52342	-17.3754	19.3302
 432	1	10	0.04962	-1.17645	-15.9478	20.3263
 433	1	1	0.438909	20.248	1.02499	16.5554
 434	1	1	0.108796	19.1808	1.83929	16.8179
 435	1	2	-0.726889	21.1683	1.64211	15.7985
 436	1	3	-0.675747	19.4341	3.05329	16.2505
 437	1	1	-0.43042	8.07915	-2.2374	17.4691
 438	1	4	0.62373	20.651	2.86332	15.5826
 439	1	1	0.00157	10.7949	-1.74987	18.0302
 440	1	5	0.178696	15.3985	-3.37809	19.9197
 441	1	2	-0.592725	12.9954	-2.42026	18.9568
 442	1	6	-0.000174	17.9451	0.00224631	17.791
 443	1	5	0.1602	15.3778	0.801581	17.1626
 444	1	4	0.461284	12.2318	-1.5464	18.2818
 445	1	1	-0.167191	19.0965	-0.815849	17.5766
 446	1	5	0.164364	17.1679	2.0407	17.5644
 447	1	1	-0.325009	20.2575	-0.3078	16.9566
 448	1	8	0.422373	18.839	3.86051	16.2151
 449	1	1	-0.217421	18.0116	1.37609	17.4226
 450	1	5	0.173851	10.7943	-3.72997	18.8765
 451	1	5	0.197073	7.03875	-2.44486	17.2599
 452	1	6	0.024852	16.6567	-0.60516	18.2538
 453	1	1	0.048807	14.2439	-0.736864	18.1543
 454	1	1	0.060532	8.63041	-0.97447	17.1404
 455	1	5	0.140008	17.5634	-2.22069	19.4062
 456	1	5	0.202663	21.112	-0.93466	16.7278
 457	1	1	-0.222969	15.4178	-0.0670234	17.8084
 458	1	1	0.35235	14.2343	-1.90215	18.869
 459	1	1	0.269742	8.85245	-3.24915	18.0843
 460	1	1	-0.166682	16.6321	-1.79311	19.0464
 461	1	1	-0.277787	15.4215	-2.45289	19.3536
 462	1	1	-0.312482	10.1896	-2.96056	18.3992
 463	1	9	0.442075	7.79256	0.177749	16.5148
 464	1	5	0.128262	10.461	0.167985	17.1081
 465	1	3	-0.434358	12.9609	-0.462232	17.7916
 466	1	8	0.354457	12.6254	0.272767	17.1978
 467	1	1	-0.233188	10.0055	-0.774194	17.3902
 468	1	5	0.143867	19.0615	-1.87398	17.8193
 469	1	9	-0.2502	8.2811	0.472475	15.0768
 470	1	9	-0.249785	7.93389	1.46543	17.3656
 471	1	9	-0.32829	6.27779	-0.142381	16.4352
 472	1	10	0.056572	8.96704	1.83007	17.385
 473	1	10	0.044267	7.62262	1.28029	18.4015
 474	1	10	0.051935	7.3102	2.27468	16.9654
 475	1	10	0.069302	6.0872	-1.00255	15.7823
 476	1	10	0.077707	5.71916	0.708816	16.026
 477	1	10	0.059383	5.86999	-0.35824	17.4309
 478	1	10	0.048889	7.70471	1.28992	14.625
 479	1	10	0.055177	8.1678	-0.413766	14.4402
 480	1	10	0.04962	9.33809	0.763419	15.0644
 481	1	1	0.438909	24.4087	14.7455	15.9432
 482	1	1	0.108796	24.4503	13.44	16.35
 483	1	2	-0.726889	25.6328	15.3238	16.0348
 484	1	3	-0.675747	25.706	13.1652	16.7631
 485	1	1	-0.43042	22.4309	3.48094	13.9405
 486	1	4	0.62373	26.434	14.2944	16.3778
 487	1	1	0.00157	21.4609	6.10807	13.7351
 488	1	5	0.178696	18.7593	9.98676	15.9198
 489	1	2	-0.592725	20.0296	8.00511	14.4782
 490	1	6	-0.000174	22.3419	12.9388	15.302
 491	1	5	0.1602	22.9658	11.0868	13.4558
 492	1	4	0.461284	21.0626	7.52942	13.7625
 493	1	1	-0.167191	22.2365	14.3171	14.9518
 494	1	5	0.164364	23.6068	11.4573	16.2679
 495	1	1	-0.325009	23.2779	15.2316	15.2712
 496	1	8	0.422373	26.0887	12.2528	16.9287
 497	1	1	-0.217421	23.4696	12.5084	16.036
 498	1	5	0.173851	19.9406	5.48237	15.1256
 499	1	5	0.197073	22.7868	2.46118	14.0526
 500	1	6	0.024852	21.4416	11.8615	14.8058
 501	1	1	0.048807	21.3527	9.6794	13.7699
 502	1	1	0.060532	23.074	4.36452	13.0555
 503	1	5	0.140008	19.8336	12.245	16.2101
 504	1	5	0.202663	23.27	16.2534	14.909
 505	1	1	-0.222969	21.9964	10.9095	13.9122
 506	1	1	0.35235	20.2419	9.33973	14.4948
 507	1	1	0.269742	21.2939	3.85211	14.6839
 508	1	1	-0.166682	20.2247	11.5476	15.4735
 509	1	1	-0.277787	19.6134	10.2799	15.3192
 510	1	1	-0.312482	20.7969	5.16258	14.5403
 511	1	9	0.442075	24.2741	3.92452	12.1722
 512	1	5	0.128262	23.073	6.3929	12.3311
 513	1	3	-0.434358	21.8492	8.54252	13.2127
 514	1	8	0.354457	22.7452	8.42681	12.7778
 515	1	1	-0.233188	22.5773	5.68424	12.9834
 516	1	5	0.143867	21.3901	14.6477	14.3539
 517	1	9	-0.2502	25.5133	4.79235	12.4836
 518	1	9	-0.249785	23.8839	4.09083	10.6833
 519	1	9	-0.32829	24.7043	2.45029	12.38
 520	1	10	0.056572	24.6963	3.76269	10.0231
 521	1	10	0.044267	23.6541	5.13385	10.44
 522	1	10	0.051935	22.9977	3.48503	10.4533
 523	1	10	0.069302	24.9688	2.26181	13.4286
 524	1	10	0.077707	25.5868	2.21168	11.7736
 525	1	10	0.059383	23.9035	1.75674	12.0951
 526	1	10	0.048889	25.9679	4.5041	13.4397
 527	1	10	0.055177	25.2386	5.84159	12.5624
 528	1	10	0.04962	26.2767	4.69706	11.7009
 529	1	1	0.438909	25.1493	8.28786	7.25376
 530	1	1	0.108796	24.5895	7.88102	8.4304
 531	1	2	-0.726889	24.4238	7.89176	6.19602
 532	1	3	-0.675747	23.4491	7.19279	8.13388
 533	1	1	-0.43042	28.6297	15.2763	15.5101
 534	1	4	0.62373	23.4063	7.19692	6.73211
 535	1	1	0.00157	29.3847	12.6685	14.8414
 536	1	5	0.178696	26.8435	8.3408	14.4042
 537	1	2	-0.592725	28.6707	10.333	14.6389
 538	1	6	-0.000174	26.4302	8.81446	9.71683
 539	1	5	0.1602	28.5615	10.5825	10.2785
 540	1	4	0.461284	29.3783	11.3644	14.1577
 541	1	1	-0.167191	26.9967	9.23031	8.47049
 542	1	5	0.164364	24.6689	7.78474	10.5596
 543	1	1	-0.325009	26.3578	8.97719	7.23654
 544	1	8	0.422373	22.8356	6.6982	8.75228
 545	1	1	-0.217421	25.1778	8.12536	9.67174
 546	1	5	0.173851	27.8123	12.0433	16.1347
 547	1	5	0.197073	28.2531	16.2792	15.6929
 548	1	6	0.024852	27.134	9.08638	11.0256
 549	1	1	0.048807	28.7685	10.2631	12.3968
 550	1	1	0.060532	29.8298	15.0814	14.7833
 551	1	5	0.140008	25.8665	7.77177	12.2078
 552	1	5	0.202663	26.7908	9.27335	6.28745
 553	1	1	-0.222969	28.2142	10.0152	11.1327
 554	1	1	0.35235	28.2727	9.68885	13.5346
 555	1	1	0.269742	27.8648	14.1884	15.9781
 556	1	1	-0.166682	26.6921	8.45779	12.2286
 557	1	1	-0.277787	27.2498	8.7505	13.4855
 558	1	1	-0.312482	28.3914	12.896	15.8061
 559	1	9	0.442075	30.7222	16.289	14.3902
 560	1	5	0.128262	30.9208	13.5692	13.6558
 561	1	3	-0.434358	29.6138	11.2678	12.7822
 562	1	8	0.354457	29.921	12.0318	12.2072
 563	1	1	-0.233188	30.1195	13.764	14.3593
 564	1	5	0.143867	27.9561	9.73457	8.44676
 565	1	9	-0.2502	31.9484	15.8926	13.5259
 566	1	9	-0.249785	31.2647	16.951	15.679
 567	1	9	-0.32829	29.9091	17.33	13.5873
 568	1	10	0.056572	30.4479	17.3226	16.3093
 569	1	10	0.044267	31.9225	17.7974	15.4455
 570	1	10	0.051935	31.8407	16.2273	16.2702
 571	1	10	0.069302	29.0934	17.7512	14.1858
 572	1	10	0.077707	29.4695	16.868	12.695
 573	1	10	0.059383	30.5458	18.1624	13.2633
 574	1	10	0.048889	32.5698	16.7684	13.3008
 575	1	10	0.055177	31.6347	15.4578	12.5689
 576	1	10	0.04962	32.5833	15.166	14.0491
 577	1	1	0.438909	19.9769	3.97164	-5.82544
 578	1	1	0.108796	19.3523	5.06173	-5.28007
 579	1	2	-0.726889	19.1842	3.34162	-6.70533
 580	1	3	-0.675747	18.1279	5.18484	-5.87853
 581	1	1	-0.43042	21.3928	5.66606	6.48593
 582	1	4	0.62373	18.0415	4.04944	-6.69879
 583	1	1	0.00157	21.6213	5.79858	3.68384
 584	1	5	0.178696	23.9186	7.6659	-0.660804
 585	1	2	-0.592725	22.6627	6.65013	1.59241
 586	1	6	-0.000174	21.0976	5.27308	-3.62515
 587	1	5	0.1602	20.0844	4.4916	-1.25766
 588	1	4	0.461284	21.7493	5.88969	2.21885
 589	1	1	-0.167191	21.7774	4.19306	-4.25273
 590	1	5	0.164364	19.2978	6.50841	-3.6621
 591	1	1	-0.325009	21.2132	3.52578	-5.35973
 592	1	8	0.422373	17.3725	5.78063	-5.59892
 593	1	1	-0.217421	19.8602	5.72465	-4.15803
 594	1	5	0.173851	23.2709	7.13035	4.05335
 595	1	5	0.197073	21.3046	5.62961	7.56379
 596	1	6	0.024852	21.5515	5.73111	-2.28895
 597	1	1	0.048807	21.3707	5.57694	0.10519
 598	1	1	0.060532	20.5064	4.90015	5.69218
 599	1	5	0.140008	23.1637	7.0115	-2.98595
 600	1	5	0.202663	21.6669	2.64074	-5.79189
 601	1	1	-0.222969	20.903	5.19596	-1.15018
 602	1	1	0.35235	22.4146	6.44264	0.283686
 603	1	1	0.269742	22.4103	6.4621	5.91094
 604	1	1	-0.166682	22.6514	6.618	-2.1114
 605	1	1	-0.277787	23.0852	6.98854	-0.816176
 606	1	1	-0.312482	22.4957	6.51765	4.51068
 607	1	9	0.442075	19.4244	3.99988	6.35556
 608	1	5	0.128262	19.9646	4.43966	3.64599
 609	1	3	-0.434358	20.93	5.19295	1.33128
 610	1	8	0.354457	20.216	4.5258	1.55687
 611	1	1	-0.233188	20.6359	4.99419	4.28817
 612	1	5	0.143867	22.6993	3.82005	-3.8108
 613	1	9	-0.2502	18.7795	2.99076	5.36856
 614	1	9	-0.249785	18.2996	4.88925	6.93144
 615	1	9	-0.32829	20.0354	3.16028	7.5066
 616	1	10	0.056572	18.6955	5.59747	7.66908
 617	1	10	0.044267	17.528	4.28314	7.42265
 618	1	10	0.051935	17.819	5.46944	6.13359
 619	1	10	0.069302	20.3825	3.78775	8.33415
 620	1	10	0.077707	20.8867	2.57159	7.14224
 621	1	10	0.059383	19.2964	2.46293	7.92093
 622	1	10	0.048889	18.1934	3.50387	4.59623
 623	1	10	0.055177	18.0955	2.30968	5.89023
 624	1	10	0.04962	19.5463	2.37886	4.87637
 625	1	1	0.438909	7.7672	10.7658	-11.263
 626	1	1	0.108796	7.30256	10.0697	-10.1802
 627	1	2	-0.726889	6.8888	11.7133	-11.6567
 628	1	3	-0.675747	6.09821	10.6005	-9.83303
 629	1	1	-0.43042	16.7769	2.24772	-7.86373
 630	1	4	0.62373	5.88047	11.6232	-10.7698
 631	1	1	0.00157	14.4496	3.80504	-8.03922
 632	1	5	0.178696	9.46062	4.00919	-9.48298
 633	1	2	-0.592725	12.0567	4.02151	-8.61283
 634	1	6	-0.000174	9.25386	8.6467	-10.1508
 635	1	5	0.1602	11.8381	8.41007	-9.08923