pySIMM System Object

1202 atoms
1326 bonds
2300 angles
3521 dihedrals
300 impropers

10 atom types
14 bond types
23 angle types
11 dihedral types
3 improper types

-153.718781 153.718781 xlo xhi
-153.718781 153.718781 ylo yhi
-153.718781 153.718781 zlo zhi

Masses

   1	12.01	# ca
   2	14.01	# nc
   3	14.01	# na
   4	12.01	# cd
   5	1.008	# ha
   6	12.01	# cp
   7	1.008	# h5
   8	1.008	# hn
   9	12.01	# c3
  10	1.008	# hc

Pair Coeffs

   1	0.086	3.3996695084235347	# ca
   2	0.17	3.249998523775958	# nc
   3	0.17	3.249998523775958	# na
   4	0.086	3.3996695084235347	# cd
   5	0.015	2.59964245953351	# ha
   6	0.086	3.3996695084235347	# cp
   7	0.015	2.421462715905442	# h5
   8	0.0157	1.069078461768407	# hn
   9	0.1094	3.3996695084235347	# c3
  10	0.0157	2.649532787749369	# hc

Bond Coeffs

   1	425.8	1.3802	# cd,na
   2	467.7	1.3517	# ca,nc
   3	345.8	1.086	# ca,ha
   4	351.8	1.0818	# cd,h5
   5	385.1	1.4555	# ca,cd
   6	351.4	1.4854	# cp,cp
   7	321.0	1.5156	# c3,ca
   8	525.4	1.3172	# cd,nc
   9	300.9	1.5375	# c3,c3
  10	330.6	1.0969	# c3,hc
  11	450.2	1.4058	# ca,cp
  12	420.5	1.384	# ca,na
  13	408.4	1.01	# hn,na
  14	461.1	1.3984	# ca,ca

Angle Coeffs

   1	66.72	118.38	# ca,cp,ca
   2	62.86	111.51	# c3,c3,c3
   3	66.26	120.69	# ca,ca,cp
   4	63.15	112.07	# c3,c3,ca
   5	67.4	113.15	# ca,na,cd
   6	46.34	109.8	# c3,c3,hc
   7	66.28	123.45	# ca,cd,na
   8	48.18	119.88	# ca,ca,ha
   9	67.6	123.24	# ca,cd,nc
  10	64.05	121.11	# ca,cp,cp
  11	46.75	125.5	# cd,na,hn
  12	66.62	120.02	# ca,ca,ca
  13	72.48	104.88	# ca,nc,cd
  14	74.9	112.22	# na,cd,nc
  15	46.63	125.54	# ca,na,hn
  16	65.02	120.79	# ca,ca,cd
  17	69.46	119.72	# ca,ca,nc
  18	47.98	119.86	# cp,ca,ha
  19	39.4	107.58	# hc,c3,hc
  20	63.53	120.77	# c3,ca,ca
  21	69.08	118.34	# ca,ca,na
  22	49.58	121.55	# h5,cd,na
  23	50.58	125.52	# h5,cd,nc

Dihedral Coeffs

   1	1	4.0	2	180	# X,ca,cd,X
   2	1	3.625	2	180	# X,ca,cp,X
   3	1	4.75	2	180	# X,cd,nc,X
   4	1	0.3	2	180	# X,ca,na,X
   5	1	3.625	2	180	# X,ca,ca,X
   6	1	1.7	2	180	# X,cd,na,X
   7	1	1.0	2	180	# X,cp,cp,X
   8	1	0.16	3	0	# hc,c3,c3,c3
   9	1	0.15555555555555556	3	0	# X,c3,c3,X
  10	1	0.0	2	0	# X,c3,ca,X
  11	1	4.8	2	180	# X,ca,nc,X

Improper Coeffs

   1	1.1	-1	2	# na,X,X,hn
   2	1.1	-1	2	# ca,ca,ca,c3
   3	1.1	-1	2	# ca,X,X,ha

Atoms

   1	1	1	0.438909	-29.1258	-16.5346	3.23001
   2	1	1	0.108796	-28.2757	-15.6693	2.5985
   3	1	2	-0.726889	-28.7233	-17.8104	3.10857
   4	1	3	-0.675747	-27.2977	-16.4154	2.00622
   5	1	1	-0.43042	-33.462	-5.19319	7.15491
   6	1	4	0.62373	-27.592	-17.7336	2.38826
   7	1	1	0.00157	-31.9544	-7.26007	5.97589
   8	1	5	0.178696	-28.9903	-9.21374	2.09505
   9	1	2	-0.592725	-30.464	-8.21928	4.22132
  10	1	6	-0.000174	-29.5037	-13.7487	3.42545
  11	1	5	0.1602	-30.8029	-12.4168	5.48861
  12	1	4	0.461284	-31.2118	-8.35872	5.32927
  13	1	1	-0.167191	-30.4121	-14.6728	4.03167
  14	1	5	0.164364	-27.6789	-13.6312	2.21181
  15	1	1	-0.325009	-30.2225	-16.0686	3.94825
  16	1	8	0.422373	-26.4713	-16.0925	1.54067
  17	1	1	-0.217421	-28.4122	-14.2789	2.6768
  18	1	5	0.173851	-31.2768	-5.73095	4.60113
  19	1	5	0.197073	-34.0197	-4.36692	7.57903
  20	1	6	0.024852	-29.6881	-12.2668	3.60441
  21	1	1	0.048807	-30.5779	-10.38	4.83549
  22	1	1	0.060532	-33.5637	-6.49632	7.69402
  23	1	5	0.140008	-28.6346	-11.6752	1.78806
  24	1	5	0.202663	-30.885	-16.7753	4.43574
  25	1	1	-0.222969	-30.4017	-11.7601	4.7264
  26	1	1	0.35235	-30.094	-9.48401	3.92424
  27	1	1	0.269742	-32.6382	-4.92324	6.05486
  28	1	1	-0.166682	-29.1672	-11.3225	2.66538
  29	1	1	-0.277787	-29.3627	-9.92921	2.82049
  30	1	1	-0.312482	-31.8973	-5.95083	5.46568
  31	1	9	0.442075	-34.4828	-6.81366	8.91005
  32	1	5	0.128262	-32.8041	-8.50777	7.5051
  33	1	3	-0.434358	-31.2749	-9.68156	5.76954
  34	1	8	0.354457	-31.8056	-10.0363	6.54271
  35	1	1	-0.233188	-32.7735	-7.50586	7.09905
  36	1	5	0.143867	-31.2746	-14.3066	4.57909
  37	1	9	-0.2502	-35.0281	-8.26712	8.86987
  38	1	9	-0.249785	-35.721	-5.88063	8.96225
  39	1	9	-0.32829	-33.6835	-6.63398	10.2189
  40	1	10	0.056572	-36.2653	-5.90521	8.00969
  41	1	10	0.044267	-35.4392	-4.84282	9.17357
  42	1	10	0.051935	-36.415	-6.18857	9.75466
  43	1	10	0.069302	-32.815	-7.30388	10.2391
  44	1	10	0.077707	-34.306	-6.85484	11.095
  45	1	10	0.059383	-33.3155	-5.6048	10.3115
  46	1	10	0.048889	-35.5002	-8.47946	7.90242
  47	1	10	0.055177	-35.7799	-8.42872	9.65244
  48	1	10	0.04962	-34.2361	-9.00553	9.03957
  49	1	1	0.438909	-23.8467	-27.7467	9.83613
  50	1	1	0.108796	-25.2112	-27.6904	9.80201
  51	1	2	-0.726889	-23.3978	-28.2148	11.0178
  52	1	3	-0.675747	-25.676	-28.1582	10.9905
  53	1	1	-0.43042	-25.5479	-18.8101	1.33596
  54	1	4	0.62373	-24.5173	-28.394	11.7417
  55	1	1	0.00157	-26.1161	-21.2267	2.66846
  56	1	5	0.178696	-28.7587	-23.5844	6.45804
  57	1	2	-0.592725	-27.4192	-22.5482	4.30313
  58	1	6	-0.000174	-25.2032	-26.4381	7.72675
  59	1	5	0.1602	-24.2763	-25.4653	5.25925
  60	1	4	0.461284	-26.3504	-22.4186	3.5045
  61	1	1	-0.167191	-23.7757	-26.557	7.74407
  62	1	5	0.164364	-27.0052	-27.0139	8.84551
  63	1	1	-0.325009	-23.091	-27.2164	8.79216
  64	1	8	0.422373	-26.617	-28.1332	11.3316
  65	1	1	-0.217421	-25.9265	-27.0621	8.78334
  66	1	5	0.173851	-27.888	-20.2175	3.36621
  67	1	5	0.197073	-25.3345	-17.8667	0.85193
  68	1	6	0.024852	-25.9078	-25.5556	6.72662
  69	1	1	0.048807	-25.901	-24.1466	4.74875
  70	1	1	0.060532	-24.6711	-19.9096	1.1684
  71	1	5	0.140008	-27.7166	-25.283	7.93172
  72	1	5	0.202663	-22.0084	-27.2406	8.84879
  73	1	1	-0.222969	-25.2617	-25.112	5.53533
  74	1	1	0.35235	-27.1122	-23.6039	5.07697
  75	1	1	0.269742	-26.7162	-18.9065	2.12601
  76	1	1	-0.166682	-27.2023	-25.0163	7.01665
  77	1	1	-0.277787	-27.813	-24.0465	6.1951
  78	1	1	-0.312482	-27.0035	-20.1394	2.73616
  79	1	9	0.442075	-23.384	-19.839	0.300572
  80	1	5	0.128262	-24.2724	-21.9305	1.81147
  81	1	3	-0.434358	-25.4162	-23.4435	3.68514
  82	1	8	0.354457	-24.4986	-23.4912	3.28353
  83	1	1	-0.233188	-24.9624	-21.0971	1.87332
  84	1	5	0.143867	-23.1799	-26.0657	6.98267
  85	1	9	-0.2502	-23.3439	-21.0179	-0.704505
  86	1	9	-0.249785	-22.1387	-19.9136	1.21489
  87	1	9	-0.32829	-23.2792	-18.5352	-0.531228
  88	1	10	0.056572	-21.2138	-19.8536	0.627805
  89	1	10	0.044267	-22.1147	-20.8516	1.78249
  90	1	10	0.051935	-22.1385	-19.0857	1.93492
  91	1	10	0.069302	-23.2102	-17.6538	0.117287
  92	1	10	0.077707	-24.1494	-18.4218	-1.18982
  93	1	10	0.059383	-22.3826	-18.5447	-1.16385
  94	1	10	0.048889	-24.2446	-21.0222	-1.33109
  95	1	10	0.055177	-23.283	-21.9865	-0.195696
  96	1	10	0.04962	-22.4719	-20.9435	-1.36624
  97	1	1	0.438909	-16.1521	-26.3663	21.9138
  98	1	1	0.108796	-15.7623	-27.552	21.3504
  99	1	2	-0.726889	-15.1359	-25.7693	22.565
 100	1	3	-0.675747	-14.4702	-27.7786	21.7168
 101	1	1	-0.43042	-25.7526	-28.6845	13.9216
 102	1	4	0.62373	-14.0968	-26.6016	22.3805
 103	1	1	0.00157	-23.3296	-28.835	15.338
 104	1	5	0.178696	-18.0925	-28.8879	15.5071
 105	1	2	-0.592725	-20.8506	-28.9385	15.5008
 106	1	6	-0.000174	-17.7901	-27.6712	20.0433
 107	1	5	0.1602	-20.5255	-28.0731	19.8163
 108	1	4	0.461284	-22.0563	-28.8463	16.0827
 109	1	1	-0.167191	-18.2333	-26.4933	20.7148
 110	1	5	0.164364	-16.1424	-29.0976	19.8807
 111	1	1	-0.325009	-17.4089	-25.8239	21.6471
 112	1	8	0.422373	-13.8463	-28.4679	21.3437
 113	1	1	-0.217421	-16.5269	-28.2208	20.3902
 114	1	5	0.173851	-22.3895	-28.7327	13.3955
 115	1	5	0.197073	-26.6837	-28.5944	13.3781
 116	1	6	0.024852	-18.5582	-28.1916	18.873
 117	1	1	0.048807	-20.6362	-28.6145	17.718
 118	1	1	0.060532	-25.7953	-28.784	15.3288
 119	1	5	0.140008	-16.8031	-28.3515	17.5978
 120	1	5	0.202663	-17.6854	-24.8695	22.0817
 121	1	1	-0.222969	-19.9746	-28.2849	18.9059
 122	1	1	0.35235	-19.9872	-28.7997	16.5268
 123	1	1	0.269742	-24.5342	-28.6508	13.2058
 124	1	1	-0.166682	-17.8836	-28.4571	17.6443
 125	1	1	-0.277787	-18.5939	-28.7526	16.4597
 126	1	1	-0.312482	-23.3363	-28.7697	13.9323
 127	1	9	0.442075	-27.1641	-28.7764	16.0661
 128	1	5	0.128262	-24.554	-28.8809	17.0989
 129	1	3	-0.434358	-21.9723	-28.69	17.469
 130	1	8	0.354457	-22.7315	-28.5283	18.1042
 131	1	1	-0.233188	-24.5641	-28.8318	16.018
 132	1	5	0.143867	-19.1791	-26.0417	20.4256
 133	1	9	-0.2502	-27.8434	-27.399	15.8793
 134	1	9	-0.249785	-27.0461	-29.0415	17.5892
 135	1	9	-0.32829	-28.0947	-29.8716	15.4884
 136	1	10	0.056572	-28.0367	-29.0773	18.0596
 137	1	10	0.044267	-26.4779	-28.2472	18.0891
 138	1	10	0.051935	-26.5515	-30.0018	17.7831
 139	1	10	0.069302	-28.3376	-29.6874	14.4362
 140	1	10	0.077707	-29.0425	-29.9136	16.0393
 141	1	10	0.059383	-27.6185	-30.8577	15.5577
 142	1	10	0.048889	-28.8054	-27.3576	16.4055
 143	1	10	0.055177	-28.0315	-27.1864	14.8203
 144	1	10	0.04962	-27.2063	-26.5976	16.2742
 145	1	1	0.438909	-7.17288	-15.5786	20.2801
 146	1	1	0.108796	-6.4929	-16.6892	20.6974
 147	1	2	-0.726889	-6.36761	-14.6919	19.6763
 148	1	3	-0.675747	-5.18445	-16.5237	20.3337
 149	1	1	-0.43042	-11.64	-27.1767	22.4637
 150	1	4	0.62373	-5.156	-15.2684	19.7018
 151	1	1	0.00157	-10.9914	-24.4856	22.9445
 152	1	5	0.178696	-12.4423	-19.4986	23.5274
 153	1	2	-0.592725	-11.5723	-22.104	23.3358
 154	1	6	-0.000174	-8.52923	-17.6876	21.5704
 155	1	5	0.1602	-7.82709	-20.3898	21.8005
 156	1	4	0.461284	-10.6676	-23.0503	23.0463
 157	1	1	-0.167191	-9.21747	-16.524	21.1012
 158	1	5	0.164364	-6.53869	-18.613	21.6758
 159	1	1	-0.325009	-8.54456	-15.4607	20.4668
 160	1	8	0.422373	-4.41418	-17.147	20.4803
 161	1	1	-0.217421	-7.11962	-17.7596	21.35
 162	1	5	0.173851	-13.124	-24.178	23.0895
 163	1	5	0.197073	-11.9022	-28.2119	22.2884
 164	1	6	0.024852	-9.30044	-18.8158	22.2067
 165	1	1	0.048807	-9.62529	-21.1691	22.7012
 166	1	1	0.060532	-10.2777	-26.8089	22.5249
 167	1	5	0.140008	-11.0155	-17.5934	22.7981
 168	1	5	0.202663	-9.06308	-14.5802	20.1037
 169	1	1	-0.222969	-8.79716	-20.1489	22.2164
 170	1	1	0.35235	-10.9096	-20.9519	23.1185
 171	1	1	0.269742	-12.6804	-26.2386	22.6472
 172	1	1	-0.166682	-10.6076	-18.597	22.7468
 173	1	1	-0.277787	-11.4252	-19.66	23.1857
 174	1	1	-0.312482	-12.3312	-24.9144	22.9654
 175	1	9	0.442075	-9.16416	-27.8857	22.3792
 176	1	5	0.128262	-8.95124	-25.1103	22.7495
 177	1	3	-0.434358	-9.41851	-22.5162	22.7137
 178	1	8	0.354457	-8.62974	-23.0219	22.3565
 179	1	1	-0.233188	-9.98069	-25.4431	22.7287
 180	1	5	0.143867	-10.2954	-16.4492	21.1968
 181	1	9	-0.2502	-7.75417	-27.2815	22.1503
 182	1	9	-0.249785	-9.44733	-28.8278	21.1806
 183	1	9	-0.32829	-9.11058	-28.7317	23.6711
 184	1	10	0.056572	-8.62472	-29.54	21.0393
 185	1	10	0.044267	-9.55879	-28.2525	20.2529
 186	1	10	0.051935	-10.3575	-29.419	21.3281
 187	1	10	0.069302	-8.91837	-28.0923	24.5421
 188	1	10	0.077707	-8.31498	-29.4851	23.6195
 189	1	10	0.059383	-10.0609	-29.252	23.8423
 190	1	10	0.048889	-7.00869	-28.0705	21.9902
 191	1	10	0.055177	-7.42343	-26.6983	23.0184
 192	1	10	0.04962	-7.74603	-26.6311	21.2665
 193	1	1	0.438909	-1.95026	-4.25707	12.4447
 194	1	1	0.108796	-2.81246	-3.98945	13.4724
 195	1	2	-0.726889	-1.71605	-3.16802	11.6967
 196	1	3	-0.675747	-3.1511	-2.66797	13.3931
 197	1	1	-0.43042	-2.69329	-15.2591	19.0572
 198	1	4	0.62373	-2.45019	-2.1996	12.2704
 199	1	1	0.00157	-2.97972	-12.6878	17.9385
 200	1	5	0.178696	-6.00211	-8.59257	16.7252
 201	1	2	-0.592725	-4.3289	-10.686	17.3696
 202	1	6	-0.000174	-2.72815	-6.29056	14.2164
 203	1	5	0.1602	-1.25418	-8.46147	15.1213
 204	1	4	0.461284	-3.16154	-11.3478	17.3461
 205	1	1	-0.167191	-1.8227	-6.55057	13.1442
 206	1	5	0.164364	-3.91599	-4.724	15.1835
 207	1	1	-0.325009	-1.42881	-5.53351	12.2491
 208	1	8	0.422373	-3.75907	-2.14414	13.9934
 209	1	1	-0.217421	-3.23218	-4.96844	14.3785
 210	1	5	0.173851	-5.03431	-12.8419	18.5613
 211	1	5	0.197073	-2.59418	-16.255	19.4699
 212	1	6	0.024852	-3.17078	-7.40273	15.1136
 213	1	1	0.048807	-2.78081	-9.50381	16.248
 214	1	1	0.060532	-1.56728	-14.641	18.462
 215	1	5	0.140008	-5.21119	-6.67096	15.3142
 216	1	5	0.202663	-0.758526	-5.71838	11.417
 217	1	1	-0.222969	-2.2847	-8.46061	15.4596
 218	1	1	0.35235	-4.07595	-9.55437	16.6858
 219	1	1	0.269742	-3.95565	-14.625	19.102
 220	1	1	-0.166682	-4.51258	-7.45392	15.5949
 221	1	1	-0.277787	-4.97482	-8.5309	16.3821
 222	1	1	-0.312482	-4.06739	-13.3419	18.5387
 223	1	9	0.442075	-0.206106	-15.3914	18.3985
 224	1	5	0.128262	-0.904897	-12.8493	17.4329
 225	1	3	-0.434358	-2.1592	-10.6388	16.6776
 226	1	8	0.354457	-1.21477	-10.9335	16.5131
 227	1	1	-0.233188	-1.73849	-13.3522	17.9051
 228	1	5	0.143867	-1.4541	-7.56059	12.9865
 229	1	9	-0.2502	0.959889	-14.5166	17.8673
 230	1	9	-0.249785	-0.337479	-16.6144	17.461
 231	1	9	-0.32829	0.208729	-15.8853	19.8065
 232	1	10	0.056572	0.615865	-17.1506	17.3744
 233	1	10	0.044267	-0.640931	-16.2982	16.4547
 234	1	10	0.051935	-1.08902	-17.3216	17.8313
 235	1	10	0.069302	0.261841	-15.0438	20.5086
 236	1	10	0.077707	1.19464	-16.3659	19.7796
 237	1	10	0.059383	-0.500362	-16.6175	20.2079
 238	1	10	0.048889	1.90705	-15.0705	17.8826
 239	1	10	0.055177	1.09105	-13.6191	18.4851
 240	1	10	0.04962	0.784168	-14.2056	16.8299
 241	1	1	0.438909	3.55608	5.23197	2.63493
 242	1	1	0.108796	3.49007	3.90113	2.32868
 243	1	2	-0.726889	4.29354	5.91009	1.74827
 244	1	3	-0.675747	4.21281	3.70757	1.17949
 245	1	1	-0.43042	-3.25981	0.219908	12.3361
 246	1	4	0.62373	4.7313	4.98082	0.883259
 247	1	1	0.00157	-1.70369	0.79927	10.0546
 248	1	5	0.178696	1.82795	-0.73869	6.52408
 249	1	2	-0.592725	-0.071817	0.139916	8.31285
 250	1	6	-0.000174	2.23569	3.45272	4.35902
 251	1	5	0.1602	0.2315	3.99896	6.22028
 252	1	4	0.461284	-0.867883	1.06673	8.86885
 253	1	1	-0.167191	2.3106	4.84974	4.64691
 254	1	5	0.164364	2.81396	1.92622	2.88968
 255	1	1	-0.325009	2.96558	5.74888	3.78292
 256	1	8	0.422373	4.44654	2.84186	0.730291
 257	1	1	-0.217421	2.84016	2.97622	3.15577
 258	1	5	0.173851	-1.12232	-1.26893	10.148
 259	1	5	0.197073	-3.84723	-0.0214216	13.2119
 260	1	6	0.024852	1.59919	2.51967	5.34814
 261	1	1	0.048807	0.109208	2.08861	7.21172
 262	1	1	0.060532	-3.26908	1.53833	11.8117
 263	1	5	0.140008	2.81378	0.791271	4.80436
 264	1	5	0.202663	3.06488	6.80484	4.00992
 265	1	1	-0.222969	0.602639	2.98158	6.25622
 266	1	1	0.35235	0.529455	0.790869	7.30135
 267	1	1	0.269742	-2.4879	-0.807675	11.7442
 268	1	1	-0.166682	2.02767	1.16155	5.45452
 269	1	1	-0.277787	1.49204	0.288053	6.42597
 270	1	1	-0.312482	-1.72228	-0.487878	10.6113
 271	1	9	0.442075	-4.07417	2.70422	12.4562
 272	1	5	0.128262	-2.46291	2.80252	10.2574
 273	1	3	-0.434358	-0.795198	2.2975	8.21157
 274	1	8	0.354457	-1.29261	3.13739	8.44235
 275	1	1	-0.233188	-2.48287	1.79917	10.6669
 276	1	5	0.143867	1.90354	5.23559	5.57646
 277	1	9	-0.2502	-3.09637	3.78648	12.9753
 278	1	9	-0.249785	-4.94997	2.25519	13.6539
 279	1	9	-0.32829	-5.02482	3.35262	11.4187
 280	1	10	0.056572	-5.51217	3.10244	14.0671
 281	1	10	0.044267	-4.33448	1.84473	14.464
 282	1	10	0.051935	-5.67775	1.49449	13.3451
 283	1	10	0.069302	-4.47436	3.78329	10.5749
 284	1	10	0.077707	-5.61179	4.16108	11.8728
 285	1	10	0.059383	-5.72642	2.60991	11.0189
 286	1	10	0.048889	-2.40165	3.35954	13.7096
 287	1	10	0.055177	-3.63728	4.60918	13.4597
 288	1	10	0.04962	-2.50084	4.21465	12.1603
 289	1	1	0.438909	11.738	16.1694	-1.18684
 290	1	1	0.108796	12.4049	14.9839	-1.35817
 291	1	2	-0.726889	12.5482	17.1417	-0.753085
 292	1	3	-0.675747	13.7377	15.2344	-1.13828
 293	1	1	-0.43042	6.2135	4.37309	-1.11927
 294	1	4	0.62373	13.7555	16.564	-0.679029
 295	1	1	0.00157	7.13766	7.04298	-1.21584
 296	1	5	0.178696	6.91696	11.6941	1.00416
 297	1	2	-0.592725	7.10773	9.30919	-0.286858
 298	1	6	-0.000174	10.2942	13.7957	-1.44632
 299	1	5	0.1602	10.3189	11.2219	-2.66516
 300	1	4	0.461284	7.60793	8.4427	-1.17507
 301	1	1	-0.167191	9.63687	15.0605	-1.4294
 302	1	5	0.164364	12.2511	12.8152	-1.41072
 303	1	1	-0.325009	10.3549	16.2587	-1.27817
 304	1	8	0.422373	14.4652	14.5571	-1.00529
 305	1	1	-0.217421	11.7201	13.7597	-1.45595
 306	1	5	0.173851	5.78739	7.36316	0.424757
 307	1	5	0.197073	5.85068	3.35494	-1.06561
 308	1	6	0.024852	9.45794	12.585	-1.1806
 309	1	1	0.048807	8.72368	10.2997	-1.50043
 310	1	1	0.060532	7.17289	4.74355	-2.09987
 311	1	5	0.140008	8.39766	13.6206	0.416927
 312	1	5	0.202663	9.86212	17.2136	-1.13329
 313	1	1	-0.222969	9.59072	11.3446	-1.87086
 314	1	1	0.35235	7.79739	10.4348	-0.49978
 315	1	1	0.269742	5.70275	5.31445	-0.196784
 316	1	1	-0.166682	8.48561	12.6927	-0.142339
 317	1	1	-0.277787	7.64961	11.6209	0.207256
 318	1	1	-0.312482	6.17061	6.63359	-0.285019
 319	1	9	0.442075	7.74134	3.74294	-3.14528
 320	1	5	0.128262	8.36493	6.38829	-2.85436
 321	1	3	-0.434358	8.60904	9.01664	-1.97333
 322	1	8	0.354457	9.12806	8.57262	-2.70769
 323	1	1	-0.233188	7.62642	6.08456	-2.12101
 324	1	5	0.143867	8.54949	15.0962	-1.42342
 325	1	9	-0.2502	9.28172	3.64739	-3.01608
 326	1	9	-0.249785	7.3893	4.22502	-4.57249
 327	1	9	-0.32829	7.18084	2.30635	-2.99061
 328	1	10	0.056572	6.3046	4.34112	-4.67616
 329	1	10	0.044267	7.73145	3.50976	-5.33076
 330	1	10	0.051935	7.85099	5.19366	-4.79674
 331	1	10	0.069302	6.09056	2.29362	-3.11241
 332	1	10	0.077707	7.4301	1.8899	-2.00715
 333	1	10	0.059383	7.60355	1.6356	-3.74942
 334	1	10	0.048889	9.69323	2.92714	-3.73443
 335	1	10	0.055177	9.56579	3.32099	-2.00794
 336	1	10	0.04962	9.76498	4.61274	-3.20588
 337	1	1	0.438909	26.2498	17.005	-4.61972
 338	1	1	0.108796	24.9933	16.8643	-5.14596
 339	1	2	-0.726889	27.1989	17.0113	-5.56719
 340	1	3	-0.675747	25.1401	16.7253	-6.50202
 341	1	1	-0.43042	14.6311	18.2874	0.885374
 342	1	4	0.62373	26.523	16.8625	-6.7172
 343	1	1	0.00157	17.3012	17.6558	0.316684
 344	1	5	0.178696	22.1361	19.4249	0.745298
 345	1	2	-0.592725	19.665	18.3012	0.497
 346	1	6	-0.000174	23.9887	17.2064	-2.96291
 347	1	5	0.1602	21.3471	16.1838	-3.00429
 348	1	4	0.461284	18.7216	17.5559	-0.092692
 349	1	1	-0.167191	25.3142	17.2697	-2.43283
 350	1	5	0.164364	22.8485	16.9358	-4.81602
 351	1	1	-0.325009	26.4517	17.1854	-3.25722
 352	1	8	0.422373	24.4227	16.6919	-7.20185
 353	1	1	-0.217421	23.8321	16.9702	-4.36193
 354	1	5	0.173851	16.4834	16.1739	-1.04389
 355	1	5	0.197073	13.592	18.5443	1.0726
 356	1	6	0.024852	22.8301	17.4838	-2.0466
 357	1	1	0.048807	20.5441	17.2147	-1.2652
 358	1	1	0.060532	15.6352	18.9066	1.64897
 359	1	5	0.140008	23.9705	18.9208	-0.862055
 360	1	5	0.202663	27.4582	17.2871	-2.86705
 361	1	1	-0.222969	21.5428	16.8848	-2.20075
 362	1	1	0.35235	20.7652	18.0905	-0.236806
 363	1	1	0.269742	14.9056	17.2578	-0.0393703
 364	1	1	-0.166682	23.0199	18.4078	-0.974114
 365	1	1	-0.277787	21.9959	18.7122	-0.0607803
 366	1	1	-0.312482	16.2563	16.9226	-0.294647
 367	1	9	0.442075	15.2657	19.9187	2.771
 368	1	5	0.128262	17.7686	19.1078	1.83186
 369	1	3	-0.434358	19.2298	16.825	-1.17916
 370	1	8	0.354457	18.7051	16.2815	-1.83809
 371	1	1	-0.233188	16.9649	18.5862	1.32447
 372	1	5	0.143867	25.4625	17.4133	-1.36584
 373	1	9	-0.2502	14.726	21.2216	2.1397
 374	1	9	-0.249785	16.4643	20.2873	3.68438
 375	1	9	-0.32829	14.1725	19.3264	3.69792
 376	1	10	0.056572	17.2417	20.8234	3.12642
 377	1	10	0.044267	16.9114	19.3875	4.12621
 378	1	10	0.051935	16.1485	20.9413	4.50678
 379	1	10	0.069302	13.2237	19.1827	3.16894
 380	1	10	0.077707	13.9717	19.9911	4.54711
 381	1	10	0.059383	14.4894	18.3547	4.09706
 382	1	10	0.048889	15.4855	21.6815	1.49517
 383	1	10	0.055177	14.4483	21.9489	2.91267
 384	1	10	0.04962	13.8385	21.0242	1.52615
 385	1	1	0.438909	35.4247	24.2194	-6.29505
 386	1	1	0.108796	35.3001	24.3029	-7.6559
 387	1	2	-0.726889	35.4607	25.4359	-5.72176
 388	1	3	-0.675747	35.328	25.6248	-7.98962
 389	1	1	-0.43042	26.5486	16.662	-9.2603
 390	1	4	0.62373	35.3397	26.2877	-6.7534
 391	1	1	0.00157	29.2527	17.4649	-9.30018
 392	1	5	0.178696	33.3994	19.6305	-11.7229
 393	1	2	-0.592725	31.3425	18.3102	-10.3986
 394	1	6	-0.000174	34.7563	21.9498	-7.81137
 395	1	5	0.1602	32.9157	20.2171	-6.77933
 396	1	4	0.461284	30.6163	18.0325	-9.30069
 397	1	1	-0.167191	35.0096	21.8564	-6.40849
 398	1	5	0.164364	34.7082	23.343	-9.4989
 399	1	1	-0.325009	35.3366	22.9939	-5.6388
 400	1	8	0.422373	35.1267	26.0335	-8.88187
 401	1	1	-0.217421	34.9471	23.2069	-8.45036
 402	1	5	0.173851	29.0629	17.5087	-7.14932
 403	1	5	0.197073	25.5124	16.3495	-9.23586
 404	1	6	0.024852	34.0704	20.8294	-8.53368
 405	1	1	0.048807	32.3083	19.1748	-8.56049
 406	1	1	0.060532	27.2184	16.7659	-10.5053
 407	1	5	0.140008	34.9221	21.2178	-10.4989
 408	1	5	0.202663	35.4276	22.9547	-4.55892
 409	1	1	-0.222969	33.1065	20.0569	-7.83456
 410	1	1	0.35235	32.3786	19.0378	-9.91886
 411	1	1	0.269742	27.2074	16.9202	-8.03886
 412	1	1	-0.166682	34.197	20.6305	-9.94261
 413	1	1	-0.277787	33.3533	19.7327	-10.6439
 414	1	1	-0.312482	28.5626	17.2943	-8.08695
 415	1	9	0.442075	26.469	16.4466	-11.8304
 416	1	5	0.128262	29.1248	17.2898	-11.4231
 417	1	3	-0.434358	31.2221	18.4873	-8.13007
 418	1	8	0.354457	30.8237	18.4807	-7.20881
 419	1	1	-0.233188	28.5752	17.1673	-10.4954
 420	1	5	0.143867	34.8721	20.905	-5.9016
 421	1	9	-0.2502	25.1016	17.1758	-11.8761
 422	1	9	-0.249785	26.225	14.923	-11.9256
 423	1	9	-0.32829	27.2467	16.8808	-13.0994
 424	1	10	0.056572	25.6136	14.5668	-11.088
 425	1	10	0.044267	27.177	14.3774	-11.9024
 426	1	10	0.051935	25.7079	14.6629	-12.8578
 427	1	10	0.069302	28.1824	16.3178	-13.2048
 428	1	10	0.077707	27.4879	17.9508	-13.062
 429	1	10	0.059383	26.6569	16.7027	-14.007
 430	1	10	0.048889	24.4201	16.8192	-11.0962
 431	1	10	0.055177	24.602	17.0133	-12.8393
 432	1	10	0.04962	25.2366	18.2567	-11.7441
 433	1	1	0.438909	30.7657	34.982	2.64433
 434	1	1	0.108796	29.9738	33.9084	2.33704
 435	1	2	-0.726889	30.2592	35.6984	3.66205
 436	1	3	-0.675747	28.879	33.9569	3.15317
 437	1	1	-0.43042	35.1033	28.6215	-7.70216
 438	1	4	0.62373	29.1166	35.0644	3.98094
 439	1	1	0.00157	34.4653	29.6374	-5.15699
 440	1	5	0.178696	32.8418	28.6946	-0.281413
 441	1	2	-0.592725	33.7772	29.3014	-2.80119
 442	1	6	-0.000174	31.5815	33.122	0.712067
 443	1	5	0.1602	32.5405	33.4439	-1.86971
 444	1	4	0.461284	33.9901	30.1186	-3.84377
 445	1	1	-0.167191	32.366	34.2771	0.995406
 446	1	5	0.164364	29.7297	32.0696	1.21184
 447	1	1	-0.325009	31.968	35.2108	1.9765
 448	1	8	0.422373	28.1163	33.307	3.21211
 449	1	1	-0.217421	30.3492	32.9401	1.39947
 450	1	5	0.173851	34.7715	27.6125	-4.47321
 451	1	5	0.197073	35.3353	28.2231	-8.68218
 452	1	6	0.024852	32.1065	32.0807	-0.217598
 453	1	1	0.048807	33.129	31.3964	-2.29765
 454	1	1	0.060532	34.8334	30.002	-7.56804
 455	1	5	0.140008	31.839	30.4623	1.20706
 456	1	5	0.202663	32.5787	36.0658	2.24364
 457	1	1	-0.222969	32.5938	32.4221	-1.50831
 458	1	1	0.35235	33.2274	30.1005	-1.86722
 459	1	1	0.269742	35.1107	27.7479	-6.59328
 460	1	1	-0.166682	32.1898	30.7252	0.212439
 461	1	1	-0.277787	32.7606	29.7264	-0.605986
 462	1	1	-0.312482	34.8097	28.2841	-5.32943
 463	1	9	0.442075	34.8461	30.9125	-8.82815
 464	1	5	0.128262	34.2622	31.5326	-6.14221
 465	1	3	-0.434358	33.6198	31.4399	-3.57003
 466	1	8	0.354457	33.6491	32.2203	-4.19944
 467	1	1	-0.233188	34.5164	30.4895	-6.27889
 468	1	5	0.143867	33.3202	34.4068	0.490289
 469	1	9	-0.2502	34.5257	32.3984	-8.52397
 470	1	9	-0.249785	33.7919	30.41	-9.84506
 471	1	9	-0.32829	36.2411	30.8735	-9.49763
 472	1	10	0.056572	32.7924	30.4045	-9.3922
 473	1	10	0.044267	34.0119	29.3916	-10.1858
 474	1	10	0.051935	33.7586	31.0555	-10.7317
 475	1	10	0.069302	37.013	31.2211	-8.79968
 476	1	10	0.077707	36.2705	31.5186	-10.3845
 477	1	10	0.059383	36.5092	29.8599	-9.81691
 478	1	10	0.048889	34.5572	33.0021	-9.43984
 479	1	10	0.055177	35.2554	32.8235	-7.82355
 480	1	10	0.04962	33.5221	32.507	-8.09405
 481	1	1	0.438909	16.5537	35.9503	8.88702
 482	1	1	0.108796	16.618	35.3269	7.67043
 483	1	2	-0.726889	15.341	36.4849	9.11986
 484	1	3	-0.675747	15.3797	35.416	7.10564
 485	1	1	-0.43042	28.689	36.5252	5.9706
 486	1	4	0.62373	14.6289	36.1634	8.02696
 487	1	1	0.00157	26.1649	35.3826	6.40331
 488	1	5	0.178696	21.9018	32.605	4.92994
 489	1	2	-0.592725	24.1688	33.9799	5.8062
 490	1	6	-0.000174	18.9902	34.9002	7.9296
 491	1	5	0.1602	21.4424	35.9352	8.63115
 492	1	4	0.461284	24.7839	34.8905	6.58406
 493	1	1	-0.167191	18.8813	35.4786	9.23381
 494	1	5	0.164364	17.8272	34.3985	6.13769
 495	1	1	-0.325009	17.6705	36.0214	9.71316
 496	1	8	0.422373	15.084	35.096	6.2013
 497	1	1	-0.217421	17.8062	34.8063	7.14162
 498	1	5	0.173851	26.6006	34.1517	4.69087
 499	1	5	0.197073	29.6623	36.9695	5.77858
 500	1	6	0.024852	20.3381	34.5113	7.38406
 501	1	1	0.048807	22.7316	34.8599	7.29621
 502	1	1	0.060532	27.9394	36.9616	7.07852
 503	1	5	0.140008	19.6396	33.0427	5.93194
 504	1	5	0.202663	17.5941	36.5022	10.6817
 505	1	1	-0.222969	21.5005	35.1667	7.87047
 506	1	1	0.35235	22.8907	33.9849	6.25967
 507	1	1	0.269742	28.2484	35.5002	5.10756
 508	1	1	-0.166682	20.5073	33.5638	6.32552
 509	1	1	-0.277787	21.7801	33.2972	5.75641
 510	1	1	-0.312482	26.9845	34.9214	5.35292
 511	1	9	0.442075	28.5191	38.0478	8.02809
 512	1	5	0.128262	26.053	36.7182	8.08776
 513	1	3	-0.434358	23.9354	35.4245	7.55189
 514	1	8	0.354457	24.1473	36.1615	8.19826
 515	1	1	-0.233188	26.669	36.3812	7.26527
 516	1	5	0.143867	19.753	35.5287	9.87855
 517	1	9	-0.2502	29.8981	37.593	8.56732
 518	1	9	-0.249785	27.6214	38.3385	9.25944
 519	1	9	-0.32829	28.6976	39.3787	7.26104
 520	1	10	0.056572	28.0863	39.0865	9.91407
 521	1	10	0.044267	27.4627	37.4306	9.85513
 522	1	10	0.051935	26.6445	38.734	8.95502
 523	1	10	0.069302	29.3519	39.2513	6.39033
 524	1	10	0.077707	29.1427	40.1477	7.90422
 525	1	10	0.059383	27.7306	39.7518	6.90158
 526	1	10	0.048889	30.6375	37.5047	7.76262
 527	1	10	0.055177	29.8164	36.6149	9.0578
 528	1	10	0.04962	30.2939	38.3078	9.2995
 529	1	1	0.438909	3.56098	32.7943	1.00899
 530	1	1	0.108796	4.02865	34.073	0.865111
 531	1	2	-0.726889	2.3539	32.6403	0.43919
 532	1	3	-0.675747	3.10535	34.7712	0.14379
 533	1	1	-0.43042	12.5898	37.4958	8.6957
 534	1	4	0.62373	2.07689	33.8451	-0.0871301
 535	1	1	0.00157	11.1468	36.4902	6.50708
 536	1	5	0.178696	10.6321	32.8279	2.82922
 537	1	2	-0.592725	10.8637	34.8869	4.64645
 538	1	6	-0.000174	6.0338	33.5419	2.09475
 539	1	5	0.1602	6.57557	35.5999	3.84791
 540	1	4	0.461284	10.3724	35.8695	5.41744
 541	1	1	-0.167191	5.55164	32.2065	2.21756
 542	1	5	0.164364	5.59055	35.5212	1.27851
 543	1	1	-0.325009	4.30138	31.8257	1.68443
 544	1	8	0.422373	3.12201	35.7392	-0.113227
 545	1	1	-0.217421	5.2456	34.5007	1.40392
 546	1	5	0.173851	12.9281	35.3736	6.05896
 547	1	5	0.197073	13.179	37.8651	9.52952
 548	1	6	0.024852	7.34553	33.9143	2.69181
 549	1	1	0.048807	8.69433	35.2555	4.17455
 550	1	1	0.060532	11.2691	37.9553	8.48712
 551	1	5	0.140008	8.42472	32.2864	1.74107
 552	1	5	0.202663	3.91009	30.8192	1.7841
 553	1	1	-0.222969	7.44856	35.0102	3.58802
 554	1	1	0.35235	9.8065	34.5024	3.90644
 555	1	1	0.269742	13.2201	36.5887	7.81781
 556	1	1	-0.166682	8.50452	33.1324	2.41955
 557	1	1	-0.277787	9.74887	33.4291	3.01595
 558	1	1	-0.312482	12.48	36.1011	6.72742
 559	1	9	0.442075	10.6103	39.0288	9.40118
 560	1	5	0.128262	9.55876	37.7755	7.18132
 561	1	3	-0.434358	9.03476	36.1596	5.13541
 562	1	8	0.354457	8.43714	36.7975	5.62805
 563	1	1	-0.233188	10.5708	37.4417	7.37205
 564	1	5	0.143867	6.14931	31.4735	2.75507
 565	1	9	-0.2502	10.6629	40.396	8.68251
 566	1	9	-0.249785	11.3229	39.1765	10.7708
 567	1	9	-0.32829	9.12804	38.6904	9.70898
 568	1	10	0.056572	11.3758	38.2107	11.2891
 569	1	10	0.044267	10.7868	39.8781	11.4225
 570	1	10	0.051935	12.3419	39.5646	10.654
 571	1	10	0.069302	9.04201	37.6832	10.1352
 572	1	10	0.077707	8.50025	38.741	8.8133
 573	1	10	0.059383	8.70522	39.3994	10.432
 574	1	10	0.048889	10.2086	41.1845	9.29526
 575	1	10	0.055177	10.1285	40.3578	7.72547
 576	1	10	0.04962	11.7017	40.6826	8.47477
 577	1	1	0.438909	-10.2971	28.4872	-0.397101
 578	1	1	0.108796	-9.42896	28.4386	0.657597
 579	1	2	-0.726889	-11.4443	27.8312	-0.116847
 580	1	3	-0.675747	-10.0337	27.7718	1.67269
 581	1	1	-0.43042	0.564274	35.3995	-1.40727
 582	1	4	0.62373	-11.2637	27.3725	1.1371
 583	1	1	0.00157	-1.46095	33.4381	-1.43415
 584	1	5	0.178696	-3.11773	28.829	0.289156
 585	1	2	-0.592725	-2.32563	31.2302	-0.759737
 586	1	6	-0.000174	-7.67946	29.506	-0.614648
 587	1	5	0.1602	-6.58819	31.8073	-1.78216
 588	1	4	0.461284	-2.52445	32.4186	-1.3459
 589	1	1	-0.167191	-8.60472	29.6212	-1.69518
 590	1	5	0.164364	-7.45759	28.8162	1.44759
 591	1	1	-0.325009	-9.92006	29.1009	-1.5954
 592	1	8	0.422373	-9.62465	27.4806	2.53791
 593	1	1	-0.217421	-8.1225	28.9145	0.59657
 594	1	5	0.173851	-0.0302904	32.2153	-0.380334
 595	1	5	0.197073	1.35366	36.1382	-1.38311
 596	1	6	0.024852	-6.24745	29.9159	-0.735485
 597	1	1	0.048807	-4.48813	31.4629	-1.33734
 598	1	1	0.060532	-0.660426	35.6847	-2.0595
 599	1	5	0.140008	-5.52818	28.1352	0.290863
 600	1	5	0.202663	-10.616	29.1292	-2.42649
 601	1	1	-0.222969	-5.85202	31.1341	-1.35583
 602	1	1	0.35235	-3.54225	30.6633	-0.752608
 603	1	1	0.269742	0.806812	34.1482	-0.798264
 604	1	1	-0.166682	-5.24288	29.0791	-0.165222
 605	1	1	-0.277787	-3.8836	29.4459	-0.169059
 606	1	1	-0.312482	-0.207088	33.1792	-0.854606
 607	1	9	0.442075	-0.931686	37.0334	-2.78377
 608	1	5	0.128262	-2.62287	34.8984	-2.50809
 609	1	3	-0.434358	-3.84963	32.5946	-1.76318
 610	1	8	0.354457	-4.25089	33.4204	-2.16696
 611	1	1	-0.233188	-1.66712	34.6927	-2.0395
 612	1	5	0.143867	-8.27317	30.0618	-2.63234
 613	1	9	-0.2502	-1.23398	36.7729	-4.2793
 614	1	9	-0.249785	0.266767	38.0158	-2.72047
 615	1	9	-0.32829	-2.14436	37.7498	-2.14356
 616	1	10	0.056572	0.511889	38.2736	-1.68273
 617	1	10	0.044267	0.0361663	38.9515	-3.24551
 618	1	10	0.051935	1.15691	37.584	-3.1951
 619	1	10	0.069302	-1.97164	37.9171	-1.07308
 620	1	10	0.077707	-3.06174	37.1599	-2.24855
 621	1	10	0.059383	-2.32147	38.7244	-2.61558
 622	1	10	0.048889	-0.402771	36.2347	-4.75245
 623	1	10	0.055177	-1.38081	37.7145	-4.82296
 624	1	10	0.04962	-2.14063	36.1704	-4.40871
 625	1	1	0.438909	-8.15088	23.4292	12.7086
 626	1	1	0.108796	-8.58841	22.2738	12.1206
 627	1	2	-0.726889	-7.33168	23.1786	13.7487
 628	1	3	-0.675747	-8.02703	21.2308	12.7919
 629	1	1	-0.43042	-13.3517	25.9544	1.22558
 630	1	4	0.62373	-7.24684	21.8368	13.7882
 631	1	1	0.00157	-12.7641	25.158	3.86055
 632	1	5	0.178696	-13.5493	21.973	7.94821
 633	1	2	-0.592725	-13.1224	23.7381	5.86924
 634	1	6	-0.000174	-9.85471	23.5004	10.4691
 635	1	5	0.1602	-9.69484	25.1656	8.26484
 636	1	4	0.461284	-12.4419	24.7013	5.22866
 637	1	1	-0.167191	-9.38697	24.7019	11.0806
 638	1	5	0.164364	-9.75373	21.318	10.5658
 639	1	1	-0.325009	-8.53736	24.6737	12.2107