pySIMM System Object

770 atoms
849 bonds
1472 angles
2252 dihedrals
192 impropers

10 atom types
14 bond types
23 angle types
11 dihedral types
3 improper types

-131.427709 131.427709 xlo xhi
-131.427709 131.427709 ylo yhi
-131.427709 131.427709 zlo zhi

Masses

   1	12.01	# ca
   2	14.01	# nc
   3	14.01	# na
   4	12.01	# cd
   5	1.008	# ha
   6	12.01	# cp
   7	1.008	# h5
   8	1.008	# hn
   9	12.01	# c3
  10	1.008	# hc

Pair Coeffs

   1	0.086	3.3996695084235347	# ca
   2	0.17	3.249998523775958	# nc
   3	0.17	3.249998523775958	# na
   4	0.086	3.3996695084235347	# cd
   5	0.015	2.59964245953351	# ha
   6	0.086	3.3996695084235347	# cp
   7	0.015	2.421462715905442	# h5
   8	0.0157	1.069078461768407	# hn
   9	0.1094	3.3996695084235347	# c3
  10	0.0157	2.649532787749369	# hc

Bond Coeffs

   1	425.8	1.3802	# cd,na
   2	467.7	1.3517	# ca,nc
   3	345.8	1.086	# ca,ha
   4	351.8	1.0818	# cd,h5
   5	385.1	1.4555	# ca,cd
   6	351.4	1.4854	# cp,cp
   7	321.0	1.5156	# c3,ca
   8	525.4	1.3172	# cd,nc
   9	300.9	1.5375	# c3,c3
  10	330.6	1.0969	# c3,hc
  11	450.2	1.4058	# ca,cp
  12	420.5	1.384	# ca,na
  13	408.4	1.01	# hn,na
  14	461.1	1.3984	# ca,ca

Angle Coeffs

   1	66.72	118.38	# ca,cp,ca
   2	62.86	111.51	# c3,c3,c3
   3	66.26	120.69	# ca,ca,cp
   4	63.15	112.07	# c3,c3,ca
   5	67.4	113.15	# ca,na,cd
   6	46.34	109.8	# c3,c3,hc
   7	66.28	123.45	# ca,cd,na
   8	48.18	119.88	# ca,ca,ha
   9	67.6	123.24	# ca,cd,nc
  10	64.05	121.11	# ca,cp,cp
  11	46.75	125.5	# cd,na,hn
  12	66.62	120.02	# ca,ca,ca
  13	72.48	104.88	# ca,nc,cd
  14	74.9	112.22	# na,cd,nc
  15	46.63	125.54	# ca,na,hn
  16	65.02	120.79	# ca,ca,cd
  17	69.46	119.72	# ca,ca,nc
  18	47.98	119.86	# cp,ca,ha
  19	39.4	107.58	# hc,c3,hc
  20	63.53	120.77	# c3,ca,ca
  21	69.08	118.34	# ca,ca,na
  22	49.58	121.55	# h5,cd,na
  23	50.58	125.52	# h5,cd,nc

Dihedral Coeffs

   1	1	4.0	2	180	# X,ca,cd,X
   2	1	3.625	2	180	# X,ca,cp,X
   3	1	4.75	2	180	# X,cd,nc,X
   4	1	0.3	2	180	# X,ca,na,X
   5	1	3.625	2	180	# X,ca,ca,X
   6	1	1.7	2	180	# X,cd,na,X
   7	1	1.0	2	180	# X,cp,cp,X
   8	1	0.16	3	0	# hc,c3,c3,c3
   9	1	0.15555555555555556	3	0	# X,c3,c3,X
  10	1	0.0	2	0	# X,c3,ca,X
  11	1	4.8	2	180	# X,ca,nc,X

Improper Coeffs

   1	1.1	-1	2	# na,X,X,hn
   2	1.1	-1	2	# ca,ca,ca,c3
   3	1.1	-1	2	# ca,X,X,ha

Atoms

   1	1	1	0.438909	-39.5079	-42.3538	27.3881
   2	1	1	0.108796	-40.4567	-42.2364	26.4098
   3	1	2	-0.726889	-38.3793	-41.6921	27.0669
   4	1	3	-0.675747	-39.9421	-41.4623	25.4222
   5	1	1	-0.43042	-50.4882	-47.1093	32.0028
   6	1	4	0.62373	-38.6436	-41.1707	25.8564
   7	1	1	0.00157	-48.2621	-46.3606	30.4527
   8	1	5	0.178696	-45.9145	-45.6267	25.819
   9	1	2	-0.592725	-47.0833	-46.0168	28.2929
  10	1	6	-0.000174	-42.0016	-43.6446	27.611
  11	1	5	0.1602	-43.4102	-44.2063	29.9222
  12	1	4	0.461284	-47.1113	-45.9403	29.6338
  13	1	1	-0.167191	-41.0087	-43.7614	28.6334
  14	1	5	0.164364	-42.4251	-42.7132	25.6734
  15	1	1	-0.325009	-39.7549	-43.1162	28.5281
  16	1	8	0.422373	-40.3569	-41.2271	24.5418
  17	1	1	-0.217421	-41.7035	-42.8544	26.4698
  18	1	5	0.173851	-49.4641	-46.9849	28.7634
  19	1	5	0.197073	-51.3735	-47.3863	32.5639
  20	1	6	0.024852	-43.3342	-44.3146	27.7381
  21	1	1	0.048807	-45.175	-45.1203	29.0772
  22	1	1	0.060532	-49.3424	-46.6108	32.6621
  23	1	5	0.140008	-43.6403	-44.5936	25.5963
  24	1	5	0.202663	-38.9878	-43.2097	29.289
  25	1	1	-0.222969	-43.9137	-44.5258	29.0167
  26	1	1	0.35235	-45.8805	-45.5013	27.9687
  27	1	1	0.269742	-50.5246	-47.2506	30.611
  28	1	1	-0.166682	-44.0704	-44.7267	26.5841
  29	1	1	-0.277787	-45.3479	-45.3199	26.6918
  30	1	1	-0.312482	-49.4182	-46.88	29.8442
  31	1	9	0.442075	-49.3366	-46.4425	34.2076
  32	1	5	0.128262	-47.3522	-45.8299	32.3252
  33	1	3	-0.434358	-45.9405	-45.3971	30.1655
  34	1	8	0.354457	-45.73	-45.2344	31.1331
  35	1	1	-0.233188	-48.2396	-46.2361	31.8595
  36	1	5	0.143867	-41.2063	-44.3784	29.5049
  37	1	9	-0.2502	-47.9227	-46.1942	34.7979
  38	1	9	-0.249785	-49.8963	-47.7122	34.8983
  39	1	9	-0.32829	-50.224	-45.2364	34.5885
  40	1	10	0.056572	-49.3611	-48.6057	34.553
  41	1	10	0.044267	-50.9631	-47.8522	34.6893
  42	1	10	0.051935	-49.787	-47.6521	35.9882
  43	1	10	0.069302	-49.829	-44.3123	34.1482
  44	1	10	0.077707	-50.269	-45.1054	35.6766
  45	1	10	0.059383	-51.2483	-45.3711	34.2196
  46	1	10	0.048889	-47.2334	-47.0011	34.5186
  47	1	10	0.055177	-47.9579	-46.1501	35.8939
  48	1	10	0.04962	-47.5048	-45.2404	34.4539
  49	1	1	0.438909	-26.571	-35.0842	24.6058
  50	1	1	0.108796	-27.6669	-35.2552	23.8128
  51	1	2	-0.726889	-25.5911	-34.4215	23.9443
  52	1	3	-0.675747	-27.4053	-34.7235	22.6
  53	1	1	-0.43042	-38.0063	-39.9848	23.7328
  54	1	4	0.62373	-26.0886	-34.2717	22.7
  55	1	1	0.00157	-35.3722	-39.6489	24.652
  56	1	5	0.178696	-31.8093	-38.7935	28.456
  57	1	2	-0.592725	-33.5949	-39.4687	26.4125
  58	1	6	-0.000174	-28.7973	-36.6299	25.4454
  59	1	5	0.1602	-30.6025	-37.7971	23.7137
  60	1	4	0.461284	-34.0002	-39.4083	25.1299
  61	1	1	-0.167191	-27.6639	-36.4322	26.2963
  62	1	5	0.164364	-29.6188	-36.0301	23.4939
  63	1	1	-0.325009	-26.5496	-35.6497	25.8857
  64	1	8	0.422373	-27.9983	-34.6908	21.7943
  65	1	1	-0.217421	-28.7899	-35.9756	24.1843
  66	1	5	0.173851	-36.0737	-40.5327	26.4912
  67	1	5	0.197073	-39.0209	-40.1304	23.392
  68	1	6	0.024852	-29.9681	-37.5078	25.7996
  69	1	1	0.048807	-31.9779	-38.6483	25.0935
  70	1	1	0.060532	-37.0681	-39.3685	22.8785
  71	1	5	0.140008	-29.7042	-37.5088	27.9643
  72	1	5	0.202663	-25.6701	-35.5302	26.5083
  73	1	1	-0.222969	-30.8137	-37.9748	24.7585
  74	1	1	0.35235	-32.3487	-38.9391	26.3737
  75	1	1	0.269742	-37.658	-40.4392	25.0255
  76	1	1	-0.166682	-30.3239	-37.8529	27.1417
  77	1	1	-0.277787	-31.5095	-38.5791	27.4355
  78	1	1	-0.312482	-36.3482	-40.2154	25.4861
  79	1	9	0.442075	-37.4436	-38.8551	21.4583
  80	1	5	0.128262	-34.998	-38.8307	22.6921
  81	1	3	-0.434358	-32.9976	-38.9752	24.2705
  82	1	8	0.354457	-33.0703	-38.8317	23.2811
  83	1	1	-0.233188	-35.7426	-39.2678	23.3439
  84	1	5	0.143867	-27.6323	-36.9225	27.2654
  85	1	9	-0.2502	-36.9333	-39.8625	20.4047
  86	1	9	-0.249785	-36.816	-37.4651	21.1718
  87	1	9	-0.32829	-38.9733	-38.6887	21.2625
  88	1	10	0.056572	-37.1461	-37.0781	20.1995
  89	1	10	0.044267	-35.7217	-37.5019	21.1421
  90	1	10	0.051935	-37.1127	-36.7397	21.94
  91	1	10	0.069302	-39.3957	-38.035	22.0365
  92	1	10	0.077707	-39.4904	-39.6543	21.2962
  93	1	10	0.059383	-39.1994	-38.2394	20.2873
  94	1	10	0.048889	-37.3713	-40.8539	20.5753
  95	1	10	0.055177	-35.8424	-39.9644	20.4549
  96	1	10	0.04962	-37.1987	-39.5425	19.3894
  97	1	1	0.438909	-15.12	-27.7343	17.7653
  98	1	1	0.108796	-14.9015	-28.5331	18.8542
  99	1	2	-0.726889	-13.9648	-27.2713	17.2521
 100	1	3	-0.675747	-13.5572	-28.6192	19.0441
 101	1	1	-0.43042	-25.9039	-33.9766	20.2209
 102	1	4	0.62373	-13.0156	-27.7946	18.0487
 103	1	1	0.00157	-23.4485	-32.6502	20.4568
 104	1	5	0.178696	-19.4372	-30.448	23.088
 105	1	2	-0.592725	-21.5511	-31.5685	21.6773
 106	1	6	-0.000174	-17.268	-28.86	19.1852
 107	1	5	0.1602	-19.533	-29.9625	18.0974
 108	1	4	0.461284	-22.2031	-31.8682	20.5422
 109	1	1	-0.167191	-17.4906	-28.0393	18.0381
 110	1	5	0.164364	-15.7185	-29.7472	20.4472
 111	1	1	-0.325009	-16.4148	-27.463	17.324
 112	1	8	0.422373	-13.066	-29.0833	19.7834
 113	1	1	-0.217421	-15.9328	-29.1076	19.5984
 114	1	5	0.173851	-23.6687	-32.9655	22.59
 115	1	5	0.197073	-26.849	-34.4928	20.1271
 116	1	6	0.024852	-18.4067	-29.4978	19.9105
 117	1	1	0.048807	-20.497	-30.6913	19.8911
 118	1	1	0.060532	-25.2196	-33.6209	19.0427
 119	1	5	0.140008	-17.571	-29.2401	21.9027
 120	1	5	0.202663	-16.5667	-26.8218	16.4626
 121	1	1	-0.222969	-19.4984	-30.0271	19.1797
 122	1	1	0.35235	-20.4883	-30.8496	21.25
 123	1	1	0.269742	-25.3535	-33.7737	21.5091
 124	1	1	-0.166682	-18.3978	-29.6506	21.3299
 125	1	1	-0.277787	-19.4424	-30.3209	22.0107
 126	1	1	-0.312482	-24.1037	-33.1351	21.6063
 127	1	9	0.442075	-25.8002	-33.9893	17.6477
 128	1	5	0.128262	-23.481	-32.5896	18.3085
 129	1	3	-0.434358	-21.5868	-31.3338	19.4108
 130	1	8	0.354457	-21.9023	-31.3976	18.4614
 131	1	1	-0.233188	-24.009	-32.9209	19.1916
 132	1	5	0.143867	-18.509	-27.8354	17.7169
 133	1	9	-0.2502	-24.7704	-33.8445	16.4958
 134	1	9	-0.249785	-27.0049	-33.0747	17.3354
 135	1	9	-0.32829	-26.2751	-35.4658	17.6276
 136	1	10	0.056572	-27.4843	-33.3625	16.3916
 137	1	10	0.044267	-26.6845	-32.0287	17.2501
 138	1	10	0.051935	-27.7583	-33.1309	18.1303
 139	1	10	0.069302	-25.4713	-36.1327	17.9652
 140	1	10	0.077707	-26.5644	-35.7745	16.6154
 141	1	10	0.059383	-27.1454	-35.6271	18.2729
 142	1	10	0.048889	-25.1976	-34.1767	15.5413
 143	1	10	0.055177	-23.8777	-34.4527	16.6911
 144	1	10	0.04962	-24.4605	-32.8014	16.3604
 145	1	1	0.438909	-5.73818	-17.5771	13.3639
 146	1	1	0.108796	-6.29851	-18.2457	12.3102
 147	1	2	-0.726889	-5.18532	-16.4155	12.976
 148	1	3	-0.675747	-6.0878	-17.5013	11.1871
 149	1	1	-0.43042	-10.6159	-28.0169	18.8247
 150	1	4	0.62373	-5.39606	-16.3724	11.65
 151	1	1	0.00157	-9.80231	-26.074	16.9608
 152	1	5	0.178696	-10.9658	-22.6123	13.2185
 153	1	2	-0.592725	-10.2431	-24.4594	15.1302
 154	1	6	-0.000174	-7.07604	-20.0107	13.7642
 155	1	5	0.1602	-6.51944	-22.1176	15.4851
 156	1	4	0.461284	-9.41686	-24.9804	16.0498
 157	1	1	-0.167191	-6.45712	-19.3228	14.8502
 158	1	5	0.164364	-7.4361	-19.9479	11.6062
 159	1	1	-0.325009	-5.78721	-18.0945	14.6566
 160	1	8	0.422373	-6.35919	-17.7056	10.2448
 161	1	1	-0.217421	-6.98351	-19.4544	12.4589
 162	1	5	0.173851	-11.8571	-26.0972	16.3033
 163	1	5	0.197073	-10.9513	-28.7341	19.5603
 164	1	6	0.024852	-7.88259	-21.2424	14.0148
 165	1	1	0.048807	-8.3234	-23.291	15.218
 166	1	1	0.060532	-9.25515	-27.6328	18.7935
 167	1	5	0.140008	-9.48113	-20.6641	12.6575
 168	1	5	0.202663	-5.33929	-17.5413	15.4748
 169	1	1	-0.222969	-7.46596	-22.2149	14.9638
 170	1	1	0.35235	-9.55054	-23.421	14.6256
 171	1	1	0.269742	-11.5703	-27.4671	17.9381
 172	1	1	-0.166682	-9.13836	-21.4163	13.3624
 173	1	1	-0.277787	-9.98583	-22.5022	13.6703
 174	1	1	-0.312482	-11.1289	-26.5364	16.9835
 175	1	9	0.442075	-8.22594	-28.2017	19.8131
 176	1	5	0.128262	-7.86364	-26.2664	17.8597
 177	1	3	-0.434358	-8.18969	-24.3138	16.1085
 178	1	8	0.354457	-7.4498	-24.4719	16.7669
 179	1	1	-0.233188	-8.88288	-26.6292	17.8724
 180	1	5	0.143867	-6.5452	-19.724	15.8565
 181	1	9	-0.2502	-8.23106	-27.3045	21.0701
 182	1	9	-0.249785	-6.78346	-28.2424	19.2414
 183	1	9	-0.32829	-8.56445	-29.6524	20.2477
 184	1	10	0.056572	-6.09897	-28.7458	19.9357
 185	1	10	0.044267	-6.37803	-27.2376	19.078
 186	1	10	0.051935	-6.75688	-28.7872	18.2892
 187	1	10	0.069302	-9.49084	-29.6999	20.8302
 188	1	10	0.077707	-7.77235	-30.066	20.8844
 189	1	10	0.059383	-8.66763	-30.3067	19.3728
 190	1	10	0.048889	-7.52593	-27.6728	21.8255
 191	1	10	0.055177	-9.23074	-27.2743	21.5211
 192	1	10	0.04962	-7.94969	-26.2755	20.8134
 193	1	1	0.438909	3.77227	-6.80524	11.7927
 194	1	1	0.108796	3.0379	-6.57972	12.9274
 195	1	2	-0.726889	4.64872	-5.82333	11.5591
 196	1	3	-0.675747	3.5053	-5.42483	13.4921
 197	1	1	-0.43042	-5.04463	-15.284	9.38148
 198	1	4	0.62373	4.43748	-4.95048	12.5549
 199	1	1	0.00157	-3.68425	-13.144	10.6099
 200	1	5	0.178696	-1.46082	-11.0629	14.8725
 201	1	2	-0.592725	-2.74025	-11.9953	12.6026
 202	1	6	-0.000174	1.55943	-8.40616	12.3729
 203	1	5	0.1602	-0.130109	-9.23598	10.4043
 204	1	4	0.461284	-2.91675	-12.0748	11.2728
 205	1	1	-0.167191	2.38813	-8.67148	11.2427
 206	1	5	0.164364	1.29294	-7.10082	14.1113
 207	1	1	-0.325009	3.49902	-7.86597	10.9391
 208	1	8	0.422373	3.10176	-4.905	14.2482
 209	1	1	-0.217421	1.91314	-7.3476	13.2563
 210	1	5	0.173851	-4.12651	-14.1533	12.4585
 211	1	5	0.197073	-5.55177	-16.1247	8.92782
 212	1	6	0.024852	0.318619	-9.21512	12.5448
 213	1	1	0.048807	-1.47211	-10.4829	11.5417
 214	1	1	0.060532	-4.49714	-14.2627	8.56645
 215	1	5	0.140008	0.460381	-9.43615	14.7043
 216	1	5	0.202663	4.09618	-8.00993	10.0456
 217	1	1	-0.222969	-0.41281	-9.593	11.3887
 218	1	1	0.35235	-1.82609	-11.0161	12.7491
 219	1	1	0.269742	-4.9066	-15.2651	10.7882
 220	1	1	-0.166682	-0.102619	-9.70593	13.8149
 221	1	1	-0.277787	-1.17886	-10.6189	13.9237
 222	1	1	-0.312482	-4.24443	-14.1756	11.3767
 223	1	9	0.442075	-4.56008	-14.2964	7.01238
 224	1	5	0.128262	-3.36127	-12.43	8.60341
 225	1	3	-0.434358	-2.20184	-11.1014	10.5763
 226	1	8	0.354457	-2.11446	-11.0132	9.58144
 227	1	1	-0.233188	-3.81387	-13.207	9.20857
 228	1	5	0.143867	2.14303	-9.49545	10.5778
 229	1	9	-0.2502	-3.14164	-14.5398	6.44388
 230	1	9	-0.249785	-5.09814	-12.9544	6.45439
 231	1	9	-0.32829	-5.47894	-15.4167	6.46097
 232	1	10	0.056572	-5.23952	-13.0074	5.3675
 233	1	10	0.044267	-4.40845	-12.1253	6.64998
 234	1	10	0.051935	-6.06515	-12.7062	6.90925
 235	1	10	0.069302	-5.10823	-16.4097	6.74242
 236	1	10	0.077707	-5.51809	-15.3857	5.36479
 237	1	10	0.059383	-6.5042	-15.3033	6.83472
 238	1	10	0.048889	-3.15358	-14.5675	5.34696
 239	1	10	0.055177	-2.74026	-15.4959	6.80293
 240	1	10	0.04962	-2.44692	-13.7488	6.75103
 241	1	1	0.438909	9.76823	2.94808	3.01285
 242	1	1	0.108796	10.4957	2.48613	4.07745
 243	1	2	-0.726889	10.5542	3.54177	2.09593
 244	1	3	-0.675747	11.8004	2.78854	3.85079
 245	1	1	-0.43042	4.91214	-2.68776	13.6189
 246	1	4	0.62373	11.7941	3.41755	2.59999
 247	1	1	0.00157	6.12869	-1.83106	11.2247
 248	1	5	0.178696	6.68916	-2.71238	6.12867
 249	1	2	-0.592725	6.52583	-2.17534	8.81724
 250	1	6	-0.000174	8.55704	1.44814	5.04654
 251	1	5	0.1602	8.21718	1.77512	7.78345
 252	1	4	0.461284	6.61724	-1.393	9.90342
 253	1	1	-0.167191	7.7947	1.94435	3.94942
 254	1	5	0.164364	10.5586	1.3287	5.90788
 255	1	1	-0.325009	8.39585	2.71225	2.92723
 256	1	8	0.422373	12.6004	2.51059	4.38554
 257	1	1	-0.217421	9.94201	1.7386	5.11501
 258	1	5	0.173851	5.7369	-3.82649	10.5276
 259	1	5	0.197073	4.41	-3.02643	14.5151
 260	1	6	0.024852	7.95796	0.505624	6.02325
 261	1	1	0.048807	7.3603	-0.165497	8.26087
 262	1	1	0.060532	5.44704	-1.37761	13.5517
 263	1	5	0.140008	7.58116	-1.00005	4.50558
 264	1	5	0.202663	7.83997	3.07053	2.06771
 265	1	1	-0.222969	7.88519	0.812373	7.40848
 266	1	1	0.35235	6.96304	-1.39859	7.81467
 267	1	1	0.269742	5.03346	-3.59178	12.5424
 268	1	1	-0.166682	7.51056	-0.764923	5.56515
 269	1	1	-0.277787	7.01879	-1.73363	6.46158
 270	1	1	-0.312482	5.67075	-3.14694	11.3757
 271	1	9	0.442075	5.30535	-0.391068	14.7459
 272	1	5	0.128262	6.37987	0.0549129	12.2147
 273	1	3	-0.434358	7.14122	-0.130349	9.60918
 274	1	8	0.354457	7.28318	0.632325	10.2454
 275	1	1	-0.233188	6.03592	-0.964496	12.3316
 276	1	5	0.143867	6.73678	1.6988	3.88719
 277	1	9	-0.2502	6.46125	0.642381	14.7948
 278	1	9	-0.249785	5.30873	-1.12807	16.1119
 279	1	9	-0.32829	3.97068	0.373892	14.6115
 280	1	10	0.056572	5.35451	-0.416534	16.9457
 281	1	10	0.044267	6.17583	-1.79599	16.1919
 282	1	10	0.051935	4.39918	-1.72246	16.2557
 283	1	10	0.069302	3.94148	0.942347	13.6736
 284	1	10	0.077707	3.83122	1.07649	15.4423
 285	1	10	0.059383	3.12231	-0.321876	14.6064
 286	1	10	0.048889	7.43512	0.136857	14.78
 287	1	10	0.055177	6.41035	1.24793	15.7083
 288	1	10	0.04962	6.41957	1.34163	13.9521
 289	1	1	0.438909	16.855	11.0736	-6.98943
 290	1	1	0.108796	15.7669	10.5496	-7.64083
 291	1	2	-0.726889	17.8411	11.3949	-7.83021
 292	1	3	-0.675747	16.0081	10.6832	-8.98806
 293	1	1	-0.43042	14.295	3.6963	2.49524
 294	1	4	0.62373	17.3507	11.0974	-9.04058
 295	1	1	0.00157	14.1035	4.89024	-0.0456176
 296	1	5	0.178696	11.2515	7.16096	-3.85516
 297	1	2	-0.592725	12.8137	5.84398	-1.96246
 298	1	6	-0.000174	14.9903	9.58811	-5.55626
 299	1	5	0.1602	16.1945	7.91123	-3.83217
 300	1	4	0.461284	13.9808	5.58613	-1.34205
 301	1	1	-0.167191	16.0216	10.3151	-4.89285
 302	1	5	0.164364	14.0694	9.19294	-7.50569
 303	1	1	-0.325009	16.9823	11.0416	-5.60925
 304	1	8	0.422373	15.4773	10.2921	-9.74495
 305	1	1	-0.217421	14.8204	9.75848	-6.96378
 306	1	5	0.173851	11.9785	4.57755	0.160332
 307	1	5	0.197073	14.3449	3.26514	3.48427
 308	1	6	0.024852	14.3099	8.52128	-4.75931
 309	1	1	0.048807	14.5098	6.85253	-3.02042
 310	1	1	0.060532	15.4846	4.08993	1.84503
 311	1	5	0.140008	12.2708	8.83497	-5.45247
 312	1	5	0.202663	17.8572	11.4694	-5.13361
 313	1	1	-0.222969	15.1206	7.76295	-3.87347
 314	1	1	0.35235	13.1599	6.64981	-2.99037
 315	1	1	0.269742	13.025	3.85725	1.89939
 316	1	1	-0.166682	12.9078	8.26085	-4.7848
 317	1	1	-0.277787	12.3239	7.32328	-3.89293
 318	1	1	-0.312482	12.9539	4.44293	0.625461
 319	1	9	0.442075	16.8759	3.90591	2.52292
 320	1	5	0.128262	16.2476	5.05903	0.0734792
 321	1	3	-0.434358	15.0707	6.14277	-2.0074
 322	1	8	0.354457	16.0253	6.14979	-1.69995
 323	1	1	-0.233188	15.3584	4.70459	0.57832
 324	1	5	0.143867	16.1412	10.2141	-3.81675
 325	1	9	-0.2502	17.9834	3.57617	1.48917
 326	1	9	-0.249785	16.8791	2.74777	3.5583
 327	1	9	-0.32829	17.2657	5.20513	3.26247
 328	1	10	0.056572	17.8939	2.54325	3.92175
 329	1	10	0.044267	16.4905	1.82369	3.11159
 330	1	10	0.051935	16.2737	2.98921	4.4399
 331	1	10	0.069302	16.5588	5.41832	4.07414
 332	1	10	0.077707	17.2574	6.06181	2.57784
 333	1	10	0.059383	18.2695	5.12642	3.69902
 334	1	10	0.048889	18.183	4.41972	0.819402
 335	1	10	0.055177	17.6995	2.70812	0.881105
 336	1	10	0.04962	18.9311	3.3398	1.98967
 337	1	1	0.438909	28.8173	10.5977	-5.73815
 338	1	1	0.108796	29.192	9.6674	-6.67118
 339	1	2	-0.726889	29.8673	11.1829	-5.1559
 340	1	3	-0.675747	30.5649	9.54609	-6.57869
 341	1	1	-0.43042	17.7928	11.2278	-11.5538
 342	1	4	0.62373	30.9346	10.601	-5.72009
 343	1	1	0.00157	20.5402	10.7466	-11.0593
 344	1	5	0.178696	25.6504	9.77818	-12.2023
 345	1	2	-0.592725	22.9537	10.1979	-11.6007
 346	1	6	-0.000174	26.9467	9.72105	-7.63754
 347	1	5	0.1602	24.1983	9.61794	-7.42211
 348	1	4	0.461284	21.9339	10.3485	-10.7339
 349	1	1	-0.167191	26.5821	10.6065	-6.57814
 350	1	5	0.164364	28.6302	8.59198	-8.47952
 351	1	1	-0.325009	27.5135	11.0573	-5.63044
 352	1	8	0.422373	31.1753	9.10178	-7.24171
 353	1	1	-0.217421	28.2939	9.23019	-7.6697
 354	1	5	0.173851	19.9383	10.7368	-8.98698
 355	1	5	0.197073	16.7398	11.4195	-11.7259
 356	1	6	0.024852	25.9401	9.53353	-8.74601
 357	1	1	0.048807	23.6453	9.78403	-9.49557
 358	1	1	0.060532	18.711	11.299	-12.6322
 359	1	5	0.140008	27.3699	9.51501	-10.3859
 360	1	5	0.202663	27.2725	11.8285	-4.90798
 361	1	1	-0.222969	24.5512	9.61018	-8.44728
 362	1	1	0.35235	24.0093	9.86859	-10.8091
 363	1	1	0.269742	18.2417	11.0819	-10.2281
 364	1	1	-0.166682	26.3157	9.53919	-10.1252
 365	1	1	-0.277787	25.3555	9.70067	-11.1614
 366	1	1	-0.312482	19.6137	10.8789	-10.0109
 367	1	9	0.442075	18.1961	11.736	-14.0359
 368	1	5	0.128262	20.8079	10.987	-13.1705
 369	1	3	-0.434358	22.3211	10.0651	-9.42131
 370	1	8	0.354457	21.7444	10.1053	-8.60137
 371	1	1	-0.233188	20.0778	11.0085	-12.3669
 372	1	5	0.143867	25.5928	11.0534	-6.56024
 373	1	9	-0.2502	19.316	11.861	-15.0984
 374	1	9	-0.249785	17.5144	13.1264	-13.933
 375	1	9	-0.32829	17.1515	10.7269	-14.5697
 376	1	10	0.056572	16.6284	13.1001	-13.2886
 377	1	10	0.044267	17.194	13.4858	-14.9192
 378	1	10	0.051935	18.2093	13.8672	-13.5169
 379	1	10	0.069302	16.7583	11.0472	-15.5433
 380	1	10	0.077707	16.3024	10.6252	-13.885
 381	1	10	0.059383	17.6033	9.73566	-14.6978
 382	1	10	0.048889	18.9054	12.1767	-16.0663
 383	1	10	0.055177	19.8248	10.9021	-15.2534
 384	1	10	0.04962	20.0626	12.607	-14.7971
 385	1	1	0.438909	25.8468	18.2782	-10.315
 386	1	1	0.108796	26.8755	18.9006	-10.972
 387	1	2	-0.726889	24.6491	18.8231	-10.6001
 388	1	3	-0.675747	26.3173	19.888	-11.73
 389	1	1	-0.43042	33.5152	10.7422	-5.83568
 390	1	4	0.62373	24.9386	19.8092	-11.4621
 391	1	1	0.00157	33.208	13.4721	-6.43829
 392	1	5	0.178696	33.1301	16.4792	-10.6973
 393	1	2	-0.592725	33.4256	15.2566	-8.18683
 394	1	6	-0.000174	28.5244	17.4993	-9.88581
 395	1	5	0.1602	29.3323	16.6244	-7.45406
 396	1	4	0.461284	32.8663	14.7668	-7.06277
 397	1	1	-0.167191	27.4291	16.8191	-9.26433
 398	1	5	0.164364	29.0167	19.102	-11.295
 399	1	1	-0.325009	26.0898	17.21	-9.46076
 400	1	8	0.422373	26.7801	20.5291	-12.3448
 401	1	1	-0.217421	28.2257	18.5541	-10.7947
 402	1	5	0.173851	31.1525	13.1532	-5.8751
 403	1	5	0.197073	33.6055	9.68333	-5.61887
 404	1	6	0.024852	29.9261	17.1122	-9.49955
 405	1	1	0.048807	31.3775	16.1231	-7.84369
 406	1	1	0.060532	34.6695	11.5636	-5.95849
 407	1	5	0.140008	30.9113	17.4399	-11.4143
 408	1	5	0.202663	25.2625	16.7144	-8.96521
 409	1	1	-0.222969	30.135	16.6408	-8.18184
 410	1	1	0.35235	32.4375	16.0415	-8.70029
 411	1	1	0.269742	32.2328	11.3294	-5.77633
 412	1	1	-0.166682	31.0468	17.1042	-10.3897
 413	1	1	-0.277787	32.3086	16.5717	-9.99447
 414	1	1	-0.312482	32.1471	12.7245	-5.89927
 415	1	9	0.442075	36.0746	11.1261	-5.44632
 416	1	5	0.128262	35.3321	13.4808	-6.7593
 417	1	3	-0.434358	31.6629	15.3904	-6.75085
 418	1	8	0.354457	31.0279	15.1099	-6.02622
 419	1	1	-0.233188	34.4805	12.8739	-6.4625
 420	1	5	0.143867	27.6213	15.9735	-8.61024
 421	1	9	-0.2502	36.6539	12.2383	-4.52934
 422	1	9	-0.249785	37.0682	10.8728	-6.59979
 423	1	9	-0.32829	36.0118	9.84707	-4.56978
 424	1	10	0.056572	36.7512	10.0186	-7.20911
 425	1	10	0.044267	38.0698	10.6546	-6.20535
 426	1	10	0.051935	37.1485	11.7511	-7.25123
 427	1	10	0.069302	35.2948	9.97336	-3.74795
 428	1	10	0.077707	36.9896	9.62811	-4.12216
 429	1	10	0.059383	35.7174	8.97024	-5.15766
 430	1	10	0.048889	36.8704	13.1559	-5.08885
 431	1	10	0.055177	37.59	11.9201	-4.05331
 432	1	10	0.04962	35.9431	12.4915	-3.73172
 433	1	1	0.438909	13.2496	22.1284	-17.4698
 434	1	1	0.108796	13.3619	23.2227	-16.6585
 435	1	2	-0.726889	12.159	22.1824	-18.2455
 436	1	3	-0.675747	12.3366	24.0761	-16.9878
 437	1	1	-0.43042	24.2744	21.6458	-13.0506
 438	1	4	0.62373	11.5676	23.3384	-17.9081
 439	1	1	0.00157	21.5645	21.3728	-12.361
 440	1	5	0.178696	17.1264	23.7334	-11.3573
 441	1	2	-0.592725	19.3714	22.1267	-11.6065
 442	1	6	-0.000174	15.1827	22.172	-15.417
 443	1	5	0.1602	17.4603	20.5611	-15.1975
 444	1	4	0.461284	20.1202	21.1734	-12.1899
 445	1	1	-0.167191	15.0673	21.0702	-16.3223
 446	1	5	0.164364	14.328	24.1488	-14.9625
 447	1	1	-0.325009	14.1061	21.0425	-17.3506
 448	1	8	0.422373	12.0289	24.8847	-16.478
 449	1	1	-0.217421	14.2982	23.2823	-15.6113
 450	1	5	0.173851	22.2298	19.7969	-11.0364
 451	1	5	0.197073	25.319	21.7342	-13.312
 452	1	6	0.024852	16.2036	22.1281	-14.3012
 453	1	1	0.048807	18.25	21.2402	-13.3281
 454	1	1	0.060532	23.3168	22.4479	-13.7115
 455	1	5	0.140008	15.3058	23.6944	-13.0724
 456	1	5	0.202663	13.9782	20.1849	-18.001
 457	1	1	-0.222969	17.3041	21.2223	-14.3559
 458	1	1	0.35235	18.2123	22.1301	-12.2978
 459	1	1	0.269742	23.9057	20.6848	-12.0814
 460	1	1	-0.166682	16.1342	23.0011	-13.1696
 461	1	1	-0.277787	17.143	23.0206	-12.1749
 462	1	1	-0.312482	22.5355	20.549	-11.7607
 463	1	9	0.442075	23.6667	23.4033	-14.8831
 464	1	5	0.128262	21.2047	22.8854	-13.8316
 465	1	3	-0.434358	19.4415	20.5871	-13.2619
 466	1	8	0.354457	19.8845	20.0707	-14.0003
 467	1	1	-0.233188	21.972	22.2975	-13.3347
 468	1	5	0.143867	15.6893	20.1911	-16.203
 469	1	9	-0.2502	22.9851	22.8865	-16.1742
 470	1	9	-0.249785	25.189	23.4887	-15.1608
 471	1	9	-0.32829	23.1646	24.8364	-14.5869
 472	1	10	0.056572	25.5963	22.5066	-15.4309
 473	1	10	0.044267	25.7282	23.8657	-14.2829
 474	1	10	0.051935	25.3969	24.1685	-15.9965
 475	1	10	0.069302	23.5332	25.1801	-13.6126
 476	1	10	0.077707	22.0692	24.8816	-14.5651
 477	1	10	0.059383	23.5081	25.5433	-15.3521
 478	1	10	0.048889	23.2247	21.8282	-16.3393
 479	1	10	0.055177	23.3163	23.4515	-17.0541
 480	1	10	0.04962	21.8933	22.9752	-16.1138
 481	1	1	0.438909	7.18076	27.0961	-10.5023
 482	1	1	0.108796	5.90585	27.1798	-10.9956
 483	1	2	-0.726889	7.22089	26.4761	-9.30697
 484	1	3	-0.675747	5.07952	26.6085	-10.0796
 485	1	1	-0.43042	9.35067	22.5757	-18.769
 486	1	4	0.62373	5.93335	26.2107	-9.03847
 487	1	1	0.00157	8.15723	25.0468	-18.2495
 488	1	5	0.178696	8.70354	29.9042	-16.7575
 489	1	2	-0.592725	8.1539	27.5052	-17.8882
 490	1	6	-0.000174	6.67032	28.2359	-13.0237
 491	1	5	0.1602	5.28493	26.8228	-14.8696
 492	1	4	0.461284	7.51251	26.3314	-17.943
 493	1	1	-0.167191	7.99162	28.1797	-12.4825
 494	1	5	0.164364	4.585	27.7016	-12.6369
 495	1	1	-0.325009	8.25742	27.607	-11.2206
 496	1	8	0.422373	4.08409	26.5076	-10.1196
 497	1	1	-0.217421	5.59811	27.7167	-12.251
 498	1	5	0.173851	10.147	25.7325	-17.7693
 499	1	5	0.197073	9.83475	21.6276	-18.9775
 500	1	6	0.024852	6.51742	28.5709	-14.4707
 501	1	1	0.048807	6.28914	27.5251	-16.6378
 502	1	1	0.060532	7.94808	22.6742	-18.8637
 503	1	5	0.140008	7.90197	30.2445	-14.4244
 504	1	5	0.202663	9.2623	27.5253	-10.8218
 505	1	1	-0.222969	5.87037	27.6245	-15.307
 506	1	1	0.35235	7.36903	28.2489	-17.0845
 507	1	1	0.269742	10.1589	23.6307	-18.2954
 508	1	1	-0.166682	7.39673	29.5224	-15.0604
 509	1	1	-0.277787	7.84522	29.3561	-16.3844
 510	1	1	-0.312482	9.55066	24.886	-18.0982
 511	1	9	0.442075	7.09661	21.465	-19.3428
 512	1	5	0.128262	6.29768	24.0549	-18.648
 513	1	3	-0.434358	6.24694	26.3765	-17.3675
 514	1	8	0.354457	5.68408	25.5689	-17.1718
 515	1	1	-0.233188	7.36919	23.9227	-18.5613
 516	1	5	0.143867	8.83163	28.5124	-13.0874
 517	1	9	-0.2502	7.19905	21.3954	-20.8808
 518	1	9	-0.249785	5.59918	21.5834	-18.9518
 519	1	9	-0.32829	7.58798	20.1181	-18.7475
 520	1	10	0.056572	5.05117	20.6715	-19.2219
 521	1	10	0.044267	5.10791	22.415	-19.47
 522	1	10	0.051935	5.48885	21.7294	-17.8697
 523	1	10	0.069302	8.62078	19.8888	-19.0293
 524	1	10	0.077707	6.97332	19.2852	-19.1111
 525	1	10	0.059383	7.52647	20.1289	-17.6521
 526	1	10	0.048889	8.24425	21.2775	-21.1937
 527	1	10	0.055177	6.81788	22.3198	-21.3327
 528	1	10	0.04962	6.62356	20.5529	-21.2826
 529	1	1	0.438909	4.33035	16.6157	-3.25005
 530	1	1	0.108796	5.49385	16.4829	-2.5349
 531	1	2	-0.726889	3.7623	15.4285	-3.52039
 532	1	3	-0.675747	5.63657	15.1617	-2.24138
 533	1	1	-0.43042	4.07129	25.5876	-7.47678
 534	1	4	0.62373	4.60558	14.5454	-2.9651
 535	1	1	0.00157	5.89206	24.69	-5.53235
 536	1	5	0.178696	9.44326	21.1049	-5.09983
 537	1	2	-0.592725	7.92954	23.3907	-4.92407
 538	1	6	-0.000174	6.06574	18.7877	-2.92184
 539	1	5	0.1602	5.47362	21.2456	-2.08872
 540	1	4	0.461284	6.7651	23.968	-4.58454
 541	1	1	-0.167191	4.81051	18.9313	-3.58628
 542	1	5	0.164364	7.37357	17.3706	-1.89062
 543	1	1	-0.325009	3.93453	17.8444	-3.76379
 544	1	8	0.422373	6.44015	14.7084	-1.84864
 545	1	1	-0.217421	6.41493	17.5264	-2.37407
 546	1	5	0.173851	7.41522	25.1093	-7.00769
 547	1	5	0.197073	3.36939	25.9104	-8.234
 548	1	6	0.024852	6.98213	19.9608	-2.96525
 549	1	1	0.048807	6.96747	22.3588	-3.16904
 550	1	1	0.060532	3.57339	25.1773	-6.22439
 551	1	5	0.140008	8.55021	18.9841	-4.10851
 552	1	5	0.202663	3.02413	17.9221	-4.34711
 553	1	1	-0.222969	6.42735	21.2074	-2.60491
 554	1	1	0.35235	7.99044	22.3294	-4.0823
 555	1	1	0.269742	5.4546	25.6377	-7.75466
 556	1	1	-0.166682	8.1601	19.9402	-3.76803
 557	1	1	-0.277787	8.67783	21.134	-4.33096
 558	1	1	-0.312482	6.35129	25.1511	-6.7806
 559	1	9	0.442075	2.04119	25.1425	-5.96572
 560	1	5	0.128262	4.15055	24.4225	-4.29878
 561	1	3	-0.434358	6.26769	23.4958	-3.37469
 562	1	8	0.354457	5.36289	23.7096	-3.00161
 563	1	1	-0.233188	4.51104	24.775	-5.25394
 564	1	5	0.143867	4.56092	19.8852	-4.04517
 565	1	9	-0.2502	1.4221	26.5219	-6.2988
 566	1	9	-0.249785	1.66302	24.81	-4.49852
 567	1	9	-0.32829	1.38402	24.0667	-6.86321
 568	1	10	0.056572	0.574129	24.8141	-4.36441
 569	1	10	0.044267	2.08778	25.547	-3.80529
 570	1	10	0.051935	2.01819	23.8125	-4.21074
 571	1	10	0.069302	1.63621	24.2171	-7.91928
 572	1	10	0.077707	0.291122	24.092	-6.77127
 573	1	10	0.059383	1.72448	23.0628	-6.57902
 574	1	10	0.048889	1.47602	26.7432	-7.37067
 575	1	10	0.055177	1.95142	27.3185	-5.7608
 576	1	10	0.04962	0.36496	26.5621	-6.00891
 577	1	1	0.438909	-4.87653	8.40799	-8.18601
 578	1	1	0.108796	-4.00513	8.03388	-9.17543
 579	1	2	-0.726889	-6.14731	8.48882	-8.63112
 580	1	3	-0.675747	-4.7344	7.81339	-10.2942
 581	1	1	-0.43042	5.39197	12.1997	-2.53493
 582	1	4	0.62373	-6.02324	8.24502	-9.94576
 583	1	1	0.00157	3.80763	11.2327	-4.6501
 584	1	5	0.178696	2.33506	7.13863	-7.4704
 585	1	2	-0.592725	3.15381	9.43568	-6.21508
 586	1	6	-0.000174	-2.0987	8.6478	-7.84797
 587	1	5	0.1602	-0.875228	10.9597	-7.03411
 588	1	4	0.461284	2.96622	10.6681	-5.71864
 589	1	1	-0.167191	-3.00259	8.97605	-6.79525
 590	1	5	0.164364	-1.96331	7.91936	-9.90194
 591	1	1	-0.325009	-4.40069	8.85399	-6.95491
 592	1	8	0.422373	-4.38003	7.71962	-11.2294
 593	1	1	-0.217421	-2.61723	8.13877	-9.06366
 594	1	5	0.173851	3.04179	13.2577	-4.76048
 595	1	5	0.197073	5.98649	12.5856	-1.71784
 596	1	6	0.024852	-0.640977	8.88441	-7.67106
 597	1	1	0.048807	1.1698	10.2604	-6.85904
 598	1	1	0.060532	5.40739	10.8191	-2.82627
 599	1	5	0.140008	-0.0592234	6.85871	-8.2015
 600	1	5	0.202663	-5.10029	9.17328	-6.19187
 601	1	1	-0.222969	-0.181204	10.1405	-7.19333
 602	1	1	0.35235	2.02946	9.19551	-6.90924
 603	1	1	0.269742	4.55272	13.09	-3.23559
 604	1	1	-0.166682	0.293382	7.82573	-7.85208
 605	1	1	-0.277787	1.63912	7.97073	-7.45401
 606	1	1	-0.312482	3.70302	12.5747	-4.23545
 607	1	9	0.442075	6.0924	9.7711	-1.91029
 608	1	5	0.128262	4.72569	9.33645	-4.23195
 609	1	3	-0.434358	1.80368	11.2739	-6.20051
 610	1	8	0.354457	1.41583	12.1506	-5.90123
 611	1	1	-0.233188	4.68838	10.3859	-3.95358
 612	1	5	0.143867	-2.60399	9.36005	-5.85948
 613	1	9	-0.2502	7.33311	9.16672	-2.60274
 614	1	9	-0.249785	5.08275	8.63792	-1.58607
 615	1	9	-0.32829	6.54133	10.3753	-0.554378
 616	1	10	0.056572	4.10621	9.05894	-1.31316
 617	1	10	0.044267	5.42622	8.01436	-0.752034
 618	1	10	0.051935	4.93117	7.97508	-2.44675
 619	1	10	0.069302	6.9236	9.59625	0.116554
 620	1	10	0.077707	5.69902	10.8649	-0.0492157
 621	1	10	0.059383	7.34437	11.109	-0.692477
 622	1	10	0.048889	7.82291	8.43036	-1.95301
 623	1	10	0.055177	8.06284	9.94901	-2.84423
 624	1	10	0.04962	7.05763	8.66156	-3.53676
 625	1	1	0.438909	-1.66561	11.2817	-21.5413
 626	1	1	0.108796	-2.36056	12.2755	-20.8966
 627	1	2	-0.726889	-0.476827	11.7148	-22.0004
 628	1	3	-0.675747	-1.65609	13.4266	-21.0553
 629	1	1	-0.43042	-8.23465	9.29703	-10.6569
 630	1	4	0.62373	-0.450965	13.0044	-21.6366
 631	1	1	0.00157	-7.29329	9.34906	-13.3099
 632	1	5	0.178696	-3.08563	8.11331	-15.8612
 633	1	2	-0.592725	-5.4339	8.78216	-14.747
 634	1	6	-0.000174	-3.6575	10.6463	-19.692
 635	1	5	0.1602	-6.07462	11.3442	-18.2976
 636	1	4	0.461284	-6.58431	9.44733	-14.6065
 637	1	1	-0.167191	-3.07089	9.64157	-20.5175
 638	1	5	0.164364	-3.67946	12.7817	-19.2499