pySIMM System Object

1250 atoms
1379 bonds
2392 angles
3662 dihedrals
312 impropers

10 atom types
14 bond types
23 angle types
11 dihedral types
3 improper types

-155.824780 155.824780 xlo xhi
-155.824780 155.824780 ylo yhi
-155.824780 155.824780 zlo zhi

Masses

   1	12.01	# ca
   2	14.01	# nc
   3	14.01	# na
   4	12.01	# cd
   5	1.008	# ha
   6	12.01	# cp
   7	1.008	# h5
   8	1.008	# hn
   9	12.01	# c3
  10	1.008	# hc

Pair Coeffs

   1	0.086	3.3996695084235347	# ca
   2	0.17	3.249998523775958	# nc
   3	0.17	3.249998523775958	# na
   4	0.086	3.3996695084235347	# cd
   5	0.015	2.59964245953351	# ha
   6	0.086	3.3996695084235347	# cp
   7	0.015	2.421462715905442	# h5
   8	0.0157	1.069078461768407	# hn
   9	0.1094	3.3996695084235347	# c3
  10	0.0157	2.649532787749369	# hc

Bond Coeffs

   1	425.8	1.3802	# cd,na
   2	467.7	1.3517	# ca,nc
   3	345.8	1.086	# ca,ha
   4	351.8	1.0818	# cd,h5
   5	385.1	1.4555	# ca,cd
   6	351.4	1.4854	# cp,cp
   7	321.0	1.5156	# c3,ca
   8	525.4	1.3172	# cd,nc
   9	300.9	1.5375	# c3,c3
  10	330.6	1.0969	# c3,hc
  11	450.2	1.4058	# ca,cp
  12	420.5	1.384	# ca,na
  13	408.4	1.01	# hn,na
  14	461.1	1.3984	# ca,ca

Angle Coeffs

   1	66.72	118.38	# ca,cp,ca
   2	62.86	111.51	# c3,c3,c3
   3	66.26	120.69	# ca,ca,cp
   4	63.15	112.07	# c3,c3,ca
   5	67.4	113.15	# ca,na,cd
   6	46.34	109.8	# c3,c3,hc
   7	66.28	123.45	# ca,cd,na
   8	48.18	119.88	# ca,ca,ha
   9	67.6	123.24	# ca,cd,nc
  10	64.05	121.11	# ca,cp,cp
  11	46.75	125.5	# cd,na,hn
  12	66.62	120.02	# ca,ca,ca
  13	72.48	104.88	# ca,nc,cd
  14	74.9	112.22	# na,cd,nc
  15	46.63	125.54	# ca,na,hn
  16	65.02	120.79	# ca,ca,cd
  17	69.46	119.72	# ca,ca,nc
  18	47.98	119.86	# cp,ca,ha
  19	39.4	107.58	# hc,c3,hc
  20	63.53	120.77	# c3,ca,ca
  21	69.08	118.34	# ca,ca,na
  22	49.58	121.55	# h5,cd,na
  23	50.58	125.52	# h5,cd,nc

Dihedral Coeffs

   1	1	4.0	2	180	# X,ca,cd,X
   2	1	3.625	2	180	# X,ca,cp,X
   3	1	4.75	2	180	# X,cd,nc,X
   4	1	0.3	2	180	# X,ca,na,X
   5	1	3.625	2	180	# X,ca,ca,X
   6	1	1.7	2	180	# X,cd,na,X
   7	1	1.0	2	180	# X,cp,cp,X
   8	1	0.16	3	0	# hc,c3,c3,c3
   9	1	0.15555555555555556	3	0	# X,c3,c3,X
  10	1	0.0	2	0	# X,c3,ca,X
  11	1	4.8	2	180	# X,ca,nc,X

Improper Coeffs

   1	1.1	-1	2	# na,X,X,hn
   2	1.1	-1	2	# ca,ca,ca,c3
   3	1.1	-1	2	# ca,X,X,ha

Atoms

   1	1	1	0.438909	43.8558	-7.48908	18.9012
   2	1	1	0.108796	42.9451	-7.96663	17.9976
   3	1	2	-0.726889	43.8206	-6.14655	18.9828
   4	1	3	-0.675747	42.2928	-6.89609	17.4663
   5	1	1	-0.43042	40.842	-19.3915	21.9927
   6	1	4	0.62373	42.854	-5.78933	18.1204
   7	1	1	0.00157	41.7164	-17.0904	20.6187
   8	1	5	0.178696	42.427	-14.2522	16.2407
   9	1	2	-0.592725	42.1519	-15.733	18.5713
  10	1	6	-0.000174	43.4849	-10.2511	18.5526
  11	1	5	0.1602	43.2458	-11.9965	20.6421
  12	1	4	0.461284	42.1402	-15.8703	19.9085
  13	1	1	-0.167191	44.4486	-9.74606	19.4758
  14	1	5	0.164364	41.9537	-9.67226	17.1026
  15	1	1	-0.325009	44.6451	-8.35846	19.6519
  16	1	8	0.422373	41.5366	-6.8959	16.8094
  17	1	1	-0.217421	42.724	-9.32961	17.7851
  18	1	5	0.173851	41.3701	-18.2537	18.8267
  19	1	5	0.197073	40.4924	-20.2961	22.4763
  20	1	6	0.024852	43.2044	-11.7147	18.4763
  21	1	1	0.048807	42.7614	-13.8143	19.575
  22	1	1	0.060532	41.2087	-18.25	22.7425
  23	1	5	0.140008	43.0314	-11.8045	16.3098
  24	1	5	0.202663	45.3567	-7.95848	20.3656
  25	1	1	-0.222969	43.1059	-12.4665	19.6742
  26	1	1	0.35235	42.523	-14.4472	18.3857
  27	1	1	0.269742	40.9091	-19.3892	20.5934
  28	1	1	-0.166682	42.9588	-12.3718	17.234
  29	1	1	-0.277787	42.6253	-13.7466	17.1797
  30	1	1	-0.312482	41.336	-18.2455	19.9126
  31	1	9	0.442075	41.1156	-18.1833	24.2921
  32	1	5	0.128262	41.9338	-16.2317	22.5861
  33	1	3	-0.434358	42.5315	-14.707	20.5709
  34	1	8	0.354457	42.5803	-14.5606	21.5621
  35	1	1	-0.233188	41.6543	-17.1173	22.0284
  36	1	5	0.143867	45.0369	-10.4446	20.0658
  37	1	9	-0.2502	40.6214	-19.5062	24.9302
  38	1	9	-0.249785	40.126	-17.0679	24.7106
  39	1	9	-0.32829	42.5036	-17.8694	24.9017
  40	1	10	0.056572	39.1341	-17.2522	24.2794
  41	1	10	0.044267	40.4613	-16.0809	24.3706
  42	1	10	0.051935	40.0186	-17.0234	25.8016
  43	1	10	0.069302	43.235	-18.6314	24.6055
  44	1	10	0.077707	42.4565	-17.8515	25.9976
  45	1	10	0.059383	42.8802	-16.8945	24.5717
  46	1	10	0.048889	39.6171	-19.7657	24.5722
  47	1	10	0.055177	40.5698	-19.4199	26.0229
  48	1	10	0.04962	41.3009	-20.3348	24.6946
  49	1	1	0.438909	43.3627	6.91315	22.442
  50	1	1	0.108796	43.5384	6.01463	23.4618
  51	1	2	-0.726889	42.6508	7.98022	22.8335
  52	1	3	-0.675747	42.9982	6.56881	24.5904
  53	1	1	-0.43042	41.3905	-4.06789	16.9897
  54	1	4	0.62373	42.3713	7.73518	24.1228
  55	1	1	0.00157	42.6153	-1.99939	18.4601
  56	1	5	0.178696	45.6478	-0.204266	22.3987
  57	1	2	-0.592725	44.1092	-1.09864	20.2554
  58	1	6	-0.000174	44.211	4.30688	21.885
  59	1	5	0.1602	42.9181	3.11377	19.8304
  60	1	4	0.461284	43.2186	-0.917163	19.263
  61	1	1	-0.167191	44.1499	5.29663	20.8603
  62	1	5	0.164364	43.9144	3.95251	24.0227
  63	1	1	-0.325009	43.7142	6.60825	21.1309
  64	1	8	0.422373	42.814	6.11077	25.4628
  65	1	1	-0.217421	43.9366	4.69061	23.2283
  66	1	5	0.173851	43.7781	-3.57019	19.3719
  67	1	5	0.197073	40.9301	-4.87444	16.4366
  68	1	6	0.024852	44.3169	2.86942	21.4908
  69	1	1	0.048807	43.5751	1.0729	20.058
  70	1	1	0.060532	40.9602	-2.73767	16.7809
  71	1	5	0.140008	45.6558	2.22949	23.0808
  72	1	5	0.202663	43.5507	7.33739	20.3452
  73	1	1	-0.222969	43.5496	2.42628	20.3832
  74	1	1	0.35235	44.3046	0.146072	20.748
  75	1	1	0.269742	42.4158	-4.38512	17.9102
  76	1	1	-0.166682	45.0736	1.906	22.2219
  77	1	1	-0.277787	45.0811	0.538037	21.8463
  78	1	1	-0.312482	43.0032	-3.33722	18.6433
  79	1	9	0.442075	39.8198	-2.36773	15.7885
  80	1	5	0.128262	41.3118	-0.692433	17.3472
  81	1	3	-0.434358	42.8723	0.422593	19.0969
  82	1	8	0.354457	42.2143	0.803015	18.443
  83	1	1	-0.233188	41.6118	-1.72037	17.5088
  84	1	5	0.143867	44.3579	5.01171	19.8317
  85	1	9	-0.2502	40.415	-1.63997	14.5617
  86	1	9	-0.249785	38.7797	-1.43873	16.467
  87	1	9	-0.32829	39.0382	-3.603	15.27
  88	1	10	0.056572	37.933	-1.2402	15.798
  89	1	10	0.044267	39.2094	-0.467503	16.7366
  90	1	10	0.051935	38.3858	-1.90146	17.3807
  91	1	10	0.069302	38.6208	-4.18026	16.1047
  92	1	10	0.077707	39.6819	-4.25989	14.6731
  93	1	10	0.059383	38.2029	-3.29799	14.6269
  94	1	10	0.048889	41.1436	-2.27981	14.0482
  95	1	10	0.055177	40.9281	-0.717312	14.8584
  96	1	10	0.04962	39.6307	-1.37313	13.842
  97	1	1	0.438909	30.2413	12.9861	21.7212
  98	1	1	0.108796	31.1456	13.2674	20.7349
  99	1	2	-0.726889	28.9948	13.3684	21.3775
 100	1	3	-0.675747	30.4712	13.8625	19.7142
 101	1	1	-0.43042	41.2088	8.39435	26.2871
 102	1	4	0.62373	29.1378	13.8925	20.147
 103	1	1	0.00157	39.376	9.95662	24.8293
 104	1	5	0.178696	37.1053	10.8458	20.2192
 105	1	2	-0.592725	38.3078	10.5821	22.6828
 106	1	6	-0.000174	32.963	12.2918	21.9993
 107	1	5	0.1602	34.481	12.0341	24.3202
 108	1	4	0.461284	38.3136	10.5914	24.0249
 109	1	1	-0.167191	32.0125	12.0093	23.0291
 110	1	5	0.164364	33.1781	13.1972	20.0152
 111	1	1	-0.325009	30.6471	12.3553	22.8969
 112	1	8	0.422373	30.8285	14.1622	18.8278
 113	1	1	-0.217421	32.5012	12.9448	20.8228
 114	1	5	0.173851	40.551	9.41125	23.1088
 115	1	5	0.197073	41.9166	7.78612	26.8377
 116	1	6	0.024852	34.4024	11.888	22.1356
 117	1	1	0.048807	36.356	11.3723	23.4721
 118	1	1	0.060532	40.1975	9.09457	26.9882
 119	1	5	0.140008	34.7208	11.5804	19.9999
 120	1	5	0.202663	29.9152	12.1295	23.6646
 121	1	1	-0.222969	35.0225	11.7917	23.413
 122	1	1	0.35235	37.0857	11.0474	22.3618
 123	1	1	0.269742	41.3674	8.51959	24.8888
 124	1	1	-0.166682	35.1793	11.5549	20.9836
 125	1	1	-0.277787	36.5238	11.1354	21.0882
 126	1	1	-0.312482	40.4676	9.34428	24.1923
 127	1	9	0.442075	40.1123	9.00383	28.5386
 128	1	5	0.128262	38.4571	10.3618	26.7213
 129	1	3	-0.434358	37.1378	11.1248	24.5611
 130	1	8	0.354457	36.8819	11.1639	25.5301
 131	1	1	-0.233188	39.279	9.85717	26.2305
 132	1	5	0.143867	32.3331	11.4865	23.9257
 133	1	9	-0.2502	40.0552	7.52457	28.9931
 134	1	9	-0.249785	38.8673	9.7122	29.1349
 135	1	9	-0.32829	41.3615	9.66985	29.1604
 136	1	10	0.056572	38.8389	9.60385	30.2264
 137	1	10	0.044267	37.9395	9.28276	28.7363
 138	1	10	0.051935	38.8788	10.7872	28.9153
 139	1	10	0.069302	42.2823	9.16938	28.8387
 140	1	10	0.077707	41.3241	9.63581	30.2563
 141	1	10	0.059383	41.4283	10.7222	28.856
 142	1	10	0.048889	39.9468	7.45164	30.0827
 143	1	10	0.055177	40.9649	6.97939	28.7186
 144	1	10	0.04962	39.2004	7.01269	28.5335
 145	1	1	0.438909	15.6392	13.7971	19.1672
 146	1	1	0.108796	16.304	14.9538	18.8612
 147	1	2	-0.726889	14.4167	13.7607	18.6018
 148	1	3	-0.675747	15.4648	15.7244	18.1147
 149	1	1	-0.43042	28.2472	14.9394	18.0292
 150	1	4	0.62373	14.322	14.9288	17.9436
 151	1	1	0.00157	25.6092	14.8133	19.0055
 152	1	5	0.178696	22.1157	13.4558	22.6776
 153	1	2	-0.592725	23.9014	14.2589	20.7274
 154	1	6	-0.000174	18.315	14.176	19.953
 155	1	5	0.1602	20.3155	15.0833	18.2921
 156	1	4	0.461284	24.224	14.7164	19.5073
 157	1	1	-0.167191	17.5939	13.0017	20.3241
 158	1	5	0.164364	18.1482	16.0898	18.9067
 159	1	1	-0.325009	16.2537	12.7992	19.9228
 160	1	8	0.422373	15.6645	16.597	17.6655
 161	1	1	-0.217421	17.6394	15.181	19.208
 162	1	5	0.173851	26.4986	13.9761	20.7878
 163	1	5	0.197073	29.2644	14.973	17.6658
 164	1	6	0.024852	19.7752	14.2907	20.2562
 165	1	1	0.048807	22.0443	14.7372	19.5501
 166	1	1	0.060532	27.1953	15.4112	17.2117
 167	1	5	0.140008	19.6319	13.4694	22.2653
 168	1	5	0.202663	15.7132	11.8873	20.1514
 169	1	1	-0.222969	20.6753	14.7669	19.265
 170	1	1	0.35235	22.5526	14.2713	20.7323
 171	1	1	0.269742	28.0154	14.4139	19.321
 172	1	1	-0.166682	20.3093	13.834	21.4975
 173	1	1	-0.277787	21.7011	13.8261	21.746
 174	1	1	-0.312482	26.6909	14.379	19.7946
 175	1	9	0.442075	27.4337	15.998	15.7912
 176	1	5	0.128262	25.059	15.6523	17.0974
 177	1	3	-0.434358	23.0992	15.0503	18.7477
 178	1	8	0.354457	23.0849	15.3544	17.7924
 179	1	1	-0.233188	25.8821	15.3191	17.7182
 180	1	5	0.143867	18.1053	12.2161	20.8751
 181	1	9	-0.2502	26.7992	17.4066	15.6773
 182	1	9	-0.249785	26.7971	15.0719	14.7283
 183	1	9	-0.32829	28.9354	16.1514	15.4352
 184	1	10	0.056572	26.9617	15.4617	13.7159
 185	1	10	0.044267	25.7151	14.9755	14.8777
 186	1	10	0.051935	27.2344	14.0668	14.7799
 187	1	10	0.069302	29.4457	16.7989	16.1592
 188	1	10	0.077707	29.0584	16.6035	14.4431
 189	1	10	0.059383	29.4411	15.1782	15.4147
 190	1	10	0.048889	27.0069	17.8555	14.6978
 191	1	10	0.055177	27.2034	18.0749	16.4481
 192	1	10	0.04962	25.7104	17.3738	15.7965
 193	1	1	0.438909	4.64609	9.09379	10.4436
 194	1	1	0.108796	4.3613	9.00262	11.7795
 195	1	2	-0.726889	3.73144	8.44546	9.6928
 196	1	3	-0.675747	3.19974	8.30485	11.9039
 197	1	1	-0.43042	13.1033	16.5874	16.4796
 198	1	4	0.62373	2.85063	7.9647	10.5881
 199	1	1	0.00157	11.1569	14.6591	15.8291
 200	1	5	0.178696	9.1988	9.7953	16.1135
 201	1	2	-0.592725	10.1417	12.3891	15.9523
 202	1	6	-0.000174	6.35265	10.2312	12.3722
 203	1	5	0.1602	7.37836	12.791	12.5266
 204	1	4	0.461284	10.1913	13.6199	15.4184
 205	1	1	-0.167191	6.62457	10.3608	10.9781
 206	1	5	0.164364	4.941	9.41936	13.8283
 207	1	1	-0.325009	5.77842	9.78092	10.0036
 208	1	8	0.422373	2.73876	8.01939	12.7463
 209	1	1	-0.217421	5.18557	9.53143	12.7774
 210	1	5	0.173851	12.2173	13.3801	17.2094
 211	1	5	0.197073	13.8629	17.3127	16.7356
 212	1	6	0.024852	7.30082	10.7843	13.3843
 213	1	1	0.048807	8.67437	12.5708	14.2547
 214	1	1	0.060532	12.0567	16.9455	15.5989
 215	1	5	0.140008	7.48996	8.91795	14.4811
 216	1	5	0.202663	5.99025	9.84373	8.94205
 217	1	1	-0.222969	7.74745	12.1295	13.3034
 218	1	1	0.35235	9.19599	11.7583	15.2253
 219	1	1	0.269742	13.1782	15.3048	17.0697
 220	1	1	-0.166682	7.81174	9.95472	14.425
 221	1	1	-0.277787	8.77276	10.4323	15.3455
 222	1	1	-0.312482	12.1665	14.3741	16.7676
 223	1	9	0.442075	11.9302	18.3651	14.9759
 224	1	5	0.128262	10.3435	16.1814	14.541
 225	1	3	-0.434358	9.26943	13.7891	14.3811
 226	1	8	0.354457	9.15227	14.6001	13.8031
 227	1	1	-0.233188	11.1213	15.9467	15.2575
 228	1	5	0.143867	7.5256	10.8814	10.6622
 229	1	9	-0.2502	12.2765	18.3039	13.4708
 230	1	9	-0.249785	12.8713	19.4048	15.639
 231	1	9	-0.32829	10.4873	18.9086	15.1347
 232	1	10	0.056572	12.7049	20.4068	15.2236
 233	1	10	0.044267	13.9259	19.1561	15.4694
 234	1	10	0.051935	12.6933	19.46	16.7206
 235	1	10	0.069302	9.76057	18.3138	14.5707
 236	1	10	0.077707	10.4119	19.9404	14.7697
 237	1	10	0.059383	10.1857	18.9006	16.1898
 238	1	10	0.048889	12.2016	19.2957	13.0074
 239	1	10	0.055177	11.5981	17.6293	12.935
 240	1	10	0.04962	13.3002	17.9368	13.3246
 241	1	1	0.438909	-1.75871	-1.39026	2.24804
 242	1	1	0.108796	-1.67687	-0.302633	1.41908
 243	1	2	-0.726889	-2.27457	-2.45921	1.62596
 244	1	3	-0.675747	-2.16044	-0.690785	0.196818
 245	1	1	-0.43042	0.720132	6.79033	11.2415
 246	1	4	0.62373	-2.54828	-2.02986	0.385312
 247	1	1	0.00157	0.332599	5.87105	8.60887
 248	1	5	0.178696	1.95206	4.85709	3.68381
 249	1	2	-0.592725	0.97963	5.47574	6.21677
 250	1	6	-0.000174	-0.878662	1.07833	3.239
 251	1	5	0.1602	-1.82081	2.1479	5.55122
 252	1	4	0.461284	0.167608	5.26995	7.26905
 253	1	1	-0.167191	-0.957763	-0.0718312	4.07851
 254	1	5	0.164364	-1.20763	1.81141	1.20221
 255	1	1	-0.325009	-1.39556	-1.3167	3.58837
 256	1	8	0.422373	-2.30701	-0.127413	-0.618478
 257	1	1	-0.217421	-1.23546	0.953461	1.86519
 258	1	5	0.173851	2.15175	6.94344	8.14837
 259	1	5	0.197073	0.879174	7.15617	12.2459
 260	1	6	0.024852	-0.46055	2.3716	3.85988
 261	1	1	0.048807	-0.508685	3.85213	5.76631
 262	1	1	0.060532	-0.423641	6.01258	10.956
 263	1	5	0.140008	1.04944	2.88888	2.3845
 264	1	5	0.202663	-1.47836	-2.19445	4.22007
 265	1	1	-0.222969	-1.03001	2.74146	5.10447
 266	1	1	0.35235	0.547988	4.58148	5.29637
 267	1	1	0.269742	1.65387	7.14984	10.2412
 268	1	1	-0.166682	0.587237	3.17793	3.32478
 269	1	1	-0.277787	1.1052	4.28403	4.04627
 270	1	1	-0.312482	1.42856	6.69752	8.92444
 271	1	9	0.442075	-1.49701	5.66468	12.0274
 272	1	5	0.128262	-1.46642	4.98086	9.38816
 273	1	3	-0.434358	-0.810507	4.31017	7.00657
 274	1	8	0.354457	-1.45879	3.92077	7.66496
 275	1	1	-0.233188	-0.591022	5.56937	9.63032
 276	1	5	0.143867	-0.671558	0.0116152	5.12435
 277	1	9	-0.2502	-2.75562	6.52783	11.7818
 278	1	9	-0.249785	-1.01181	5.92529	13.4772
 279	1	9	-0.32829	-1.90082	4.16888	11.9567
 280	1	10	0.056572	-1.76906	5.61146	14.2067
 281	1	10	0.044267	-0.82106	6.99098	13.6519
 282	1	10	0.051935	-0.0927742	5.36388	13.6878
 283	1	10	0.069302	-2.42887	3.92836	11.0275
 284	1	10	0.077707	-2.57423	3.90402	12.7813
 285	1	10	0.059383	-1.01516	3.52475	12.0242
 286	1	10	0.048889	-2.51328	7.5956	11.8552
 287	1	10	0.055177	-3.53889	6.30518	12.5171
 288	1	10	0.04962	-3.16935	6.34717	10.782
 289	1	1	0.438909	-10.4821	-12.5467	1.95912
 290	1	1	0.108796	-10.712	-11.334	1.36708
 291	1	2	-0.726889	-11.6288	-13.1279	2.36205
 292	1	3	-0.675747	-12.0562	-11.1176	1.37568
 293	1	1	-0.43042	-3.61152	-2.44984	-1.89693
 294	1	4	0.62373	-12.5813	-12.2343	2.04279
 295	1	1	0.00157	-4.47725	-4.99218	-1.0207
 296	1	5	0.178696	-4.57106	-8.53994	2.79097
 297	1	2	-0.592725	-4.52695	-6.78564	0.678873
 298	1	6	-0.000174	-8.34711	-10.8653	1.2345
 299	1	5	0.1602	-7.91383	-9.12758	-0.901232
 300	1	4	0.461284	-4.95732	-6.28444	-0.48843
 301	1	1	-0.167191	-8.11351	-12.1441	1.82376
 302	1	5	0.164364	-9.91038	-9.47642	0.598598
 303	1	1	-0.325009	-9.18141	-12.9987	2.18125
 304	1	8	0.422373	-12.5409	-10.2761	1.13261
 305	1	1	-0.217421	-9.68712	-10.4635	0.987925
 306	1	5	0.173851	-3.40484	-4.52776	0.783758
 307	1	5	0.197073	-3.27827	-1.46914	-2.20976
 308	1	6	0.024852	-7.22789	-9.89717	1.0294
 309	1	1	0.048807	-6.17673	-8.06325	-0.151849
 310	1	1	0.060532	-4.37707	-3.26037	-2.77433
 311	1	5	0.140008	-6.29899	-10.3554	2.94427
 312	1	5	0.202663	-9.0186	-13.9515	2.67348
 313	1	1	-0.222969	-7.18004	-9.04094	-0.107093
 314	1	1	0.35235	-5.28445	-7.87826	0.869645
 315	1	1	0.269742	-3.26514	-2.88797	-0.599165
 316	1	1	-0.166682	-6.24985	-9.73343	2.05351
 317	1	1	-0.277787	-5.27622	-8.71584	1.98496
 318	1	1	-0.312482	-3.66791	-4.17813	-0.212724
 319	1	9	0.442075	-4.73754	-2.825	-4.22368
 320	1	5	0.128262	-5.44532	-5.13439	-2.93805
 321	1	3	-0.434358	-5.95041	-7.07843	-1.07399
 322	1	8	0.354457	-6.47891	-6.86731	-1.90014
 323	1	1	-0.233188	-4.83321	-4.51133	-2.29537
 324	1	5	0.143867	-7.09343	-12.4538	2.03828
 325	1	9	-0.2502	-6.2728	-2.70852	-4.3785
 326	1	9	-0.249785	-4.20605	-3.86931	-5.23645
 327	1	9	-0.32829	-4.12925	-1.45632	-4.62524
 328	1	10	0.056572	-3.11943	-3.98497	-5.1364
 329	1	10	0.044267	-4.41922	-3.56461	-6.26892
 330	1	10	0.051935	-4.66356	-4.8535	-5.08324
 331	1	10	0.069302	-3.03466	-1.47533	-4.55302
 332	1	10	0.077707	-4.5108	-0.651394	-3.98552
 333	1	10	0.059383	-4.38669	-1.20147	-5.66128
 334	1	10	0.048889	-6.54261	-2.37532	-5.38875
 335	1	10	0.055177	-6.67879	-1.98293	-3.66277
 336	1	10	0.04962	-6.76935	-3.66984	-4.20294
 337	1	1	0.438909	-22.2378	-5.83704	-3.10054
 338	1	1	0.108796	-21.0822	-6.53214	-3.34346
 339	1	2	-0.726889	-23.0664	-5.87456	-4.15753
 340	1	3	-0.675747	-21.1127	-6.94988	-4.6427
 341	1	1	-0.43042	-14.4529	-13.4861	3.17844
 342	1	4	0.62373	-22.4125	-6.63322	-5.0542
 343	1	1	0.00157	-16.2885	-11.4553	2.532
 344	1	5	0.178696	-21.1191	-9.47837	2.7787
 345	1	2	-0.592725	-18.5236	-10.3886	2.67499
 346	1	6	-0.000174	-20.6414	-6.69923	-0.970482
 347	1	5	0.1602	-17.9948	-7.48416	-0.599217
 348	1	4	0.461284	-17.2786	-10.4206	2.17797
 349	1	1	-0.167191	-21.7655	-5.85086	-0.747255
 350	1	5	0.164364	-19.4785	-7.71622	-2.51662
 351	1	1	-0.325009	-22.5787	-5.41832	-1.816
 352	1	8	0.422373	-20.5246	-7.64325	-5.06529
 353	1	1	-0.217421	-20.2716	-7.00721	-2.30892
 354	1	5	0.173851	-14.6352	-10.5261	1.50832
 355	1	5	0.197073	-13.7187	-14.2497	3.41856
 356	1	6	0.024852	-20.0458	-7.47917	0.15644
 357	1	1	0.048807	-18.2574	-8.79401	1.10998
 358	1	1	0.060532	-15.7882	-13.6106	3.62243
 359	1	5	0.140008	-21.9676	-7.79313	1.13314
 360	1	5	0.202663	-23.5118	-4.89203	-1.64944
 361	1	1	-0.222969	-18.6777	-7.86253	0.153434
 362	1	1	0.35235	-19.111	-9.37809	2.0072
 363	1	1	0.269742	-14.0109	-12.3743	2.43138
 364	1	1	-0.166682	-20.9084	-8.03609	1.14779
 365	1	1	-0.277787	-20.4493	-8.99373	2.07605
 366	1	1	-0.312482	-14.9531	-11.3807	2.08887
 367	1	9	0.442075	-16.3131	-14.8471	4.40393
 368	1	5	0.128262	-17.7099	-12.6313	3.63466
 369	1	3	-0.434358	-17.0494	-9.41069	1.23786
 370	1	8	0.354457	-16.236	-9.29114	0.666214
 371	1	1	-0.233188	-16.6758	-12.5635	3.30768
 372	1	5	0.143867	-22.0662	-5.62096	0.272272
 373	1	9	-0.2502	-15.2078	-15.8881	4.71643
 374	1	9	-0.249785	-17.4	-15.564	3.56612
 375	1	9	-0.32829	-16.9296	-14.4141	5.75622
 376	1	10	0.056572	-16.9938	-15.8767	2.59599
 377	1	10	0.044267	-18.2576	-14.9078	3.37437
 378	1	10	0.051935	-17.7733	-16.4575	4.08165
 379	1	10	0.069302	-16.1895	-13.8788	6.36366
 380	1	10	0.077707	-17.2746	-15.2842	6.32818
 381	1	10	0.059383	-17.7914	-13.7515	5.61395
 382	1	10	0.048889	-14.7623	-16.2814	3.79404
 383	1	10	0.055177	-15.618	-16.7401	5.273
 384	1	10	0.04962	-14.411	-15.4454	5.32707
 385	1	1	0.438909	-33.595	-10.2213	-1.88835
 386	1	1	0.108796	-33.4143	-11.1401	-2.88275
 387	1	2	-0.726889	-34.6733	-10.5117	-1.13135
 388	1	3	-0.675747	-34.3987	-12.0686	-2.77224
 389	1	1	-0.43042	-22.3893	-8.03557	-7.17375
 390	1	4	0.62373	-35.182	-11.6187	-1.7015
 391	1	1	0.00157	-25.1953	-8.16951	-7.0936
 392	1	5	0.178696	-29.549	-10.9234	-8.01479
 393	1	2	-0.592725	-27.3557	-9.30282	-7.591
 394	1	6	-0.000174	-31.5553	-9.90792	-3.82854
 395	1	5	0.1602	-29.2881	-8.26375	-3.78223
 396	1	4	0.461284	-26.6228	-8.44958	-6.8587
 397	1	1	-0.167191	-31.7398	-8.96159	-2.7683
 398	1	5	0.164364	-32.3343	-11.8101	-4.60795
 399	1	1	-0.325009	-32.7524	-9.11574	-1.79108
 400	1	8	0.422373	-34.5758	-12.8552	-3.36603
 401	1	1	-0.217421	-32.421	-11.0381	-3.85549
 402	1	5	0.173851	-25.0277	-6.7903	-5.43931
 403	1	5	0.197073	-21.3059	-8.0161	-7.16958
 404	1	6	0.024852	-30.5006	-9.72057	-4.891
 405	1	1	0.048807	-28.4473	-8.72205	-5.7081
 406	1	1	0.060532	-23.0646	-8.78823	-8.16439
 407	1	5	0.140008	-31.3731	-11.1164	-6.33351
 408	1	5	0.202663	-32.914	-8.38726	-1.00418
 409	1	1	-0.222969	-29.4087	-8.82737	-4.69878
 410	1	1	0.35235	-28.4752	-9.46429	-6.85556
 411	1	1	0.269742	-23.0904	-7.29277	-6.19829
 412	1	1	-0.166682	-30.5475	-10.4466	-6.12504
 413	1	1	-0.277787	-29.5342	-10.3356	-7.10339
 414	1	1	-0.312482	-24.4936	-7.32699	-6.21602
 415	1	9	0.442075	-22.2549	-9.58374	-9.22698
 416	1	5	0.128262	-25.0348	-9.48279	-8.77259
 417	1	3	-0.434358	-27.2917	-8.00714	-5.71461
 418	1	8	0.354457	-26.8981	-7.4656	-4.96617
 419	1	1	-0.233188	-24.4747	-8.84791	-8.09349
 420	1	5	0.143867	-31.1166	-8.07543	-2.71622
 421	1	9	-0.2502	-21.3472	-10.6235	-8.52525
 422	1	9	-0.249785	-21.3671	-8.61453	-10.0442
 423	1	9	-0.32829	-23.1408	-10.356	-10.2378
 424	1	10	0.056572	-20.6413	-8.09723	-9.40657
 425	1	10	0.044267	-21.9831	-7.85381	-10.5402
 426	1	10	0.051935	-20.8054	-9.15224	-10.8185
 427	1	10	0.069302	-23.8073	-9.67285	-10.7792
 428	1	10	0.077707	-23.755	-11.1097	-9.72911
 429	1	10	0.059383	-22.5274	-10.8801	-10.9813
 430	1	10	0.048889	-20.619	-10.1422	-7.8625
 431	1	10	0.055177	-20.7875	-11.2164	-9.25949
 432	1	10	0.04962	-21.9488	-11.3144	-7.92102
 433	1	1	0.438909	-44.6076	-12.9462	7.78033
 434	1	1	0.108796	-43.38	-13.5018	7.54606
 435	1	2	-0.726889	-45.3648	-13.7436	8.57032
 436	1	3	-0.675747	-43.3125	-14.6723	8.21914
 437	1	1	-0.43042	-36.9468	-13.3849	-2.01528
 438	1	4	0.62373	-44.568	-14.8021	8.81994
 439	1	1	0.00157	-38.4158	-12.4064	0.173025
 440	1	5	0.178696	-39.2589	-9.13135	4.23599
 441	1	2	-0.592725	-38.8844	-10.8373	2.06757
 442	1	6	-0.000174	-42.7785	-11.766	5.99755
 443	1	5	0.1602	-42.3529	-13.0291	3.66776
 444	1	4	0.461284	-39.1958	-11.914	1.32424
 445	1	1	-0.167191	-44.0304	-11.1429	6.27588
 446	1	5	0.164364	-41.5152	-13.4817	6.45417
 447	1	1	-0.325009	-44.9588	-11.7359	7.1712
 448	1	8	0.422373	-42.5576	-15.3334	8.24035
 449	1	1	-0.217421	-42.449	-12.9696	6.66229
 450	1	5	0.173851	-36.8506	-10.9257	0.344034
 451	1	5	0.197073	-36.3725	-13.7491	-2.85449
 452	1	6	0.024852	-41.8614	-11.3148	4.91861
 453	1	1	0.048807	-40.7201	-11.8547	2.86935
 454	1	1	0.060532	-38.1693	-14.0097	-1.68838
 455	1	5	0.140008	-41.0658	-9.57566	5.94913
 456	1	5	0.202663	-45.9356	-11.3042	7.3577
 457	1	1	-0.222969	-41.724	-12.1527	3.78683
 458	1	1	0.35235	-39.8422	-10.8172	3.02286
 459	1	1	0.269742	-36.4535	-12.2723	-1.29545
 460	1	1	-0.166682	-40.9865	-10.1997	5.0624
 461	1	1	-0.277787	-39.9657	-9.94493	4.1119
 462	1	1	-0.312482	-37.213	-11.7877	-0.214123
 463	1	9	0.442075	-38.7437	-15.2016	-2.5073
 464	1	5	0.128262	-39.7865	-14.0092	-0.27368
 465	1	3	-0.434358	-40.3467	-12.5592	1.77372
 466	1	8	0.354457	-40.7589	-13.3936	1.40122
 467	1	1	-0.233188	-38.8656	-13.521	-0.565637
 468	1	5	0.143867	-44.2958	-10.2308	5.74629
 469	1	9	-0.2502	-40.2574	-15.0084	-2.78593
 470	1	9	-0.249785	-38.5436	-16.5141	-1.71754
 471	1	9	-0.32829	-38.0609	-15.3672	-3.89074
 472	1	10	0.056572	-39.055	-16.4725	-0.748239
 473	1	10	0.044267	-37.4778	-16.6933	-1.52778
 474	1	10	0.051935	-38.9395	-17.3735	-2.27318
 475	1	10	0.069302	-38.1216	-14.4363	-4.46888
 476	1	10	0.077707	-38.5481	-16.1557	-4.47766
 477	1	10	0.059383	-37.0065	-15.6497	-3.78768
 478	1	10	0.048889	-40.6401	-15.7923	-3.4516
 479	1	10	0.055177	-40.4415	-14.0392	-3.26648
 480	1	10	0.04962	-40.8537	-15.0522	-1.86791
 481	1	1	0.438909	-37.9097	-25.3002	14.0744
 482	1	1	0.108796	-37.6155	-25.0229	12.7677
 483	1	2	-0.726889	-37.0702	-26.2206	14.5885
 484	1	3	-0.675747	-36.5584	-25.8007	12.4066
 485	1	1	-0.43042	-46.2291	-16.2135	10.1355
 486	1	4	0.62373	-36.2427	-26.5166	13.569
 487	1	1	0.00157	-44.2424	-18.1626	10.5665
 488	1	5	0.178696	-39.3222	-19.634	9.74096
 489	1	2	-0.592725	-41.9454	-18.9771	10.2057
 490	1	6	-0.000174	-39.3459	-23.3381	12.6534
 491	1	5	0.1602	-42.01	-22.5184	12.8417
 492	1	4	0.461284	-43.1525	-19.1379	10.77
 493	1	1	-0.167191	-39.6685	-23.6559	14.0073
 494	1	5	0.164364	-38.0135	-23.8594	10.9935
 495	1	1	-0.325009	-38.9495	-24.6378	14.7276
 496	1	8	0.422373	-36.0712	-25.8212	11.5293
 497	1	1	-0.217421	-38.2931	-24.057	12.0222
 498	1	5	0.173851	-42.9758	-16.8692	9.42824
 499	1	5	0.197073	-46.981	-15.4567	9.92985
 500	1	6	0.024852	-40.0373	-22.2197	11.9375
 501	1	1	0.048807	-41.9613	-20.8125	11.5035
 502	1	1	0.060532	-46.5613	-17.3776	10.8703
 503	1	5	0.140008	-38.2432	-21.5894	10.8731
 504	1	5	0.202663	-39.1625	-24.8639	15.7663
 505	1	1	-0.222969	-41.4095	-21.9153	12.1692
 506	1	1	0.35235	-41.2288	-20.0154	10.6663
 507	1	1	0.269742	-44.9403	-16.0061	9.60761
 508	1	1	-0.166682	-39.2987	-21.3935	11.0388
 509	1	1	-0.277787	-39.8877	-20.2842	10.3997
 510	1	1	-0.312482	-43.9755	-17.0032	9.82283
 511	1	9	0.442075	-48.0248	-17.6064	11.3463
 512	1	5	0.128262	-45.7509	-19.2438	11.6393
 513	1	3	-0.434358	-43.2221	-20.2857	11.5668
 514	1	8	0.354457	-44.0041	-20.5989	12.113
 515	1	1	-0.233188	-45.5397	-18.3365	11.0876
 516	1	5	0.143867	-40.4507	-23.0977	14.5147
 517	1	9	-0.2502	-48.6103	-16.3302	12.0034
 518	1	9	-0.249785	-48.1604	-18.7498	12.3857
 519	1	9	-0.32829	-48.8972	-17.9768	10.1251
 520	1	10	0.056572	-49.1945	-18.8337	12.743
 521	1	10	0.044267	-47.5196	-18.5654	13.2572
 522	1	10	0.051935	-47.8924	-19.7204	11.9514
 523	1	10	0.069302	-48.8833	-17.1754	9.37608
 524	1	10	0.077707	-49.9401	-18.1479	10.4189
 525	1	10	0.059383	-48.5233	-18.8896	9.64449
 526	1	10	0.048889	-48.7026	-15.5064	11.2867
 527	1	10	0.055177	-47.9728	-15.993	12.8299
 528	1	10	0.04962	-49.6142	-16.5182	12.4045
 529	1	1	0.438909	-25.906	-32.1289	6.86292
 530	1	1	0.108796	-26.7602	-32.8923	7.61147
 531	1	2	-0.726889	-24.6753	-32.6695	6.81337
 532	1	3	-0.675747	-26.0841	-34.0095	8.00306
 533	1	1	-0.43042	-34.8146	-28.12	14.8933
 534	1	4	0.62373	-24.7735	-33.7834	7.55885
 535	1	1	0.00157	-33.2498	-28.692	12.6303
 536	1	5	0.178696	-32.1575	-28.2223	7.50372
 537	1	2	-0.592725	-32.696	-28.5172	10.209
 538	1	6	-0.000174	-28.419	-31.1338	7.61931
 539	1	5	0.1602	-29.2864	-31.3092	10.2113
 540	1	4	0.461284	-32.4617	-29.0284	11.4299
 541	1	1	-0.167191	-27.5622	-30.3887	6.75594
 542	1	5	0.164364	-28.6233	-33.0253	8.70109
 543	1	1	-0.325009	-26.292	-30.8795	6.37954
 544	1	8	0.422373	-26.3805	-34.7072	8.65782
 545	1	1	-0.217421	-28.0095	-32.4314	8.03354
 546	1	5	0.173851	-34.5353	-27.3204	11.5933
 547	1	5	0.197073	-35.4396	-27.8738	15.7463
 548	1	6	0.024852	-29.6325	-30.4939	8.21232
 549	1	1	0.048807	-30.9801	-29.9701	10.1465
 550	1	1	0.060532	-33.7428	-29.0314	15.0243
 551	1	5	0.140008	-30.2472	-29.4447	6.40851
 552	1	5	0.202663	-25.5905	-30.285	5.80475
 553	1	1	-0.222969	-29.9152	-30.6804	9.59103
 554	1	1	0.35235	-31.7651	-29.1092	9.42961
 555	1	1	0.269742	-35.1155	-27.4806	13.6725
 556	1	1	-0.166682	-30.4571	-29.6024	7.46331
 557	1	1	-0.277787	-31.5346	-28.9102	8.06527
 558	1	1	-0.312482	-34.319	-27.7822	12.5508
 559	1	9	0.442075	-33.3956	-29.7258	16.3725
 560	1	5	0.128262	-32.1216	-29.9619	13.9536
 561	1	3	-0.434358	-31.4008	-29.9347	11.4382
 562	1	8	0.354457	-31.0354	-30.4349	12.2272
 563	1	1	-0.233188	-32.963	-29.285	13.8762
 564	1	5	0.143867	-27.8479	-29.3825	6.45921
 565	1	9	-0.2502	-33.1176	-31.2381	16.1668
 566	1	9	-0.249785	-34.5373	-29.6194	17.4162
 567	1	9	-0.32829	-32.1341	-29.0725	16.9807
 568	1	10	0.056572	-34.7056	-28.5789	17.7197
 569	1	10	0.044267	-34.2972	-30.1853	18.3251
 570	1	10	0.051935	-35.4751	-30.0194	17.0103
 571	1	10	0.069302	-32.3042	-28.0043	17.1655
 572	1	10	0.077707	-31.2767	-29.1633	16.3034
 573	1	10	0.059383	-31.8654	-29.5438	17.9346
 574	1	10	0.048889	-32.9749	-31.7465	17.1286
 575	1	10	0.055177	-32.2109	-31.4132	15.5776
 576	1	10	0.04962	-33.9589	-31.7194	15.6525
 577	1	1	0.438909	-12.0783	-31.4531	11.0143
 578	1	1	0.108796	-12.9324	-30.4244	10.7269
 579	1	2	-0.726889	-11.0341	-31.0381	11.7557
 580	1	3	-0.675747	-12.4195	-29.2914	11.2879
 581	1	1	-0.43042	-23.7542	-35.7962	8.71358
 582	1	4	0.62373	-11.256	-29.724	11.9427
 583	1	1	0.00157	-21.1702	-34.7515	8.29896
 584	1	5	0.178696	-18.1881	-30.6762	6.96259
 585	1	2	-0.592725	-19.6471	-32.9302	7.58362
 586	1	6	-0.000174	-14.4866	-31.925	9.63273
 587	1	5	0.1602	-16.115	-34.15	9.91928
 588	1	4	0.461284	-19.847	-34.1018	8.2072
 589	1	1	-0.167191	-13.5734	-32.9858	9.91386
 590	1	5	0.164364	-14.8158	-29.7748	9.88863
 591	1	1	-0.325009	-12.3621	-32.7561	10.6056
 592	1	8	0.422373	-12.8306	-28.3791	11.3113
 593	1	1	-0.217421	-14.1406	-30.6078	10.0478
 594	1	5	0.173851	-22.1768	-33.1725	7.22824
 595	1	5	0.197073	-24.7561	-36.1718	8.87188
 596	1	6	0.024852	-15.8077	-32.1971	8.97841
 597	1	1	0.048807	-17.7892	-33.5599	8.68203
 598	1	1	0.060532	-22.6383	-36.5199	9.1993
 599	1	5	0.140008	-15.8861	-30.3081	7.89733
 600	1	5	0.202663	-11.6721	-33.5575	10.8446
 601	1	1	-0.222969	-16.5192	-33.3999	9.24844
 602	1	1	0.35235	-18.3781	-32.6064	7.89747
 603	1	1	0.269742	-23.6023	-34.5927	7.98787
 604	1	1	-0.166682	-16.417	-31.2274	8.12678
 605	1	1	-0.277787	-17.7053	-31.4248	7.58198
 606	1	1	-0.312482	-22.3009	-34.1166	7.75632
 607	1	9	0.442075	-22.7761	-37.8755	9.9511
 608	1	5	0.128262	-20.4882	-36.4832	9.38288
 609	1	3	-0.434358	-18.7001	-34.5592	8.86412
 610	1	8	0.354457	-18.6295	-35.3583	9.46591
 611	1	1	-0.233188	-21.356	-35.9642	8.99286
 612	1	5	0.143867	-13.8144	-33.996	9.5936
 613	1	9	-0.2502	-22.1283	-39.003	9.11322
 614	1	9	-0.249785	-24.2496	-38.2805	10.2172
 615	1	9	-0.32829	-22.0711	-37.8124	11.3288
 616	1	10	0.056572	-24.7635	-37.5213	10.8199
 617	1	10	0.044267	-24.3038	-39.2298	10.7654
 618	1	10	0.051935	-24.8	-38.4156	9.27781
 619	1	10	0.069302	-22.4746	-36.9898	11.932
 620	1	10	0.077707	-20.9911	-37.6601	11.2264
 621	1	10	0.059383	-22.2164	-38.7453	11.8882
 622	1	10	0.048889	-22.6142	-39.084	8.13263
 623	1	10	0.055177	-22.2206	-39.973	9.61793
 624	1	10	0.04962	-21.0615	-38.8137	8.94447
 625	1	1	0.438909	-13.8884	-17.3857	14.0826
 626	1	1	0.108796	-12.534	-17.2707	14.2334
 627	1	2	-0.726889	-14.4927	-16.1848	14.0823
 628	1	3	-0.675747	-12.2418	-15.9388	14.3281
 629	1	1	-0.43042	-9.29596	-29.4314	13.4852
 630	1	4	0.62373	-13.4916	-15.3029	14.2529
 631	1	1	0.00157	-9.83424	-26.6924	13.8187
 632	1	5	0.178696	-8.61435	-22.1027	16.0325
 633	1	2	-0.592725	-9.31369	-24.4733	14.806
 634	1	6	-0.000174	-12.2629	-19.6807	14.2367
 635	1	5	0.1602	-12.6559	-22.1784	13.0715
 636	1	4	0.461284	-10.0816	-25.2474	14.022