

################################################################################
##################################    Init    ##################################
################################################################################
units           real
atom_style      full
pair_style      lj/cut/coul/long 12.0  12.0
kspace_style    pppm 1e-4
bond_style      harmonic
angle_style     harmonic
dihedral_style  fourier
improper_style  cvff
special_bonds   amber
pair_modify     mix arithmetic
read_data       temp.lmps
  orthogonal box = (-91.1269 -91.1269 -91.1269) to (91.1269 91.1269 91.1269)
  1 by 1 by 1 MPI processor grid
  reading atoms ...
  96 atoms
  reading velocities ...
  96 velocities
  scanning bonds ...
  3 = max bonds/atom
  scanning angles ...
  6 = max angles/atom
  scanning dihedrals ...
  27 = max dihedrals/atom
  scanning impropers ...
  2 = max impropers/atom
  reading bonds ...
  105 bonds
  reading angles ...
  180 angles
  reading dihedrals ...
  271 dihedrals
  reading impropers ...
  24 impropers
  4 = max # of 1-2 neighbors
  11 = max # of 1-3 neighbors
  20 = max # of 1-4 neighbors
  22 = max # of special neighbors
  special bonds CPU = 0.000305176 secs
  read_data CPU = 0.00467205 secs
################################################################################

timestep        1
fix             pysimm_md all nve/limit 0.1
run             2000
PPPM initialization ...
  using 12-bit tables for long-range coulomb (../kspace.cpp:332)
  G vector (1/distance) = 0.0926156
  grid = 15 15 15
  stencil order = 5
  estimated absolute RMS force accuracy = 0.0276117
  estimated relative force accuracy = 8.31518e-05
  using double precision KISS FFT
  3d grid and FFT values/proc = 8000 3375
Neighbor list info ...
  update every 1 steps, delay 10 steps, check yes
  max neighbors/atom: 2000, page size: 100000
  master list distance cutoff = 14
  ghost atom cutoff = 14
  binsize = 7, bins = 27 27 27
  1 neighbor lists, perpetual/occasional/extra = 1 0 0
  (1) pair lj/cut/coul/long, perpetual
      attributes: half, newton on
      pair build: half/bin/newton
      stencil: half/bin/3d/newton
      bin: standard
Per MPI rank memory allocation (min/avg/max) = 19.37 | 19.37 | 19.37 Mbytes
Step Temp E_pair E_mol TotEng Press 
       0   0.50810915    8376.4524    215.63945    8592.2357      380.384 
    2000    823.20444   -10.347663    217.79902    440.56388    3.8023131 
Loop time of 1.72295 on 1 procs for 2000 steps with 96 atoms

Performance: 100.293 ns/day, 0.239 hours/ns, 1160.800 timesteps/s
100.0% CPU use with 1 MPI tasks x no OpenMP threads

MPI task timing breakdown:
Section |  min time  |  avg time  |  max time  |%varavg| %total
---------------------------------------------------------------
Pair    | 0.14213    | 0.14213    | 0.14213    |   0.0 |  8.25
Bond    | 0.081995   | 0.081995   | 0.081995   |   0.0 |  4.76
Kspace  | 1.479      | 1.479      | 1.479      |   0.0 | 85.84
Neigh   | 0.011041   | 0.011041   | 0.011041   |   0.0 |  0.64
Comm    | 0.001121   | 0.001121   | 0.001121   |   0.0 |  0.07
Output  | 3.0994e-05 | 3.0994e-05 | 3.0994e-05 |   0.0 |  0.00
Modify  | 0.0037165  | 0.0037165  | 0.0037165  |   0.0 |  0.22
Other   |            | 0.003931   |            |       |  0.23

Nlocal:    96 ave 96 max 96 min
Histogram: 1 0 0 0 0 0 0 0 0 0
Nghost:    16 ave 16 max 16 min
Histogram: 1 0 0 0 0 0 0 0 0 0
Neighs:    3033 ave 3033 max 3033 min
Histogram: 1 0 0 0 0 0 0 0 0 0

Total # of neighbors = 3033
Ave neighs/atom = 31.5938
Ave special neighs/atom = 10.7917
Neighbor list builds = 85
Dangerous builds = 0
unfix pysimm_md
min_style cg
minimize 0.001 0.001 10000 100000
WARNING: Using 'neigh_modify every 1 delay 0 check yes' setting during minimization (../min.cpp:190)
PPPM initialization ...
  using 12-bit tables for long-range coulomb (../kspace.cpp:332)
  G vector (1/distance) = 0.0926156
  grid = 15 15 15
  stencil order = 5
  estimated absolute RMS force accuracy = 0.0276117
  estimated relative force accuracy = 8.31518e-05
  using double precision KISS FFT
  3d grid and FFT values/proc = 8000 3375
Per MPI rank memory allocation (min/avg/max) = 20.49 | 20.49 | 20.49 Mbytes
Step Temp E_pair E_mol TotEng Press 
    2000    823.20444   -10.347663    217.79902    440.56388    3.8023131 
    2020    823.20444   -20.284847    82.795823     295.6235    1.7146239 
Loop time of 0.036679 on 1 procs for 20 steps with 96 atoms

100.9% CPU use with 1 MPI tasks x no OpenMP threads

Minimization stats:
  Stopping criterion = energy tolerance
  Energy initial, next-to-last, final = 
         207.451355372      62.5163539265      62.5109761484
  Force two-norm initial, final = 464.777 36.2569
  Force max component initial, final = 88.1654 7.10517
  Final line search alpha, max atom move = 0.00428771 0.030465
  Iterations, force evaluations = 20 40

MPI task timing breakdown:
Section |  min time  |  avg time  |  max time  |%varavg| %total
---------------------------------------------------------------
Pair    | 0.0045791  | 0.0045791  | 0.0045791  |   0.0 | 12.48
Bond    | 0.0018208  | 0.0018208  | 0.0018208  |   0.0 |  4.96
Kspace  | 0.030068   | 0.030068   | 0.030068   |   0.0 | 81.98
Neigh   | 0          | 0          | 0          |   0.0 |  0.00
Comm    | 1.5736e-05 | 1.5736e-05 | 1.5736e-05 |   0.0 |  0.04
Output  | 0          | 0          | 0          |   0.0 |  0.00
Modify  | 0          | 0          | 0          |   0.0 |  0.00
Other   |            | 0.000195   |            |       |  0.53

Nlocal:    96 ave 96 max 96 min
Histogram: 1 0 0 0 0 0 0 0 0 0
Nghost:    16 ave 16 max 16 min
Histogram: 1 0 0 0 0 0 0 0 0 0
Neighs:    3054 ave 3054 max 3054 min
Histogram: 1 0 0 0 0 0 0 0 0 0

Total # of neighbors = 3054
Ave neighs/atom = 31.8125
Ave special neighs/atom = 10.7917
Neighbor list builds = 0
Dangerous builds = 0
write_dump all custom pysimm.dump.tmp id q x y z vx vy vz
quit


################################################################################
##################################    Init    ##################################
################################################################################
units           real
atom_style      full
pair_style      lj/cut/coul/long 12.0  12.0
kspace_style    pppm 1e-4
bond_style      harmonic
angle_style     harmonic
dihedral_style  fourier
improper_style  cvff
special_bonds   amber
pair_modify     mix arithmetic
read_data       temp.lmps
  orthogonal box = (-91.1269 -91.1269 -91.1269) to (91.1269 91.1269 91.1269)
  1 by 1 by 1 MPI processor grid
  reading atoms ...
  144 atoms
  reading velocities ...
  144 velocities
  scanning bonds ...
  3 = max bonds/atom
  scanning angles ...
  6 = max angles/atom
  scanning dihedrals ...
  27 = max dihedrals/atom
  scanning impropers ...
  2 = max impropers/atom
  reading bonds ...
  158 bonds
  reading angles ...
  272 angles
  reading dihedrals ...
  412 dihedrals
  reading impropers ...
  36 impropers
  4 = max # of 1-2 neighbors
  11 = max # of 1-3 neighbors
  20 = max # of 1-4 neighbors
  22 = max # of special neighbors
  special bonds CPU = 0.000524044 secs
  read_data CPU = 0.00649309 secs
################################################################################

timestep        1
fix             pysimm_md all nve/limit 0.1
run             2000
PPPM initialization ...
WARNING: System is not charge neutral, net charge = -1.2e-05 (../kspace.cpp:313)
  using 12-bit tables for long-range coulomb (../kspace.cpp:332)
  G vector (1/distance) = 0.0926156
  grid = 15 15 15
  stencil order = 5
  estimated absolute RMS force accuracy = 0.0338173
  estimated relative force accuracy = 0.00010184
  using double precision KISS FFT
  3d grid and FFT values/proc = 8000 3375
Neighbor list info ...
  update every 1 steps, delay 10 steps, check yes
  max neighbors/atom: 2000, page size: 100000
  master list distance cutoff = 14
  ghost atom cutoff = 14
  binsize = 7, bins = 27 27 27
  1 neighbor lists, perpetual/occasional/extra = 1 0 0
  (1) pair lj/cut/coul/long, perpetual
      attributes: half, newton on
      pair build: half/bin/newton
      stencil: half/bin/3d/newton
      bin: standard
Per MPI rank memory allocation (min/avg/max) = 19.37 | 19.37 | 19.37 Mbytes
Step Temp E_pair E_mol TotEng Press 
       0    547.05279    9.7622948    318.05329    561.00002   0.71789813 
    2000    594.03762    3.3269988    302.09977    558.63877    1.8115594 
Loop time of 1.92381 on 1 procs for 2000 steps with 144 atoms

Performance: 89.822 ns/day, 0.267 hours/ns, 1039.603 timesteps/s
100.0% CPU use with 1 MPI tasks x no OpenMP threads

MPI task timing breakdown:
Section |  min time  |  avg time  |  max time  |%varavg| %total
---------------------------------------------------------------
Pair    | 0.2337     | 0.2337     | 0.2337     |   0.0 | 12.15
Bond    | 0.12491    | 0.12491    | 0.12491    |   0.0 |  6.49
Kspace  | 1.5395     | 1.5395     | 1.5395     |   0.0 | 80.03
Neigh   | 0.014033   | 0.014033   | 0.014033   |   0.0 |  0.73
Comm    | 0.0014582  | 0.0014582  | 0.0014582  |   0.0 |  0.08
Output  | 2.5034e-05 | 2.5034e-05 | 2.5034e-05 |   0.0 |  0.00
Modify  | 0.0051219  | 0.0051219  | 0.0051219  |   0.0 |  0.27
Other   |            | 0.005014   |            |       |  0.26

Nlocal:    144 ave 144 max 144 min
Histogram: 1 0 0 0 0 0 0 0 0 0
Nghost:    20 ave 20 max 20 min
Histogram: 1 0 0 0 0 0 0 0 0 0
Neighs:    5024 ave 5024 max 5024 min
Histogram: 1 0 0 0 0 0 0 0 0 0

Total # of neighbors = 5024
Ave neighs/atom = 34.8889
Ave special neighs/atom = 10.9028
Neighbor list builds = 70
Dangerous builds = 0
unfix pysimm_md
min_style cg
minimize 0.001 0.001 10000 100000
WARNING: Using 'neigh_modify every 1 delay 0 check yes' setting during minimization (../min.cpp:190)
PPPM initialization ...
  using 12-bit tables for long-range coulomb (../kspace.cpp:332)
  G vector (1/distance) = 0.0926156
  grid = 15 15 15
  stencil order = 5
  estimated absolute RMS force accuracy = 0.0338173
  estimated relative force accuracy = 0.00010184
  using double precision KISS FFT
  3d grid and FFT values/proc = 8000 3375
Per MPI rank memory allocation (min/avg/max) = 20.5 | 20.5 | 20.5 Mbytes
Step Temp E_pair E_mol TotEng Press 
    2000    594.03762    3.3269988    302.09977    558.63877    1.8115594 
    2033    594.03762   -3.6435308    109.07701    358.64548    2.5670483 
Loop time of 0.128448 on 1 procs for 33 steps with 144 atoms

99.6% CPU use with 1 MPI tasks x no OpenMP threads

Minimization stats:
  Stopping criterion = linesearch alpha is zero
  Energy initial, next-to-last, final = 
         305.426769732      105.433479497      105.433479497
  Force two-norm initial, final = 533.212 28.3056
  Force max component initial, final = 122.562 6.03682
  Final line search alpha, max atom move = 8.79303e-12 5.30819e-11
  Iterations, force evaluations = 33 123

MPI task timing breakdown:
Section |  min time  |  avg time  |  max time  |%varavg| %total
---------------------------------------------------------------
Pair    | 0.023455   | 0.023455   | 0.023455   |   0.0 | 18.26
Bond    | 0.0086291  | 0.0086291  | 0.0086291  |   0.0 |  6.72
Kspace  | 0.095688   | 0.095688   | 0.095688   |   0.0 | 74.50
Neigh   | 0          | 0          | 0          |   0.0 |  0.00
Comm    | 9.9182e-05 | 9.9182e-05 | 9.9182e-05 |   0.0 |  0.08
Output  | 0          | 0          | 0          |   0.0 |  0.00
Modify  | 0          | 0          | 0          |   0.0 |  0.00
Other   |            | 0.000577   |            |       |  0.45

Nlocal:    144 ave 144 max 144 min
Histogram: 1 0 0 0 0 0 0 0 0 0
Nghost:    20 ave 20 max 20 min
Histogram: 1 0 0 0 0 0 0 0 0 0
Neighs:    5017 ave 5017 max 5017 min
Histogram: 1 0 0 0 0 0 0 0 0 0

Total # of neighbors = 5017
Ave neighs/atom = 34.8403
Ave special neighs/atom = 10.9028
Neighbor list builds = 0
Dangerous builds = 0
write_dump all custom pysimm.dump.tmp id q x y z vx vy vz
quit


################################################################################
##################################    Init    ##################################
################################################################################
units           real
atom_style      full
pair_style      lj/cut/coul/long 12.0  12.0
kspace_style    pppm 1e-4
bond_style      harmonic
angle_style     harmonic
dihedral_style  fourier
improper_style  cvff
special_bonds   amber
pair_modify     mix arithmetic
read_data       temp.lmps
  orthogonal box = (-91.1269 -91.1269 -91.1269) to (91.1269 91.1269 91.1269)
  1 by 1 by 1 MPI processor grid
  reading atoms ...
  192 atoms
  reading velocities ...
  192 velocities
  scanning bonds ...
  3 = max bonds/atom
  scanning angles ...
  6 = max angles/atom
  scanning dihedrals ...
  27 = max dihedrals/atom
  scanning impropers ...
  2 = max impropers/atom
  reading bonds ...
  211 bonds
  reading angles ...
  364 angles
  reading dihedrals ...
  553 dihedrals
  reading impropers ...
  48 impropers
  4 = max # of 1-2 neighbors
  11 = max # of 1-3 neighbors
  20 = max # of 1-4 neighbors
  22 = max # of special neighbors
  special bonds CPU = 0.000384092 secs
  read_data CPU = 0.00656796 secs
################################################################################

timestep        1
fix             pysimm_md all nve/limit 0.1
run             2000
PPPM initialization ...
WARNING: System is not charge neutral, net charge = -1.6e-05 (../kspace.cpp:313)
  using 12-bit tables for long-range coulomb (../kspace.cpp:332)
  G vector (1/distance) = 0.0971023
  grid = 16 16 16
  stencil order = 5
  estimated absolute RMS force accuracy = 0.0345441
  estimated relative force accuracy = 0.000104029
  using double precision KISS FFT
  3d grid and FFT values/proc = 9261 4096
Neighbor list info ...
  update every 1 steps, delay 10 steps, check yes
  max neighbors/atom: 2000, page size: 100000
  master list distance cutoff = 14
  ghost atom cutoff = 14
  binsize = 7, bins = 27 27 27
  1 neighbor lists, perpetual/occasional/extra = 1 0 0
  (1) pair lj/cut/coul/long, perpetual
      attributes: half, newton on
      pair build: half/bin/newton
      stencil: half/bin/3d/newton
      bin: standard
Per MPI rank memory allocation (min/avg/max) = 19.49 | 19.49 | 19.49 Mbytes
Step Temp E_pair E_mol TotEng Press 
       0    444.87713    42.995784    298.50448    594.78426    2.5118292 
    2000    390.97829    24.510285    346.14033    593.24813  -0.33980779 
Loop time of 2.38034 on 1 procs for 2000 steps with 192 atoms

Performance: 72.595 ns/day, 0.331 hours/ns, 840.217 timesteps/s
100.1% CPU use with 1 MPI tasks x no OpenMP threads

MPI task timing breakdown:
Section |  min time  |  avg time  |  max time  |%varavg| %total
---------------------------------------------------------------
Pair    | 0.31514    | 0.31514    | 0.31514    |   0.0 | 13.24
Bond    | 0.16795    | 0.16795    | 0.16795    |   0.0 |  7.06
Kspace  | 1.8674     | 1.8674     | 1.8674     |   0.0 | 78.45
Neigh   | 0.015904   | 0.015904   | 0.015904   |   0.0 |  0.67
Comm    | 0.0016716  | 0.0016716  | 0.0016716  |   0.0 |  0.07
Output  | 2.1935e-05 | 2.1935e-05 | 2.1935e-05 |   0.0 |  0.00
Modify  | 0.0068223  | 0.0068223  | 0.0068223  |   0.0 |  0.29
Other   |            | 0.005477   |            |       |  0.23

Nlocal:    192 ave 192 max 192 min
Histogram: 1 0 0 0 0 0 0 0 0 0
Nghost:    14 ave 14 max 14 min
Histogram: 1 0 0 0 0 0 0 0 0 0
Neighs:    6971 ave 6971 max 6971 min
Histogram: 1 0 0 0 0 0 0 0 0 0

Total # of neighbors = 6971
Ave neighs/atom = 36.3073
Ave special neighs/atom = 10.9583
Neighbor list builds = 59
Dangerous builds = 0
unfix pysimm_md
min_style cg
minimize 0.001 0.001 10000 100000
WARNING: Using 'neigh_modify every 1 delay 0 check yes' setting during minimization (../min.cpp:190)
PPPM initialization ...
  using 12-bit tables for long-range coulomb (../kspace.cpp:332)
  G vector (1/distance) = 0.0971023
  grid = 16 16 16
  stencil order = 5
  estimated absolute RMS force accuracy = 0.0345441
  estimated relative force accuracy = 0.000104029
  using double precision KISS FFT
  3d grid and FFT values/proc = 9261 4096
Per MPI rank memory allocation (min/avg/max) = 20.61 | 20.61 | 20.61 Mbytes
Step Temp E_pair E_mol TotEng Press 
    2000    390.97829    24.510285    346.14033    593.24813  -0.33980779 
    2035    390.97829    16.570959    144.52612     383.6946    2.8829029 
Loop time of 0.0916281 on 1 procs for 35 steps with 192 atoms

100.4% CPU use with 1 MPI tasks x no OpenMP threads

Minimization stats:
  Stopping criterion = energy tolerance
  Energy initial, next-to-last, final = 
         370.650615181      161.198381894       161.09707941
  Force two-norm initial, final = 553.062 31.3781
  Force max component initial, final = 112.719 5.78521
  Final line search alpha, max atom move = 0.0055885 0.0323306
  Iterations, force evaluations = 35 70

MPI task timing breakdown:
Section |  min time  |  avg time  |  max time  |%varavg| %total
---------------------------------------------------------------
Pair    | 0.018061   | 0.018061   | 0.018061   |   0.0 | 19.71
Bond    | 0.0064747  | 0.0064747  | 0.0064747  |   0.0 |  7.07
Kspace  | 0.066548   | 0.066548   | 0.066548   |   0.0 | 72.63
Neigh   | 0          | 0          | 0          |   0.0 |  0.00
Comm    | 5.0068e-05 | 5.0068e-05 | 5.0068e-05 |   0.0 |  0.05
Output  | 0          | 0          | 0          |   0.0 |  0.00
Modify  | 0          | 0          | 0          |   0.0 |  0.00
Other   |            | 0.0004942  |            |       |  0.54

Nlocal:    192 ave 192 max 192 min
Histogram: 1 0 0 0 0 0 0 0 0 0
Nghost:    14 ave 14 max 14 min
Histogram: 1 0 0 0 0 0 0 0 0 0
Neighs:    6971 ave 6971 max 6971 min
Histogram: 1 0 0 0 0 0 0 0 0 0

Total # of neighbors = 6971
Ave neighs/atom = 36.3073
Ave special neighs/atom = 10.9583
Neighbor list builds = 0
Dangerous builds = 0
write_dump all custom pysimm.dump.tmp id q x y z vx vy vz
quit


################################################################################
##################################    Init    ##################################
################################################################################
units           real
atom_style      full
pair_style      lj/cut/coul/long 12.0  12.0
kspace_style    pppm 1e-4
bond_style      harmonic
angle_style     harmonic
dihedral_style  fourier
improper_style  cvff
special_bonds   amber
pair_modify     mix arithmetic
read_data       temp.lmps
  orthogonal box = (-91.1269 -91.1269 -91.1269) to (91.1269 91.1269 91.1269)
  1 by 1 by 1 MPI processor grid
  reading atoms ...
  240 atoms
  reading velocities ...
  240 velocities
  scanning bonds ...
  3 = max bonds/atom
  scanning angles ...
  6 = max angles/atom
  scanning dihedrals ...
  27 = max dihedrals/atom
  scanning impropers ...
  2 = max impropers/atom
  reading bonds ...
  264 bonds
  reading angles ...
  456 angles
  reading dihedrals ...
  694 dihedrals
  reading impropers ...
  60 impropers
  4 = max # of 1-2 neighbors
  11 = max # of 1-3 neighbors
  20 = max # of 1-4 neighbors
  22 = max # of special neighbors
  special bonds CPU = 0.00048089 secs
  read_data CPU = 0.00757408 secs
################################################################################

timestep        1
fix             pysimm_md all nve/limit 0.1
run             2000
PPPM initialization ...
WARNING: System is not charge neutral, net charge = -2e-05 (../kspace.cpp:313)
  using 12-bit tables for long-range coulomb (../kspace.cpp:332)
  G vector (1/distance) = 0.10557
  grid = 18 18 18
  stencil order = 5
  estimated absolute RMS force accuracy = 0.0301645
  estimated relative force accuracy = 9.08395e-05
  using double precision KISS FFT
  3d grid and FFT values/proc = 12167 5832
Neighbor list info ...
  update every 1 steps, delay 10 steps, check yes
  max neighbors/atom: 2000, page size: 100000
  master list distance cutoff = 14
  ghost atom cutoff = 14
  binsize = 7, bins = 27 27 27
  1 neighbor lists, perpetual/occasional/extra = 1 0 0
  (1) pair lj/cut/coul/long, perpetual
      attributes: half, newton on
      pair build: half/bin/newton
      stencil: half/bin/3d/newton
      bin: standard
Per MPI rank memory allocation (min/avg/max) = 19.75 | 19.75 | 19.75 Mbytes
Step Temp E_pair E_mol TotEng Press 
       0    312.55645    93.037489     357.8255    673.53246    4.2711207 
    2000    342.65146    29.145418    365.73667    638.99165   -0.8367896 
Loop time of 3.40759 on 1 procs for 2000 steps with 240 atoms

Performance: 50.710 ns/day, 0.473 hours/ns, 586.925 timesteps/s
100.0% CPU use with 1 MPI tasks x no OpenMP threads

MPI task timing breakdown:
Section |  min time  |  avg time  |  max time  |%varavg| %total
---------------------------------------------------------------
Pair    | 0.41571    | 0.41571    | 0.41571    |   0.0 | 12.20
Bond    | 0.21447    | 0.21447    | 0.21447    |   0.0 |  6.29
Kspace  | 2.741      | 2.741      | 2.741      |   0.0 | 80.44
Neigh   | 0.019924   | 0.019924   | 0.019924   |   0.0 |  0.58
Comm    | 0.0016668  | 0.0016668  | 0.0016668  |   0.0 |  0.05
Output  | 2.6941e-05 | 2.6941e-05 | 2.6941e-05 |   0.0 |  0.00
Modify  | 0.0083809  | 0.0083809  | 0.0083809  |   0.0 |  0.25
Other   |            | 0.006388   |            |       |  0.19

Nlocal:    240 ave 240 max 240 min
Histogram: 1 0 0 0 0 0 0 0 0 0
Nghost:    16 ave 16 max 16 min
Histogram: 1 0 0 0 0 0 0 0 0 0
Neighs:    8936 ave 8936 max 8936 min
Histogram: 1 0 0 0 0 0 0 0 0 0

Total # of neighbors = 8936
Ave neighs/atom = 37.2333
Ave special neighs/atom = 10.9917
Neighbor list builds = 56
Dangerous builds = 0
unfix pysimm_md
min_style cg
minimize 0.001 0.001 10000 100000
WARNING: Using 'neigh_modify every 1 delay 0 check yes' setting during minimization (../min.cpp:190)
PPPM initialization ...
  using 12-bit tables for long-range coulomb (../kspace.cpp:332)
  G vector (1/distance) = 0.10557
  grid = 18 18 18
  stencil order = 5
  estimated absolute RMS force accuracy = 0.0301645
  estimated relative force accuracy = 9.08395e-05
  using double precision KISS FFT
  3d grid and FFT values/proc = 12167 5832
Per MPI rank memory allocation (min/avg/max) = 20.88 | 20.88 | 20.88 Mbytes
Step Temp E_pair E_mol TotEng Press 
    2000    342.65146    29.145418    365.73667    638.99165   -0.8367896 
    2032    342.65146    34.319324    162.19958    440.62846    1.7302605 
Loop time of 0.116713 on 1 procs for 32 steps with 240 atoms

99.4% CPU use with 1 MPI tasks x no OpenMP threads

Minimization stats:
  Stopping criterion = energy tolerance
  Energy initial, next-to-last, final = 
         394.882082995      196.645463054      196.518899435
  Force two-norm initial, final = 527.723 26.9189
  Force max component initial, final = 111.961 4.32984
  Final line search alpha, max atom move = 0.00724568 0.0313726
  Iterations, force evaluations = 32 64

MPI task timing breakdown:
Section |  min time  |  avg time  |  max time  |%varavg| %total
---------------------------------------------------------------
Pair    | 0.022316   | 0.022316   | 0.022316   |   0.0 | 19.12
Bond    | 0.0076294  | 0.0076294  | 0.0076294  |   0.0 |  6.54
Kspace  | 0.08621    | 0.08621    | 0.08621    |   0.0 | 73.87
Neigh   | 0          | 0          | 0          |   0.0 |  0.00
Comm    | 3.5286e-05 | 3.5286e-05 | 3.5286e-05 |   0.0 |  0.03
Output  | 0          | 0          | 0          |   0.0 |  0.00
Modify  | 0          | 0          | 0          |   0.0 |  0.00
Other   |            | 0.0005217  |            |       |  0.45

Nlocal:    240 ave 240 max 240 min
Histogram: 1 0 0 0 0 0 0 0 0 0
Nghost:    16 ave 16 max 16 min
Histogram: 1 0 0 0 0 0 0 0 0 0
Neighs:    8939 ave 8939 max 8939 min
Histogram: 1 0 0 0 0 0 0 0 0 0

Total # of neighbors = 8939
Ave neighs/atom = 37.2458
Ave special neighs/atom = 10.9917
Neighbor list builds = 0
Dangerous builds = 0
write_dump all custom pysimm.dump.tmp id q x y z vx vy vz
quit


################################################################################
##################################    Init    ##################################
################################################################################
units           real
atom_style      full
pair_style      lj/cut/coul/long 12.0  12.0
kspace_style    pppm 1e-4
bond_style      harmonic
angle_style     harmonic
dihedral_style  fourier
improper_style  cvff
special_bonds   amber
pair_modify     mix arithmetic
read_data       temp.lmps
  orthogonal box = (-91.1269 -91.1269 -91.1269) to (91.1269 91.1269 91.1269)
  1 by 1 by 1 MPI processor grid
  reading atoms ...
  288 atoms
  reading velocities ...
  288 velocities
  scanning bonds ...
  3 = max bonds/atom
  scanning angles ...
  6 = max angles/atom
  scanning dihedrals ...
  27 = max dihedrals/atom
  scanning impropers ...
  2 = max impropers/atom
  reading bonds ...
  317 bonds
  reading angles ...
  548 angles
  reading dihedrals ...
  835 dihedrals
  reading impropers ...
  72 impropers
  4 = max # of 1-2 neighbors
  11 = max # of 1-3 neighbors
  20 = max # of 1-4 neighbors
  22 = max # of special neighbors
  special bonds CPU = 0.000440836 secs
  read_data CPU = 0.00767779 secs
################################################################################

timestep        1
fix             pysimm_md all nve/limit 0.1
run             2000
PPPM initialization ...
WARNING: System is not charge neutral, net charge = -2.4e-05 (../kspace.cpp:313)
  using 12-bit tables for long-range coulomb (../kspace.cpp:332)
  G vector (1/distance) = 0.105572
  grid = 18 18 18
  stencil order = 5
  estimated absolute RMS force accuracy = 0.0330453
  estimated relative force accuracy = 9.9515e-05
  using double precision KISS FFT
  3d grid and FFT values/proc = 12167 5832
Neighbor list info ...
  update every 1 steps, delay 10 steps, check yes
  max neighbors/atom: 2000, page size: 100000
  master list distance cutoff = 14
  ghost atom cutoff = 14
  binsize = 7, bins = 27 27 27
  1 neighbor lists, perpetual/occasional/extra = 1 0 0
  (1) pair lj/cut/coul/long, perpetual
      attributes: half, newton on
      pair build: half/bin/newton
      stencil: half/bin/3d/newton
      bin: standard
Per MPI rank memory allocation (min/avg/max) = 19.76 | 19.76 | 19.76 Mbytes
Step Temp E_pair E_mol TotEng Press 
       0      285.428    73.838064    333.97648    651.99605    1.1333219 
    2000    235.64559      54.9379    396.57198    653.10292   -4.4002328 
Loop time of 3.61462 on 1 procs for 2000 steps with 288 atoms

Performance: 47.806 ns/day, 0.502 hours/ns, 553.308 timesteps/s
100.1% CPU use with 1 MPI tasks x no OpenMP threads

MPI task timing breakdown:
Section |  min time  |  avg time  |  max time  |%varavg| %total
---------------------------------------------------------------
Pair    | 0.51578    | 0.51578    | 0.51578    |   0.0 | 14.27
Bond    | 0.25385    | 0.25385    | 0.25385    |   0.0 |  7.02
Kspace  | 2.8049     | 2.8049     | 2.8049     |   0.0 | 77.60
Neigh   | 0.020035   | 0.020035   | 0.020035   |   0.0 |  0.55
Comm    | 0.0018952  | 0.0018952  | 0.0018952  |   0.0 |  0.05
Output  | 3.5048e-05 | 3.5048e-05 | 3.5048e-05 |   0.0 |  0.00
Modify  | 0.010079   | 0.010079   | 0.010079   |   0.0 |  0.28
Other   |            | 0.008008   |            |       |  0.22

Nlocal:    288 ave 288 max 288 min
Histogram: 1 0 0 0 0 0 0 0 0 0
Nghost:    2 ave 2 max 2 min
Histogram: 1 0 0 0 0 0 0 0 0 0
Neighs:    10948 ave 10948 max 10948 min
Histogram: 1 0 0 0 0 0 0 0 0 0

Total # of neighbors = 10948
Ave neighs/atom = 38.0139
Ave special neighs/atom = 11.0139
Neighbor list builds = 46
Dangerous builds = 0
unfix pysimm_md
min_style cg
minimize 0.001 0.001 10000 100000
WARNING: Using 'neigh_modify every 1 delay 0 check yes' setting during minimization (../min.cpp:190)
PPPM initialization ...
  using 12-bit tables for long-range coulomb (../kspace.cpp:332)
  G vector (1/distance) = 0.105572
  grid = 18 18 18
  stencil order = 5
  estimated absolute RMS force accuracy = 0.0330453
  estimated relative force accuracy = 9.9515e-05
  using double precision KISS FFT
  3d grid and FFT values/proc = 12167 5832
Per MPI rank memory allocation (min/avg/max) = 20.88 | 20.88 | 20.88 Mbytes
Step Temp E_pair E_mol TotEng Press 
    2000    235.64559      54.9379    396.57198    653.10292   -4.4002328 
    2022    235.64559    50.604078    209.94077    462.13789   0.96607129 
Loop time of 0.0887661 on 1 procs for 22 steps with 288 atoms

99.1% CPU use with 1 MPI tasks x no OpenMP threads

Minimization stats:
  Stopping criterion = energy tolerance
  Energy initial, next-to-last, final = 
         451.509881875      260.659429156      260.544850782
  Force two-norm initial, final = 523.326 39.5665
  Force max component initial, final = 75.4672 6.18114
  Final line search alpha, max atom move = 0.00358311 0.0221477
  Iterations, force evaluations = 22 44

MPI task timing breakdown:
Section |  min time  |  avg time  |  max time  |%varavg| %total
---------------------------------------------------------------
Pair    | 0.018796   | 0.018796   | 0.018796   |   0.0 | 21.17
Bond    | 0.0063779  | 0.0063779  | 0.0063779  |   0.0 |  7.19
Kspace  | 0.06296    | 0.06296    | 0.06296    |   0.0 | 70.93
Neigh   | 0          | 0          | 0          |   0.0 |  0.00
Comm    | 6.3181e-05 | 6.3181e-05 | 6.3181e-05 |   0.0 |  0.07
Output  | 0          | 0          | 0          |   0.0 |  0.00
Modify  | 0          | 0          | 0          |   0.0 |  0.00
Other   |            | 0.0005693  |            |       |  0.64

Nlocal:    288 ave 288 max 288 min
Histogram: 1 0 0 0 0 0 0 0 0 0
Nghost:    2 ave 2 max 2 min
Histogram: 1 0 0 0 0 0 0 0 0 0
Neighs:    10971 ave 10971 max 10971 min
Histogram: 1 0 0 0 0 0 0 0 0 0

Total # of neighbors = 10971
Ave neighs/atom = 38.0938
Ave special neighs/atom = 11.0139
Neighbor list builds = 0
Dangerous builds = 0
write_dump all custom pysimm.dump.tmp id q x y z vx vy vz
quit


################################################################################
##################################    Init    ##################################
################################################################################
units           real
atom_style      full
pair_style      lj/cut/coul/long 12.0  12.0
kspace_style    pppm 1e-4
bond_style      harmonic
angle_style     harmonic
dihedral_style  fourier
improper_style  cvff
special_bonds   amber
pair_modify     mix arithmetic
read_data       temp.lmps
  orthogonal box = (-91.1269 -91.1269 -91.1269) to (91.1269 91.1269 91.1269)
  1 by 1 by 1 MPI processor grid
  reading atoms ...
  336 atoms
  reading velocities ...
  336 velocities
  scanning bonds ...
  3 = max bonds/atom
  scanning angles ...
  6 = max angles/atom
  scanning dihedrals ...
  27 = max dihedrals/atom
  scanning impropers ...
  2 = max impropers/atom
  reading bonds ...
  370 bonds
  reading angles ...
  640 angles
  reading dihedrals ...
  976 dihedrals
  reading impropers ...
  84 impropers
  4 = max # of 1-2 neighbors
  11 = max # of 1-3 neighbors
  20 = max # of 1-4 neighbors
  22 = max # of special neighbors
  special bonds CPU = 0.000458002 secs
  read_data CPU = 0.00664592 secs
################################################################################

timestep        1
fix             pysimm_md all nve/limit 0.1
run             2000
PPPM initialization ...
WARNING: System is not charge neutral, net charge = -2.8e-05 (../kspace.cpp:313)
  using 12-bit tables for long-range coulomb (../kspace.cpp:332)
  G vector (1/distance) = 0.105571
  grid = 18 18 18
  stencil order = 5
  estimated absolute RMS force accuracy = 0.0356914
  estimated relative force accuracy = 0.000107484
  using double precision KISS FFT
  3d grid and FFT values/proc = 12167 5832
Neighbor list info ...
  update every 1 steps, delay 10 steps, check yes
  max neighbors/atom: 2000, page size: 100000
  master list distance cutoff = 14
  ghost atom cutoff = 14
  binsize = 7, bins = 27 27 27
  1 neighbor lists, perpetual/occasional/extra = 1 0 0
  (1) pair lj/cut/coul/long, perpetual
      attributes: half, newton on
      pair build: half/bin/newton
      stencil: half/bin/3d/newton
      bin: standard
Per MPI rank memory allocation (min/avg/max) = 19.76 | 19.76 | 19.76 Mbytes
Step Temp E_pair E_mol TotEng Press 
       0    201.95349    468.08904    443.80729    1113.5613    17.582246 
    2000    291.39987    85.520087    463.87867    840.38233    1.5548613 
Loop time of 3.76888 on 1 procs for 2000 steps with 336 atoms

Performance: 45.849 ns/day, 0.523 hours/ns, 530.662 timesteps/s
100.0% CPU use with 1 MPI tasks x no OpenMP threads

MPI task timing breakdown:
Section |  min time  |  avg time  |  max time  |%varavg| %total
---------------------------------------------------------------
Pair    | 0.59819    | 0.59819    | 0.59819    |   0.0 | 15.87
Bond    | 0.29452    | 0.29452    | 0.29452    |   0.0 |  7.81
Kspace  | 2.8153     | 2.8153     | 2.8153     |   0.0 | 74.70
Neigh   | 0.040506   | 0.040506   | 0.040506   |   0.0 |  1.07
Comm    | 0.0016987  | 0.0016987  | 0.0016987  |   0.0 |  0.05
Output  | 2.5034e-05 | 2.5034e-05 | 2.5034e-05 |   0.0 |  0.00
Modify  | 0.011298   | 0.011298   | 0.011298   |   0.0 |  0.30
Other   |            | 0.007311   |            |       |  0.19

Nlocal:    336 ave 336 max 336 min
Histogram: 1 0 0 0 0 0 0 0 0 0
Nghost:    0 ave 0 max 0 min
Histogram: 1 0 0 0 0 0 0 0 0 0
Neighs:    12878 ave 12878 max 12878 min
Histogram: 1 0 0 0 0 0 0 0 0 0

Total # of neighbors = 12878
Ave neighs/atom = 38.3274
Ave special neighs/atom = 11.0298
Neighbor list builds = 83
Dangerous builds = 0
unfix pysimm_md
min_style cg
minimize 0.001 0.001 10000 100000
WARNING: Using 'neigh_modify every 1 delay 0 check yes' setting during minimization (../min.cpp:190)
PPPM initialization ...
  using 12-bit tables for long-range coulomb (../kspace.cpp:332)
  G vector (1/distance) = 0.105571
  grid = 18 18 18
  stencil order = 5
  estimated absolute RMS force accuracy = 0.0356914
  estimated relative force accuracy = 0.000107484
  using double precision KISS FFT
  3d grid and FFT values/proc = 12167 5832
Per MPI rank memory allocation (min/avg/max) = 20.89 | 20.89 | 20.89 Mbytes
Step Temp E_pair E_mol TotEng Press 
    2000    291.39987    85.520087    463.87867    840.38233    1.5548613 
    2045    291.39987    65.042293    233.09001    589.11587    2.9821231 
Loop time of 0.18338 on 1 procs for 45 steps with 336 atoms

100.3% CPU use with 1 MPI tasks x no OpenMP threads

Minimization stats:
  Stopping criterion = energy tolerance
  Energy initial, next-to-last, final = 
         549.398757818      298.409557173      298.132298888
  Force two-norm initial, final = 592.614 21.3426
  Force max component initial, final = 112.124 3.05313
  Final line search alpha, max atom move = 0.0036727 0.0112132
  Iterations, force evaluations = 45 90

MPI task timing breakdown:
Section |  min time  |  avg time  |  max time  |%varavg| %total
---------------------------------------------------------------
Pair    | 0.041511   | 0.041511   | 0.041511   |   0.0 | 22.64
Bond    | 0.014102   | 0.014102   | 0.014102   |   0.0 |  7.69
Kspace  | 0.12634    | 0.12634    | 0.12634    |   0.0 | 68.90
Neigh   | 0.00049615 | 0.00049615 | 0.00049615 |   0.0 |  0.27
Comm    | 4.0054e-05 | 4.0054e-05 | 4.0054e-05 |   0.0 |  0.02
Output  | 0          | 0          | 0          |   0.0 |  0.00
Modify  | 0          | 0          | 0          |   0.0 |  0.00
Other   |            | 0.0008895  |            |       |  0.49

Nlocal:    336 ave 336 max 336 min
Histogram: 1 0 0 0 0 0 0 0 0 0
Nghost:    0 ave 0 max 0 min
Histogram: 1 0 0 0 0 0 0 0 0 0
Neighs:    12874 ave 12874 max 12874 min
Histogram: 1 0 0 0 0 0 0 0 0 0

Total # of neighbors = 12874
Ave neighs/atom = 38.3155
Ave special neighs/atom = 11.0298
Neighbor list builds = 1
Dangerous builds = 0
write_dump all custom pysimm.dump.tmp id q x y z vx vy vz
quit


################################################################################
##################################    Init    ##################################
################################################################################
units           real
atom_style      full
pair_style      lj/cut/coul/long 12.0  12.0
kspace_style    pppm 1e-4
bond_style      harmonic
angle_style     harmonic
dihedral_style  fourier
improper_style  cvff
special_bonds   amber
pair_modify     mix arithmetic
read_data       temp.lmps
  orthogonal box = (-91.1269 -91.1269 -91.1269) to (91.1269 91.1269 91.1269)
  1 by 1 by 1 MPI processor grid
  reading atoms ...
  384 atoms
  reading velocities ...
  384 velocities
  scanning bonds ...
  3 = max bonds/atom
  scanning angles ...
  6 = max angles/atom
  scanning dihedrals ...
  27 = max dihedrals/atom
  scanning impropers ...
  2 = max impropers/atom
  reading bonds ...
  423 bonds
  reading angles ...
  732 angles
  reading dihedrals ...
  1117 dihedrals
  reading impropers ...
  96 impropers
  4 = max # of 1-2 neighbors
  11 = max # of 1-3 neighbors
  20 = max # of 1-4 neighbors
  22 = max # of special neighbors
  special bonds CPU = 0.000700951 secs
  read_data CPU = 0.00849819 secs
################################################################################

timestep        1
fix             pysimm_md all nve/limit 0.1
run             2000
PPPM initialization ...
WARNING: System is not charge neutral, net charge = -3.2e-05 (../kspace.cpp:313)
  using 12-bit tables for long-range coulomb (../kspace.cpp:332)
  G vector (1/distance) = 0.105571
  grid = 18 18 18
  stencil order = 5
  estimated absolute RMS force accuracy = 0.0381555
  estimated relative force accuracy = 0.000114904
  using double precision KISS FFT
  3d grid and FFT values/proc = 12167 5832
Neighbor list info ...
  update every 1 steps, delay 10 steps, check yes
  max neighbors/atom: 2000, page size: 100000
  master list distance cutoff = 14
  ghost atom cutoff = 14
  binsize = 7, bins = 27 27 27
  1 neighbor lists, perpetual/occasional/extra = 1 0 0
  (1) pair lj/cut/coul/long, perpetual
      attributes: half, newton on
      pair build: half/bin/newton
      stencil: half/bin/3d/newton
      bin: standard
Per MPI rank memory allocation (min/avg/max) = 19.77 | 19.77 | 19.77 Mbytes
Step Temp E_pair E_mol TotEng Press 
       0    254.94279    33536.338    417.69917    34245.092    1519.5686 
    2000    304.75513    94.915189    553.12524     995.9642    3.2692043 
Loop time of 3.91959 on 1 procs for 2000 steps with 384 atoms

Performance: 44.086 ns/day, 0.544 hours/ns, 510.257 timesteps/s
100.0% CPU use with 1 MPI tasks x no OpenMP threads

MPI task timing breakdown:
Section |  min time  |  avg time  |  max time  |%varavg| %total
---------------------------------------------------------------
Pair    | 0.67626    | 0.67626    | 0.67626    |   0.0 | 17.25
Bond    | 0.32683    | 0.32683    | 0.32683    |   0.0 |  8.34
Kspace  | 2.8452     | 2.8452     | 2.8452     |   0.0 | 72.59
Neigh   | 0.051488   | 0.051488   | 0.051488   |   0.0 |  1.31
Comm    | 0.0015116  | 0.0015116  | 0.0015116  |   0.0 |  0.04
Output  | 2.7895e-05 | 2.7895e-05 | 2.7895e-05 |   0.0 |  0.00
Modify  | 0.012387   | 0.012387   | 0.012387   |   0.0 |  0.32
Other   |            | 0.005903   |            |       |  0.15

Nlocal:    384 ave 384 max 384 min
Histogram: 1 0 0 0 0 0 0 0 0 0
Nghost:    0 ave 0 max 0 min
Histogram: 1 0 0 0 0 0 0 0 0 0
Neighs:    14772 ave 14772 max 14772 min
Histogram: 1 0 0 0 0 0 0 0 0 0

Total # of neighbors = 14772
Ave neighs/atom = 38.4688
Ave special neighs/atom = 11.0417
Neighbor list builds = 95
Dangerous builds = 0
unfix pysimm_md
min_style cg
minimize 0.001 0.001 10000 100000
WARNING: Using 'neigh_modify every 1 delay 0 check yes' setting during minimization (../min.cpp:190)
PPPM initialization ...
  using 12-bit tables for long-range coulomb (../kspace.cpp:332)
  G vector (1/distance) = 0.105571
  grid = 18 18 18
  stencil order = 5
  estimated absolute RMS force accuracy = 0.0381555
  estimated relative force accuracy = 0.000114904
  using double precision KISS FFT
  3d grid and FFT values/proc = 12167 5832
Per MPI rank memory allocation (min/avg/max) = 20.9 | 20.9 | 20.9 Mbytes
Step Temp E_pair E_mol TotEng Press 
    2000    304.75513    94.915189    553.12524     995.9642    3.2692043 
    2042    304.75513    86.519564    266.88194    701.32527    4.2252767 
Loop time of 0.308193 on 1 procs for 42 steps with 384 atoms

99.9% CPU use with 1 MPI tasks x no OpenMP threads

Minimization stats:
  Stopping criterion = linesearch alpha is zero
  Energy initial, next-to-last, final = 
         648.040429009      353.401500775      353.401500775
  Force two-norm initial, final = 644.634 33.4685
  Force max component initial, final = 119.803 4.31709
  Final line search alpha, max atom move = 6.57746e-12 2.83955e-11
  Iterations, force evaluations = 42 141

MPI task timing breakdown:
Section |  min time  |  avg time  |  max time  |%varavg| %total
---------------------------------------------------------------
Pair    | 0.078725   | 0.078725   | 0.078725   |   0.0 | 25.54
Bond    | 0.025521   | 0.025521   | 0.025521   |   0.0 |  8.28
Kspace  | 0.20265    | 0.20265    | 0.20265    |   0.0 | 65.75
Neigh   | 0          | 0          | 0          |   0.0 |  0.00
Comm    | 6.4135e-05 | 6.4135e-05 | 6.4135e-05 |   0.0 |  0.02
Output  | 0          | 0          | 0          |   0.0 |  0.00
Modify  | 0          | 0          | 0          |   0.0 |  0.00
Other   |            | 0.001238   |            |       |  0.40

Nlocal:    384 ave 384 max 384 min
Histogram: 1 0 0 0 0 0 0 0 0 0
Nghost:    0 ave 0 max 0 min
Histogram: 1 0 0 0 0 0 0 0 0 0
Neighs:    14771 ave 14771 max 14771 min
Histogram: 1 0 0 0 0 0 0 0 0 0

Total # of neighbors = 14771
Ave neighs/atom = 38.4661
Ave special neighs/atom = 11.0417
Neighbor list builds = 0
Dangerous builds = 0
write_dump all custom pysimm.dump.tmp id q x y z vx vy vz
quit


################################################################################
##################################    Init    ##################################
################################################################################
units           real
atom_style      full
pair_style      lj/cut/coul/long 12.0  12.0
kspace_style    pppm 1e-4
bond_style      harmonic
angle_style     harmonic
dihedral_style  fourier
improper_style  cvff
special_bonds   amber
pair_modify     mix arithmetic
read_data       temp.lmps
  orthogonal box = (-91.1269 -91.1269 -91.1269) to (91.1269 91.1269 91.1269)
  1 by 1 by 1 MPI processor grid
  reading atoms ...
  432 atoms
  reading velocities ...
  432 velocities
  scanning bonds ...
  3 = max bonds/atom
  scanning angles ...
  6 = max angles/atom
  scanning dihedrals ...
  27 = max dihedrals/atom
  scanning impropers ...
  2 = max impropers/atom
  reading bonds ...
  476 bonds
  reading angles ...
  824 angles
  reading dihedrals ...
  1258 dihedrals
  reading impropers ...
  108 impropers
  4 = max # of 1-2 neighbors
  11 = max # of 1-3 neighbors
  20 = max # of 1-4 neighbors
  22 = max # of special neighbors
  special bonds CPU = 0.000609159 secs
  read_data CPU = 0.00759482 secs
################################################################################

timestep        1
fix             pysimm_md all nve/limit 0.1
run             2000
PPPM initialization ...
WARNING: System is not charge neutral, net charge = -3.6e-05 (../kspace.cpp:313)
  using 12-bit tables for long-range coulomb (../kspace.cpp:332)
  G vector (1/distance) = 0.113418
  grid = 20 20 20
  stencil order = 5
  estimated absolute RMS force accuracy = 0.0315992
  estimated relative force accuracy = 9.51601e-05
  using double precision KISS FFT
  3d grid and FFT values/proc = 15625 8000
Neighbor list info ...
  update every 1 steps, delay 10 steps, check yes
  max neighbors/atom: 2000, page size: 100000
  master list distance cutoff = 14
  ghost atom cutoff = 14
  binsize = 7, bins = 27 27 27
  1 neighbor lists, perpetual/occasional/extra = 1 0 0
  (1) pair lj/cut/coul/long, perpetual
      attributes: half, newton on
      pair build: half/bin/newton
      stencil: half/bin/3d/newton
      bin: standard
Per MPI rank memory allocation (min/avg/max) = 20.09 | 20.09 | 20.09 Mbytes
Step Temp E_pair E_mol TotEng Press 
       0    270.87081    22333.512    447.45615    23128.964    1011.9999 
    2000    279.63632    118.30257    654.11043    1131.6699   0.61477591 
Loop time of 4.7465 on 1 procs for 2000 steps with 432 atoms

Performance: 36.406 ns/day, 0.659 hours/ns, 421.363 timesteps/s
100.0% CPU use with 1 MPI tasks x no OpenMP threads

MPI task timing breakdown:
Section |  min time  |  avg time  |  max time  |%varavg| %total
---------------------------------------------------------------
Pair    | 0.77504    | 0.77504    | 0.77504    |   0.0 | 16.33
Bond    | 0.37427    | 0.37427    | 0.37427    |   0.0 |  7.89
Kspace  | 3.5151     | 3.5151     | 3.5151     |   0.0 | 74.06
Neigh   | 0.058521   | 0.058521   | 0.058521   |   0.0 |  1.23
Comm    | 0.0019772  | 0.0019772  | 0.0019772  |   0.0 |  0.04
Output  | 2.9087e-05 | 2.9087e-05 | 2.9087e-05 |   0.0 |  0.00
Modify  | 0.014575   | 0.014575   | 0.014575   |   0.0 |  0.31
Other   |            | 0.007009   |            |       |  0.15

Nlocal:    432 ave 432 max 432 min
Histogram: 1 0 0 0 0 0 0 0 0 0
Nghost:    0 ave 0 max 0 min
Histogram: 1 0 0 0 0 0 0 0 0 0
Neighs:    17068 ave 17068 max 17068 min
Histogram: 1 0 0 0 0 0 0 0 0 0

Total # of neighbors = 17068
Ave neighs/atom = 39.5093
Ave special neighs/atom = 11.0509
Neighbor list builds = 94
Dangerous builds = 0
unfix pysimm_md
min_style cg
minimize 0.001 0.001 10000 100000
WARNING: Using 'neigh_modify every 1 delay 0 check yes' setting during minimization (../min.cpp:190)
PPPM initialization ...
  using 12-bit tables for long-range coulomb (../kspace.cpp:332)
  G vector (1/distance) = 0.113418
  grid = 20 20 20
  stencil order = 5
  estimated absolute RMS force accuracy = 0.0315992
  estimated relative force accuracy = 9.51601e-05
  using double precision KISS FFT
  3d grid and FFT values/proc = 15625 8000
Per MPI rank memory allocation (min/avg/max) = 21.22 | 21.22 | 21.22 Mbytes
Step Temp E_pair E_mol TotEng Press 
    2000    279.63632    118.30257    654.11043    1131.6699   0.61477591 
    2019    279.63632    104.65634    357.49213    821.40539    4.1381479 
Loop time of 0.102058 on 1 procs for 19 steps with 432 atoms

99.9% CPU use with 1 MPI tasks x no OpenMP threads

Minimization stats:
  Stopping criterion = energy tolerance
  Energy initial, next-to-last, final = 
         772.412996395      462.508494612      462.148470236
  Force two-norm initial, final = 688.471 49.3725
  Force max component initial, final = 111.549 9.11704
  Final line search alpha, max atom move = 0.00522974 0.0476798
  Iterations, force evaluations = 19 38

MPI task timing breakdown:
Section |  min time  |  avg time  |  max time  |%varavg| %total
---------------------------------------------------------------
Pair    | 0.023791   | 0.023791   | 0.023791   |   0.0 | 23.31
Bond    | 0.0078065  | 0.0078065  | 0.0078065  |   0.0 |  7.65
Kspace  | 0.069964   | 0.069964   | 0.069964   |   0.0 | 68.55
Neigh   | 0          | 0          | 0          |   0.0 |  0.00
Comm    | 2.5749e-05 | 2.5749e-05 | 2.5749e-05 |   0.0 |  0.03
Output  | 0          | 0          | 0          |   0.0 |  0.00
Modify  | 0          | 0          | 0          |   0.0 |  0.00
Other   |            | 0.0004706  |            |       |  0.46

Nlocal:    432 ave 432 max 432 min
Histogram: 1 0 0 0 0 0 0 0 0 0
Nghost:    0 ave 0 max 0 min
Histogram: 1 0 0 0 0 0 0 0 0 0
Neighs:    17054 ave 17054 max 17054 min
Histogram: 1 0 0 0 0 0 0 0 0 0

Total # of neighbors = 17054
Ave neighs/atom = 39.4769
Ave special neighs/atom = 11.0509
Neighbor list builds = 0
Dangerous builds = 0
write_dump all custom pysimm.dump.tmp id q x y z vx vy vz
quit


################################################################################
##################################    Init    ##################################
################################################################################
units           real
atom_style      full
pair_style      lj/cut/coul/long 12.0  12.0
kspace_style    pppm 1e-4
bond_style      harmonic
angle_style     harmonic
dihedral_style  fourier
improper_style  cvff
special_bonds   amber
pair_modify     mix arithmetic
read_data       temp.lmps
  orthogonal box = (-91.1269 -91.1269 -91.1269) to (91.1269 91.1269 91.1269)
  1 by 1 by 1 MPI processor grid
  reading atoms ...
  480 atoms
  reading velocities ...
  480 velocities
  scanning bonds ...
  3 = max bonds/atom
  scanning angles ...
  6 = max angles/atom
  scanning dihedrals ...
  27 = max dihedrals/atom
  scanning impropers ...
  2 = max impropers/atom
  reading bonds ...
  529 bonds
  reading angles ...
  916 angles
  reading dihedrals ...
  1399 dihedrals
  reading impropers ...
  120 impropers
  4 = max # of 1-2 neighbors
  11 = max # of 1-3 neighbors
  20 = max # of 1-4 neighbors
  22 = max # of special neighbors
  special bonds CPU = 0.000549078 secs
  read_data CPU = 0.00778508 secs
################################################################################

timestep        1
fix             pysimm_md all nve/limit 0.1
run             2000
PPPM initialization ...
WARNING: System is not charge neutral, net charge = -4e-05 (../kspace.cpp:313)
  using 12-bit tables for long-range coulomb (../kspace.cpp:332)
  G vector (1/distance) = 0.113417
  grid = 20 20 20
  stencil order = 5
  estimated absolute RMS force accuracy = 0.0333082
  estimated relative force accuracy = 0.000100307
  using double precision KISS FFT
  3d grid and FFT values/proc = 15625 8000
Neighbor list info ...
  update every 1 steps, delay 10 steps, check yes
  max neighbors/atom: 2000, page size: 100000
  master list distance cutoff = 14
  ghost atom cutoff = 14
  binsize = 7, bins = 27 27 27
  1 neighbor lists, perpetual/occasional/extra = 1 0 0
  (1) pair lj/cut/coul/long, perpetual
      attributes: half, newton on
      pair build: half/bin/newton
      stencil: half/bin/3d/newton
      bin: standard
Per MPI rank memory allocation (min/avg/max) = 20.1 | 20.1 | 20.1 Mbytes
Step Temp E_pair E_mol TotEng Press 
       0     251.6647    14602.509    602.86908    15564.707    660.61934 
    2000    337.66277    138.48504    716.15021    1336.7529     2.429927 
Loop time of 5.09328 on 1 procs for 2000 steps with 480 atoms

Performance: 33.927 ns/day, 0.707 hours/ns, 392.674 timesteps/s
100.0% CPU use with 1 MPI tasks x no OpenMP threads

MPI task timing breakdown:
Section |  min time  |  avg time  |  max time  |%varavg| %total
---------------------------------------------------------------
Pair    | 0.89895    | 0.89895    | 0.89895    |   0.0 | 17.65
Bond    | 0.42819    | 0.42819    | 0.42819    |   0.0 |  8.41
Kspace  | 3.6617     | 3.6617     | 3.6617     |   0.0 | 71.89
Neigh   | 0.07792    | 0.07792    | 0.07792    |   0.0 |  1.53
Comm    | 0.0023701  | 0.0023701  | 0.0023701  |   0.0 |  0.05
Output  | 2.7895e-05 | 2.7895e-05 | 2.7895e-05 |   0.0 |  0.00
Modify  | 0.01644    | 0.01644    | 0.01644    |   0.0 |  0.32
Other   |            | 0.007708   |            |       |  0.15

Nlocal:    480 ave 480 max 480 min
Histogram: 1 0 0 0 0 0 0 0 0 0
Nghost:    14 ave 14 max 14 min
Histogram: 1 0 0 0 0 0 0 0 0 0
Neighs:    18959 ave 18959 max 18959 min
Histogram: 1 0 0 0 0 0 0 0 0 0

Total # of neighbors = 18959
Ave neighs/atom = 39.4979
Ave special neighs/atom = 11.0583
Neighbor list builds = 109
Dangerous builds = 0
unfix pysimm_md
min_style cg
minimize 0.001 0.001 10000 100000
WARNING: Using 'neigh_modify every 1 delay 0 check yes' setting during minimization (../min.cpp:190)
PPPM initialization ...
  using 12-bit tables for long-range coulomb (../kspace.cpp:332)
  G vector (1/distance) = 0.113417
  grid = 20 20 20
  stencil order = 5
  estimated absolute RMS force accuracy = 0.0333082
  estimated relative force accuracy = 0.000100307
  using double precision KISS FFT
  3d grid and FFT values/proc = 15625 8000
Per MPI rank memory allocation (min/avg/max) = 21.22 | 21.22 | 21.22 Mbytes
Step Temp E_pair E_mol TotEng Press 
    2000    337.66277    138.48504    716.15021    1336.7529     2.429927 
    2051    337.66277    117.75085    336.96613    936.83459    6.1694359 
Loop time of 0.28922 on 1 procs for 51 steps with 480 atoms

99.9% CPU use with 1 MPI tasks x no OpenMP threads

Minimization stats:
  Stopping criterion = energy tolerance
  Energy initial, next-to-last, final = 
         854.635248967      454.934133244      454.716981633
  Force two-norm initial, final = 721.38 28.4028
  Force max component initial, final = 116.335 3.60286
  Final line search alpha, max atom move = 0.00881582 0.0317622
  Iterations, force evaluations = 51 102

MPI task timing breakdown:
Section |  min time  |  avg time  |  max time  |%varavg| %total
---------------------------------------------------------------
Pair    | 0.074683   | 0.074683   | 0.074683   |   0.0 | 25.82
Bond    | 0.024067   | 0.024067   | 0.024067   |   0.0 |  8.32
Kspace  | 0.18832    | 0.18832    | 0.18832    |   0.0 | 65.11
Neigh   | 0.00073099 | 0.00073099 | 0.00073099 |   0.0 |  0.25
Comm    | 8.0347e-05 | 8.0347e-05 | 8.0347e-05 |   0.0 |  0.03
Output  | 0          | 0          | 0          |   0.0 |  0.00
Modify  | 0          | 0          | 0          |   0.0 |  0.00
Other   |            | 0.001334   |            |       |  0.46

Nlocal:    480 ave 480 max 480 min
Histogram: 1 0 0 0 0 0 0 0 0 0
Nghost:    14 ave 14 max 14 min
Histogram: 1 0 0 0 0 0 0 0 0 0
Neighs:    18934 ave 18934 max 18934 min
Histogram: 1 0 0 0 0 0 0 0 0 0

Total # of neighbors = 18934
Ave neighs/atom = 39.4458
Ave special neighs/atom = 11.0583
Neighbor list builds = 1
Dangerous builds = 0
write_dump all custom pysimm.dump.tmp id q x y z vx vy vz
quit


################################################################################
##################################    Init    ##################################
################################################################################
units           real
atom_style      full
pair_style      lj/cut/coul/long 12.0  12.0
kspace_style    pppm 1e-4
bond_style      harmonic
angle_style     harmonic
dihedral_style  fourier
improper_style  cvff
special_bonds   amber
pair_modify     mix arithmetic
read_data       temp.lmps
  orthogonal box = (-114.813 -114.813 -114.813) to (114.813 114.813 114.813)
  1 by 1 by 1 MPI processor grid
  reading atoms ...
  528 atoms
  reading velocities ...
  528 velocities
  scanning bonds ...
  3 = max bonds/atom
  scanning angles ...
  6 = max angles/atom
  scanning dihedrals ...
  27 = max dihedrals/atom
  scanning impropers ...
  2 = max impropers/atom
  reading bonds ...
  582 bonds
  reading angles ...
  1008 angles
  reading dihedrals ...
  1540 dihedrals
  reading impropers ...
  132 impropers
  4 = max # of 1-2 neighbors
  11 = max # of 1-3 neighbors
  20 = max # of 1-4 neighbors
  22 = max # of special neighbors
  special bonds CPU = 0.000622988 secs
  read_data CPU = 0.00937104 secs
################################################################################

timestep        1
fix             pysimm_md all nve/limit 0.1
run             2000
PPPM initialization ...
WARNING: System is not charge neutral, net charge = -4.4e-05 (../kspace.cpp:313)
  using 12-bit tables for long-range coulomb (../kspace.cpp:332)
  G vector (1/distance) = 0.109759
  grid = 24 24 24
  stencil order = 5
  estimated absolute RMS force accuracy = 0.0277836
  estimated relative force accuracy = 8.36695e-05
  using double precision KISS FFT
  3d grid and FFT values/proc = 24389 13824
Neighbor list info ...
  update every 1 steps, delay 10 steps, check yes
  max neighbors/atom: 2000, page size: 100000
  master list distance cutoff = 14
  ghost atom cutoff = 14
  binsize = 7, bins = 33 33 33
  1 neighbor lists, perpetual/occasional/extra = 1 0 0
  (1) pair lj/cut/coul/long, perpetual
      attributes: half, newton on
      pair build: half/bin/newton
      stencil: half/bin/3d/newton
      bin: standard
Per MPI rank memory allocation (min/avg/max) = 21.02 | 21.02 | 21.02 Mbytes
Step Temp E_pair E_mol TotEng Press 
       0    306.95366    81.656826    266606.42    267170.26   -1057.2186 
    2000    1664.9407    134.52261    1703.2452    4453.2013   -2.1314851 
Loop time of 8.48443 on 1 procs for 2000 steps with 528 atoms

Performance: 20.367 ns/day, 1.178 hours/ns, 235.726 timesteps/s
100.0% CPU use with 1 MPI tasks x no OpenMP threads

MPI task timing breakdown:
Section |  min time  |  avg time  |  max time  |%varavg| %total
---------------------------------------------------------------
Pair    | 1.1563     | 1.1563     | 1.1563     |   0.0 | 13.63
Bond    | 0.48751    | 0.48751    | 0.48751    |   0.0 |  5.75
Kspace  | 6.6632     | 6.6632     | 6.6632     |   0.0 | 78.53
Neigh   | 0.14916    | 0.14916    | 0.14916    |   0.0 |  1.76
Comm    | 0.0030682  | 0.0030682  | 0.0030682  |   0.0 |  0.04
Output  | 2.5034e-05 | 2.5034e-05 | 2.5034e-05 |   0.0 |  0.00
Modify  | 0.018967   | 0.018967   | 0.018967   |   0.0 |  0.22
Other   |            | 0.00611    |            |       |  0.07

Nlocal:    528 ave 528 max 528 min
Histogram: 1 0 0 0 0 0 0 0 0 0
Nghost:    0 ave 0 max 0 min
Histogram: 1 0 0 0 0 0 0 0 0 0
Neighs:    23467 ave 23467 max 23467 min
Histogram: 1 0 0 0 0 0 0 0 0 0

Total # of neighbors = 23467
Ave neighs/atom = 44.4451
Ave special neighs/atom = 11.0644
Neighbor list builds = 173
Dangerous builds = 0
unfix pysimm_md
min_style cg
minimize 0.001 0.001 10000 100000
WARNING: Using 'neigh_modify every 1 delay 0 check yes' setting during minimization (../min.cpp:190)
PPPM initialization ...
  using 12-bit tables for long-range coulomb (../kspace.cpp:332)
  G vector (1/distance) = 0.109759
  grid = 24 24 24
  stencil order = 5
  estimated absolute RMS force accuracy = 0.0277836
  estimated relative force accuracy = 8.36695e-05
  using double precision KISS FFT
  3d grid and FFT values/proc = 24389 13824
Per MPI rank memory allocation (min/avg/max) = 22.14 | 22.14 | 22.14 Mbytes
Step Temp E_pair E_mol TotEng Press 
    2000    1664.9407    134.52261    1703.2452    4453.2013   -2.1314851 
    2091    1664.9407    110.84704    512.10108    3238.3816    10.016281 
Loop time of 0.79893 on 1 procs for 91 steps with 528 atoms

100.1% CPU use with 1 MPI tasks x no OpenMP threads

Minimization stats:
  Stopping criterion = energy tolerance
  Energy initial, next-to-last, final = 
         1837.76783774      623.205572285      622.948122045
  Force two-norm initial, final = 1029.04 52.7894
  Force max component initial, final = 143.934 6.8726
  Final line search alpha, max atom move = 0.00195653 0.0134465
  Iterations, force evaluations = 91 179

MPI task timing breakdown:
Section |  min time  |  avg time  |  max time  |%varavg| %total
---------------------------------------------------------------
Pair    | 0.15569    | 0.15569    | 0.15569    |   0.0 | 19.49
Bond    | 0.045468   | 0.045468   | 0.045468   |   0.0 |  5.69
Kspace  | 0.58976    | 0.58976    | 0.58976    |   0.0 | 73.82
Neigh   | 0.0051289  | 0.0051289  | 0.0051289  |   0.0 |  0.64
Comm    | 0.00017619 | 0.00017619 | 0.00017619 |   0.0 |  0.02
Output  | 0          | 0          | 0          |   0.0 |  0.00
Modify  | 0          | 0          | 0          |   0.0 |  0.00
Other   |            | 0.002703   |            |       |  0.34

Nlocal:    528 ave 528 max 528 min
Histogram: 1 0 0 0 0 0 0 0 0 0
Nghost:    0 ave 0 max 0 min
Histogram: 1 0 0 0 0 0 0 0 0 0
Neighs:    23356 ave 23356 max 23356 min
Histogram: 1 0 0 0 0 0 0 0 0 0

Total # of neighbors = 23356
Ave neighs/atom = 44.2348
Ave special neighs/atom = 11.0644
Neighbor list builds = 6
Dangerous builds = 0
write_dump all custom pysimm.dump.tmp id q x y z vx vy vz
quit


################################################################################
##################################    Init    ##################################
################################################################################
units           real
atom_style      full
pair_style      lj/cut/coul/long 12.0  12.0
kspace_style    pppm 1e-4
bond_style      harmonic
angle_style     harmonic
dihedral_style  fourier
improper_style  cvff
special_bonds   amber
pair_modify     mix arithmetic
read_data       temp.lmps
  orthogonal box = (-118.519 -118.519 -118.519) to (118.519 118.519 118.519)
  1 by 1 by 1 MPI processor grid
  reading atoms ...
  576 atoms
  reading velocities ...
  576 velocities
  scanning bonds ...
  3 = max bonds/atom
  scanning angles ...
  6 = max angles/atom
  scanning dihedrals ...
  27 = max dihedrals/atom
  scanning impropers ...
  2 = max impropers/atom
  reading bonds ...
  635 bonds
  reading angles ...
  1100 angles
  reading dihedrals ...
  1681 dihedrals
  reading impropers ...
  144 impropers
  4 = max # of 1-2 neighbors
  11 = max # of 1-3 neighbors
  20 = max # of 1-4 neighbors
  22 = max # of special neighbors
  special bonds CPU = 0.000648022 secs
  read_data CPU = 0.00961304 secs
################################################################################

timestep        1
fix             pysimm_md all nve/limit 0.1
run             2000
PPPM initialization ...
WARNING: System is not charge neutral, net charge = -4.8e-05 (../kspace.cpp:313)
  using 12-bit tables for long-range coulomb (../kspace.cpp:332)
  G vector (1/distance) = 0.107401
  grid = 24 24 24
  stencil order = 5
  estimated absolute RMS force accuracy = 0.0297862
  estimated relative force accuracy = 8.97004e-05
  using double precision KISS FFT
  3d grid and FFT values/proc = 24389 13824
Neighbor list info ...
  update every 1 steps, delay 10 steps, check yes
  max neighbors/atom: 2000, page size: 100000
  master list distance cutoff = 14
  ghost atom cutoff = 14
  binsize = 7, bins = 34 34 34
  1 neighbor lists, perpetual/occasional/extra = 1 0 0
  (1) pair lj/cut/coul/long, perpetual
      attributes: half, newton on
      pair build: half/bin/newton
      stencil: half/bin/3d/newton
      bin: standard
Per MPI rank memory allocation (min/avg/max) = 21.04 | 21.04 | 21.04 Mbytes
Step Temp E_pair E_mol TotEng Press 
       0    1525.9962    74.476108    275784.79    278474.77   -986.66732 
    2000    1594.8487    155.37356    2056.6708    4945.5605   -6.0761392 
Loop time of 8.66571 on 1 procs for 2000 steps with 576 atoms

Performance: 19.941 ns/day, 1.204 hours/ns, 230.795 timesteps/s
100.0% CPU use with 1 MPI tasks x no OpenMP threads

MPI task timing breakdown:
Section |  min time  |  avg time  |  max time  |%varavg| %total
---------------------------------------------------------------
Pair    | 1.3453     | 1.3453     | 1.3453     |   0.0 | 15.52
Bond    | 0.51646    | 0.51646    | 0.51646    |   0.0 |  5.96
Kspace  | 6.6021     | 6.6021     | 6.6021     |   0.0 | 76.19
Neigh   | 0.17261    | 0.17261    | 0.17261    |   0.0 |  1.99
Comm    | 0.0031798  | 0.0031798  | 0.0031798  |   0.0 |  0.04
Output  | 2.9802e-05 | 2.9802e-05 | 2.9802e-05 |   0.0 |  0.00
Modify  | 0.020231   | 0.020231   | 0.020231   |   0.0 |  0.23
Other   |            | 0.005821   |            |       |  0.07

Nlocal:    576 ave 576 max 576 min
Histogram: 1 0 0 0 0 0 0 0 0 0
Nghost:    0 ave 0 max 0 min
Histogram: 1 0 0 0 0 0 0 0 0 0
Neighs:    25750 ave 25750 max 25750 min
Histogram: 1 0 0 0 0 0 0 0 0 0

Total # of neighbors = 25750
Ave neighs/atom = 44.7049
Ave special neighs/atom = 11.0694
Neighbor list builds = 176
Dangerous builds = 0
unfix pysimm_md
min_style cg
minimize 0.001 0.001 10000 100000
WARNING: Using 'neigh_modify every 1 delay 0 check yes' setting during minimization (../min.cpp:190)
PPPM initialization ...
  using 12-bit tables for long-range coulomb (../kspace.cpp:332)
  G vector (1/distance) = 0.107401
  grid = 24 24 24
  stencil order = 5
  estimated absolute RMS force accuracy = 0.0297862
  estimated relative force accuracy = 8.97004e-05
  using double precision KISS FFT
  3d grid and FFT values/proc = 24389 13824
Per MPI rank memory allocation (min/avg/max) = 22.17 | 22.17 | 22.17 Mbytes
Step Temp E_pair E_mol TotEng Press 
    2000    1594.8487    155.37356    2056.6708    4945.5605   -6.0761392 
    2081    1594.8487    141.71618    625.63515    3500.8674    7.5373919 
Loop time of 0.751367 on 1 procs for 81 steps with 576 atoms

100.2% CPU use with 1 MPI tasks x no OpenMP threads

Minimization stats:
  Stopping criterion = energy tolerance
  Energy initial, next-to-last, final = 
          2212.0443723      767.917805492      767.351331802
  Force two-norm initial, final = 1185.66 73.1293
  Force max component initial, final = 146.638 10.0312
  Final line search alpha, max atom move = 0.00187402 0.0187987
  Iterations, force evaluations = 81 160

MPI task timing breakdown:
Section |  min time  |  avg time  |  max time  |%varavg| %total
---------------------------------------------------------------
Pair    | 0.15553    | 0.15553    | 0.15553    |   0.0 | 20.70
Bond    | 0.045267   | 0.045267   | 0.045267   |   0.0 |  6.02
Kspace  | 0.54276    | 0.54276    | 0.54276    |   0.0 | 72.24
Neigh   | 0.0048568  | 0.0048568  | 0.0048568  |   0.0 |  0.65
Comm    | 0.00015378 | 0.00015378 | 0.00015378 |   0.0 |  0.02
Output  | 0          | 0          | 0          |   0.0 |  0.00
Modify  | 0          | 0          | 0          |   0.0 |  0.00
Other   |            | 0.002794   |            |       |  0.37

Nlocal:    576 ave 576 max 576 min
Histogram: 1 0 0 0 0 0 0 0 0 0
Nghost:    0 ave 0 max 0 min
Histogram: 1 0 0 0 0 0 0 0 0 0
Neighs:    25941 ave 25941 max 25941 min
Histogram: 1 0 0 0 0 0 0 0 0 0

Total # of neighbors = 25941
Ave neighs/atom = 45.0365
Ave special neighs/atom = 11.0694
Neighbor list builds = 5
Dangerous builds = 0
write_dump all custom pysimm.dump.tmp id q x y z vx vy vz
quit


################################################################################
##################################    Init    ##################################
################################################################################
units           real
atom_style      full
pair_style      lj/cut/coul/long 12.0  12.0
kspace_style    pppm 1e-4
bond_style      harmonic
angle_style     harmonic
dihedral_style  fourier
improper_style  cvff
special_bonds   amber
pair_modify     mix arithmetic
read_data       temp.lmps
  orthogonal box = (-122.007 -122.007 -122.007) to (122.007 122.007 122.007)
  1 by 1 by 1 MPI processor grid
  reading atoms ...
  624 atoms
  reading velocities ...
  624 velocities
  scanning bonds ...
  3 = max bonds/atom
  scanning angles ...
  6 = max angles/atom
  scanning dihedrals ...
  27 = max dihedrals/atom
  scanning impropers ...
  2 = max impropers/atom
  reading bonds ...
  688 bonds
  reading angles ...
  1192 angles
  reading dihedrals ...
  1822 dihedrals
  reading impropers ...
  156 impropers
  4 = max # of 1-2 neighbors
  11 = max # of 1-3 neighbors
  20 = max # of 1-4 neighbors
  22 = max # of special neighbors
  special bonds CPU = 0.000681162 secs
  read_data CPU = 0.00893307 secs
################################################################################

timestep        1
fix             pysimm_md all nve/limit 0.1
run             2000
PPPM initialization ...
WARNING: System is not charge neutral, net charge = -5.2e-05 (../kspace.cpp:313)
  using 12-bit tables for long-range coulomb (../kspace.cpp:332)
  G vector (1/distance) = 0.105267
  grid = 24 24 24
  stencil order = 5
  estimated absolute RMS force accuracy = 0.0316868
  estimated relative force accuracy = 9.54238e-05
  using double precision KISS FFT
  3d grid and FFT values/proc = 24389 13824
Neighbor list info ...
  update every 1 steps, delay 10 steps, check yes
  max neighbors/atom: 2000, page size: 100000
  master list distance cutoff = 14
  ghost atom cutoff = 14
  binsize = 7, bins = 35 35 35
  1 neighbor lists, perpetual/occasional/extra = 1 0 0
  (1) pair lj/cut/coul/long, perpetual
      attributes: half, newton on
      pair build: half/bin/newton
      stencil: half/bin/3d/newton
      bin: standard
Per MPI rank memory allocation (min/avg/max) = 21.07 | 21.07 | 21.07 Mbytes
Step Temp E_pair E_mol TotEng Press 
       0    1472.0099    105.30079    213901.13    216740.02    -704.8708 
    2000    1296.4832    168.98325    1897.6991    4474.3095   -1.4079566 
Loop time of 8.67193 on 1 procs for 2000 steps with 624 atoms

Performance: 19.926 ns/day, 1.204 hours/ns, 230.629 timesteps/s
100.1% CPU use with 1 MPI tasks x no OpenMP threads

MPI task timing breakdown:
Section |  min time  |  avg time  |  max time  |%varavg| %total
---------------------------------------------------------------
Pair    | 1.3165     | 1.3165     | 1.3165     |   0.0 | 15.18
Bond    | 0.55709    | 0.55709    | 0.55709    |   0.0 |  6.42
Kspace  | 6.597      | 6.597      | 6.597      |   0.0 | 76.07
Neigh   | 0.17147    | 0.17147    | 0.17147    |   0.0 |  1.98
Comm    | 0.00283    | 0.00283    | 0.00283    |   0.0 |  0.03
Output  | 3.0041e-05 | 3.0041e-05 | 3.0041e-05 |   0.0 |  0.00
Modify  | 0.021451   | 0.021451   | 0.021451   |   0.0 |  0.25
Other   |            | 0.005603   |            |       |  0.06

Nlocal:    624 ave 624 max 624 min
Histogram: 1 0 0 0 0 0 0 0 0 0
Nghost:    0 ave 0 max 0 min
Histogram: 1 0 0 0 0 0 0 0 0 0
Neighs:    28271 ave 28271 max 28271 min
Histogram: 1 0 0 0 0 0 0 0 0 0

Total # of neighbors = 28271
Ave neighs/atom = 45.3061
Ave special neighs/atom = 11.0737
Neighbor list builds = 167
Dangerous builds = 0
unfix pysimm_md
min_style cg
minimize 0.001 0.001 10000 100000
WARNING: Using 'neigh_modify every 1 delay 0 check yes' setting during minimization (../min.cpp:190)
PPPM initialization ...
  using 12-bit tables for long-range coulomb (../kspace.cpp:332)
  G vector (1/distance) = 0.105267
  grid = 24 24 24
  stencil order = 5
  estimated absolute RMS force accuracy = 0.0316868
  estimated relative force accuracy = 9.54238e-05
  using double precision KISS FFT
  3d grid and FFT values/proc = 24389 13824
Per MPI rank memory allocation (min/avg/max) = 22.19 | 22.19 | 22.19 Mbytes
Step Temp E_pair E_mol TotEng Press 
    2000    1296.4832    168.98325    1897.6991    4474.3095   -1.4079566 
    2048    1296.4832    151.60475    671.91947    3231.1514    7.0041206 
Loop time of 0.459802 on 1 procs for 48 steps with 624 atoms

100.0% CPU use with 1 MPI tasks x no OpenMP threads

Minimization stats:
  Stopping criterion = energy tolerance
  Energy initial, next-to-last, final = 
         2066.68234426      824.156159091      823.524227218
  Force two-norm initial, final = 1202.26 80.8467
  Force max component initial, final = 136.194 8.22001
  Final line search alpha, max atom move = 0.00218444 0.0179561
  Iterations, force evaluations = 48 96

MPI task timing breakdown:
Section |  min time  |  avg time  |  max time  |%varavg| %total
---------------------------------------------------------------
Pair    | 0.098708   | 0.098708   | 0.098708   |   0.0 | 21.47
Bond    | 0.029425   | 0.029425   | 0.029425   |   0.0 |  6.40
Kspace  | 0.3278     | 0.3278     | 0.3278     |   0.0 | 71.29
Neigh   | 0.002152   | 0.002152   | 0.002152   |   0.0 |  0.47
Comm    | 6.4611e-05 | 6.4611e-05 | 6.4611e-05 |   0.0 |  0.01
Output  | 0          | 0          | 0          |   0.0 |  0.00
Modify  | 0          | 0          | 0          |   0.0 |  0.00
Other   |            | 0.001648   |            |       |  0.36

Nlocal:    624 ave 624 max 624 min
Histogram: 1 0 0 0 0 0 0 0 0 0
Nghost:    0 ave 0 max 0 min
Histogram: 1 0 0 0 0 0 0 0 0 0
Neighs:    28265 ave 28265 max 28265 min
Histogram: 1 0 0 0 0 0 0 0 0 0

Total # of neighbors = 28265
Ave neighs/atom = 45.2965
Ave special neighs/atom = 11.0737
Neighbor list builds = 2
Dangerous builds = 0
write_dump all custom pysimm.dump.tmp id q x y z vx vy vz
quit


################################################################################
##################################    Init    ##################################
################################################################################
units           real
atom_style      full
pair_style      lj/cut/coul/long 12.0  12.0
kspace_style    pppm 1e-4
bond_style      harmonic
angle_style     harmonic
dihedral_style  fourier
improper_style  cvff
special_bonds   amber
pair_modify     mix arithmetic
read_data       temp.lmps
  orthogonal box = (-125.306 -125.306 -125.306) to (125.306 125.306 125.306)
  1 by 1 by 1 MPI processor grid
  reading atoms ...
  672 atoms
  reading velocities ...
  672 velocities
  scanning bonds ...
  3 = max bonds/atom
  scanning angles ...
  6 = max angles/atom
  scanning dihedrals ...
  27 = max dihedrals/atom
  scanning impropers ...
  2 = max impropers/atom
  reading bonds ...
  741 bonds
  reading angles ...
  1284 angles
  reading dihedrals ...
  1963 dihedrals
  reading impropers ...
  168 impropers
  4 = max # of 1-2 neighbors
  11 = max # of 1-3 neighbors
  20 = max # of 1-4 neighbors
  22 = max # of special neighbors
  special bonds CPU = 0.000705957 secs
  read_data CPU = 0.011173 secs
################################################################################

timestep        1
fix             pysimm_md all nve/limit 0.1
run             2000
PPPM initialization ...
WARNING: System is not charge neutral, net charge = -5.6e-05 (../kspace.cpp:313)
  using 12-bit tables for long-range coulomb (../kspace.cpp:332)
  G vector (1/distance) = 0.103324
  grid = 24 24 24
  stencil order = 5
  estimated absolute RMS force accuracy = 0.0334966
  estimated relative force accuracy = 0.000100874
  using double precision KISS FFT
  3d grid and FFT values/proc = 24389 13824
Neighbor list info ...
  update every 1 steps, delay 10 steps, check yes
  max neighbors/atom: 2000, page size: 100000
  master list distance cutoff = 14
  ghost atom cutoff = 14
  binsize = 7, bins = 36 36 36
  1 neighbor lists, perpetual/occasional/extra = 1 0 0
  (1) pair lj/cut/coul/long, perpetual
      attributes: half, newton on
      pair build: half/bin/newton
      stencil: half/bin/3d/newton
      bin: standard
Per MPI rank memory allocation (min/avg/max) = 21.09 | 21.09 | 21.09 Mbytes
Step Temp E_pair E_mol TotEng Press 
       0    1203.7751    115.40443    206091.43    208614.53   -627.25398 
    2000    1149.8766    188.10019    2134.5623    4622.5577   -5.0086094 
Loop time of 8.94135 on 1 procs for 2000 steps with 672 atoms

Performance: 19.326 ns/day, 1.242 hours/ns, 223.680 timesteps/s
100.0% CPU use with 1 MPI tasks x no OpenMP threads

MPI task timing breakdown:
Section |  min time  |  avg time  |  max time  |%varavg| %total
---------------------------------------------------------------
Pair    | 1.6445     | 1.6445     | 1.6445     |   0.0 | 18.39
Bond    | 0.60457    | 0.60457    | 0.60457    |   0.0 |  6.76
Kspace  | 6.4477     | 6.4477     | 6.4477     |   0.0 | 72.11
Neigh   | 0.21187    | 0.21187    | 0.21187    |   0.0 |  2.37
Comm    | 0.0030119  | 0.0030119  | 0.0030119  |   0.0 |  0.03
Output  | 3.5048e-05 | 3.5048e-05 | 3.5048e-05 |   0.0 |  0.00
Modify  | 0.023365   | 0.023365   | 0.023365   |   0.0 |  0.26
Other   |            | 0.006235   |            |       |  0.07

Nlocal:    672 ave 672 max 672 min
Histogram: 1 0 0 0 0 0 0 0 0 0
Nghost:    0 ave 0 max 0 min
Histogram: 1 0 0 0 0 0 0 0 0 0
Neighs:    34394 ave 34394 max 34394 min
Histogram: 1 0 0 0 0 0 0 0 0 0

Total # of neighbors = 34394
Ave neighs/atom = 51.1815
Ave special neighs/atom = 11.0774
Neighbor list builds = 171
Dangerous builds = 0
unfix pysimm_md
min_style cg
minimize 0.001 0.001 10000 100000
WARNING: Using 'neigh_modify every 1 delay 0 check yes' setting during minimization (../min.cpp:190)
PPPM initialization ...
  using 12-bit tables for long-range coulomb (../kspace.cpp:332)
  G vector (1/distance) = 0.103324
  grid = 24 24 24
  stencil order = 5
  estimated absolute RMS force accuracy = 0.0334966
  estimated relative force accuracy = 0.000100874
  using double precision KISS FFT
  3d grid and FFT values/proc = 24389 13824
Per MPI rank memory allocation (min/avg/max) = 22.21 | 22.21 | 22.21 Mbytes
Step Temp E_pair E_mol TotEng Press 
    2000    1149.8766    188.10019    2134.5623    4622.5577   -5.0086094 
    2051    1149.8766    149.20075    758.58307    3207.6791    5.6355414 
Loop time of 0.513188 on 1 procs for 51 steps with 672 atoms

99.9% CPU use with 1 MPI tasks x no OpenMP threads

Minimization stats:
  Stopping criterion = energy tolerance
  Energy initial, next-to-last, final = 
         2322.66244389       908.62962016      907.783817658
  Force two-norm initial, final = 1209.11 68.697
  Force max component initial, final = 137.266 6.559
  Final line search alpha, max atom move = 0.00237749 0.015594
  Iterations, force evaluations = 51 101

MPI task timing breakdown:
Section |  min time  |  avg time  |  max time  |%varavg| %total
---------------------------------------------------------------
Pair    | 0.12677    | 0.12677    | 0.12677    |   0.0 | 24.70
Bond    | 0.033471   | 0.033471   | 0.033471   |   0.0 |  6.52
Kspace  | 0.3484     | 0.3484     | 0.3484     |   0.0 | 67.89
Neigh   | 0.002594   | 0.002594   | 0.002594   |   0.0 |  0.51
Comm    | 7.3433e-05 | 7.3433e-05 | 7.3433e-05 |   0.0 |  0.01
Output  | 0          | 0          | 0          |   0.0 |  0.00
Modify  | 0          | 0          | 0          |   0.0 |  0.00
Other   |            | 0.00188    |            |       |  0.37

Nlocal:    672 ave 672 max 672 min
Histogram: 1 0 0 0 0 0 0 0 0 0
Nghost:    0 ave 0 max 0 min
Histogram: 1 0 0 0 0 0 0 0 0 0
Neighs:    34627 ave 34627 max 34627 min
Histogram: 1 0 0 0 0 0 0 0 0 0

Total # of neighbors = 34627
Ave neighs/atom = 51.5283
Ave special neighs/atom = 11.0774
Neighbor list builds = 2
Dangerous builds = 0
write_dump all custom pysimm.dump.tmp id q x y z vx vy vz
quit


################################################################################
##################################    Init    ##################################
################################################################################
units           real
atom_style      full
pair_style      lj/cut/coul/long 12.0  12.0
kspace_style    pppm 1e-4
bond_style      harmonic
angle_style     harmonic
dihedral_style  fourier
improper_style  cvff
special_bonds   amber
pair_modify     mix arithmetic
read_data       temp.lmps
  orthogonal box = (-128.44 -128.44 -128.44) to (128.44 128.44 128.44)
  1 by 1 by 1 MPI processor grid
  reading atoms ...
  720 atoms
  reading velocities ...
  720 velocities
  scanning bonds ...
  3 = max bonds/atom
  scanning angles ...
  6 = max angles/atom
  scanning dihedrals ...
  27 = max dihedrals/atom
  scanning impropers ...
  2 = max impropers/atom
  reading bonds ...
  794 bonds
  reading angles ...
  1376 angles
  reading dihedrals ...
  2104 dihedrals
  reading impropers ...
  180 impropers
  4 = max # of 1-2 neighbors
  11 = max # of 1-3 neighbors
  20 = max # of 1-4 neighbors
  22 = max # of special neighbors
  special bonds CPU = 0.000741959 secs
  read_data CPU = 0.00997806 secs
################################################################################

timestep        1
fix             pysimm_md all nve/limit 0.1
run             2000
PPPM initialization ...
WARNING: System is not charge neutral, net charge = -6e-05 (../kspace.cpp:313)
  using 12-bit tables for long-range coulomb (../kspace.cpp:332)
  G vector (1/distance) = 0.101537
  grid = 24 24 24
  stencil order = 5
  estimated absolute RMS force accuracy = 0.0352172
  estimated relative force accuracy = 0.000106055
  using double precision KISS FFT
  3d grid and FFT values/proc = 24389 13824
Neighbor list info ...
  update every 1 steps, delay 10 steps, check yes
  max neighbors/atom: 2000, page size: 100000
  master list distance cutoff = 14
[...]
  using double precision KISS FFT
  3d grid and FFT values/proc = 68921 46656
Per MPI rank memory allocation (min/avg/max) = 27.82 | 27.82 | 27.82 Mbytes
Step Temp E_pair E_mol TotEng Press 
    2000    379.77476    1534.7791     5675.389    9762.9103   0.17037846 
    2026    379.77476    1517.6801    4461.5672    8531.9894    2.4554507 
Loop time of 0.976489 on 1 procs for 26 steps with 2256 atoms

100.0% CPU use with 1 MPI tasks x no OpenMP threads

Minimization stats:
  Stopping criterion = energy tolerance
  Energy initial, next-to-last, final = 
         7210.16810865      5982.83177068      5979.24723996
  Force two-norm initial, final = 1263.73 141.885
  Force max component initial, final = 134.842 38.7469
  Final line search alpha, max atom move = 0.0018196 0.0705039
  Iterations, force evaluations = 26 52

MPI task timing breakdown:
Section |  min time  |  avg time  |  max time  |%varavg| %total
---------------------------------------------------------------
Pair    | 0.32283    | 0.32283    | 0.32283    |   0.0 | 33.06
Bond    | 0.058316   | 0.058316   | 0.058316   |   0.0 |  5.97
Kspace  | 0.59236    | 0.59236    | 0.59236    |   0.0 | 60.66
Neigh   | 0          | 0          | 0          |   0.0 |  0.00
Comm    | 4.4107e-05 | 4.4107e-05 | 4.4107e-05 |   0.0 |  0.00
Output  | 0          | 0          | 0          |   0.0 |  0.00
Modify  | 0          | 0          | 0          |   0.0 |  0.00
Other   |            | 0.002941   |            |       |  0.30

Nlocal:    2256 ave 2256 max 2256 min
Histogram: 1 0 0 0 0 0 0 0 0 0
Nghost:    0 ave 0 max 0 min
Histogram: 1 0 0 0 0 0 0 0 0 0
Neighs:    180078 ave 180078 max 180078 min
Histogram: 1 0 0 0 0 0 0 0 0 0

Total # of neighbors = 180078
Ave neighs/atom = 79.8218
Ave special neighs/atom = 11.1108
Neighbor list builds = 0
Dangerous builds = 0
write_dump all custom pysimm.dump.tmp id q x y z vx vy vz
quit


################################################################################
##################################    Init    ##################################
################################################################################
units           real
atom_style      full
pair_style      lj/cut/coul/long 12.0  12.0
kspace_style    pppm 1e-4
bond_style      harmonic
angle_style     harmonic
dihedral_style  fourier
improper_style  cvff
special_bonds   amber
pair_modify     mix arithmetic
read_data       temp.lmps
  orthogonal box = (-192.319 -192.319 -192.319) to (192.319 192.319 192.319)
  1 by 1 by 1 MPI processor grid
  reading atoms ...
  2304 atoms
  reading velocities ...
  2304 velocities
  scanning bonds ...
  3 = max bonds/atom
  scanning angles ...
  6 = max angles/atom
  scanning dihedrals ...
  27 = max dihedrals/atom
  scanning impropers ...
  2 = max impropers/atom
  reading bonds ...
  2543 bonds
  reading angles ...
  4412 angles
  reading dihedrals ...
  6757 dihedrals
  reading impropers ...
  576 impropers
  4 = max # of 1-2 neighbors
  11 = max # of 1-3 neighbors
  20 = max # of 1-4 neighbors
  22 = max # of special neighbors
  special bonds CPU = 0.00183511 secs
  read_data CPU = 0.0234981 secs
################################################################################

timestep        1
fix             pysimm_md all nve/limit 0.1
run             2000
PPPM initialization ...
WARNING: System is not charge neutral, net charge = -0.000192 (../kspace.cpp:313)
  using 12-bit tables for long-range coulomb (../kspace.cpp:332)
  G vector (1/distance) = 0.101665
  grid = 36 36 36
  stencil order = 5
  estimated absolute RMS force accuracy = 0.0342564
  estimated relative force accuracy = 0.000103162
  using double precision KISS FFT
  3d grid and FFT values/proc = 68921 46656
Neighbor list info ...
  update every 1 steps, delay 10 steps, check yes
  max neighbors/atom: 2000, page size: 100000
  master list distance cutoff = 14
  ghost atom cutoff = 14
  binsize = 7, bins = 55 55 55
  1 neighbor lists, perpetual/occasional/extra = 1 0 0
  (1) pair lj/cut/coul/long, perpetual
      attributes: half, newton on
      pair build: half/bin/newton
      stencil: half/bin/3d/newton
      bin: standard
Per MPI rank memory allocation (min/avg/max) = 26.71 | 26.71 | 26.71 Mbytes
Step Temp E_pair E_mol TotEng Press 
       0    371.86976     1481.783    227170.82    231205.42   -187.19541 
    2000    372.48061    1594.2308    5795.8786    9947.1163   0.12954368 
Loop time of 33.3511 on 1 procs for 2000 steps with 2304 atoms

Performance: 5.181 ns/day, 4.632 hours/ns, 59.968 timesteps/s
99.9% CPU use with 1 MPI tasks x no OpenMP threads

MPI task timing breakdown:
Section |  min time  |  avg time  |  max time  |%varavg| %total
---------------------------------------------------------------
Pair    | 7.9057     | 7.9057     | 7.9057     |   0.0 | 23.70
Bond    | 2.0617     | 2.0617     | 2.0617     |   0.0 |  6.18
Kspace  | 22.238     | 22.238     | 22.238     |   0.0 | 66.68
Neigh   | 1.0468     | 1.0468     | 1.0468     |   0.0 |  3.14
Comm    | 0.0085876  | 0.0085876  | 0.0085876  |   0.0 |  0.03
Output  | 3.5048e-05 | 3.5048e-05 | 3.5048e-05 |   0.0 |  0.00
Modify  | 0.076306   | 0.076306   | 0.076306   |   0.0 |  0.23
Other   |            | 0.014      |            |       |  0.04

Nlocal:    2304 ave 2304 max 2304 min
Histogram: 1 0 0 0 0 0 0 0 0 0
Nghost:    0 ave 0 max 0 min
Histogram: 1 0 0 0 0 0 0 0 0 0
Neighs:    188681 ave 188681 max 188681 min
Histogram: 1 0 0 0 0 0 0 0 0 0

Total # of neighbors = 188681
Ave neighs/atom = 81.8928
Ave special neighs/atom = 11.1111
Neighbor list builds = 171
Dangerous builds = 0
unfix pysimm_md
min_style cg
minimize 0.001 0.001 10000 100000
WARNING: Using 'neigh_modify every 1 delay 0 check yes' setting during minimization (../min.cpp:190)
PPPM initialization ...
  using 12-bit tables for long-range coulomb (../kspace.cpp:332)
  G vector (1/distance) = 0.101665
  grid = 36 36 36
  stencil order = 5
  estimated absolute RMS force accuracy = 0.0342564
  estimated relative force accuracy = 0.000103162
  using double precision KISS FFT
  3d grid and FFT values/proc = 68921 46656
Per MPI rank memory allocation (min/avg/max) = 27.83 | 27.83 | 27.83 Mbytes
Step Temp E_pair E_mol TotEng Press 
    2000    372.48061    1594.2308    5795.8786    9947.1163   0.12954368 
    2029    372.48061    1550.9039    4423.2854    8531.1963    2.4696897 
Loop time of 1.10583 on 1 procs for 29 steps with 2304 atoms

100.0% CPU use with 1 MPI tasks x no OpenMP threads

Minimization stats:
  Stopping criterion = energy tolerance
  Energy initial, next-to-last, final = 
         7390.10935999      5979.12570187       5974.1893289
  Force two-norm initial, final = 1362.1 147.041
  Force max component initial, final = 171.441 43.1056
  Final line search alpha, max atom move = 0.00108027 0.0465655
  Iterations, force evaluations = 29 58

MPI task timing breakdown:
Section |  min time  |  avg time  |  max time  |%varavg| %total
---------------------------------------------------------------
Pair    | 0.37329    | 0.37329    | 0.37329    |   0.0 | 33.76
Bond    | 0.066442   | 0.066442   | 0.066442   |   0.0 |  6.01
Kspace  | 0.66271    | 0.66271    | 0.66271    |   0.0 | 59.93
Neigh   | 0          | 0          | 0          |   0.0 |  0.00
Comm    | 6.1274e-05 | 6.1274e-05 | 6.1274e-05 |   0.0 |  0.01
Output  | 0          | 0          | 0          |   0.0 |  0.00
Modify  | 0          | 0          | 0          |   0.0 |  0.00
Other   |            | 0.003327   |            |       |  0.30

Nlocal:    2304 ave 2304 max 2304 min
Histogram: 1 0 0 0 0 0 0 0 0 0
Nghost:    0 ave 0 max 0 min
Histogram: 1 0 0 0 0 0 0 0 0 0
Neighs:    188816 ave 188816 max 188816 min
Histogram: 1 0 0 0 0 0 0 0 0 0

Total # of neighbors = 188816
Ave neighs/atom = 81.9514
Ave special neighs/atom = 11.1111
Neighbor list builds = 0
Dangerous builds = 0
write_dump all custom pysimm.dump.tmp id q x y z vx vy vz
quit


################################################################################
##################################    Init    ##################################
################################################################################
units           real
atom_style      full
pair_style      lj/cut/coul/long 12.0  12.0
kspace_style    pppm 1e-4
bond_style      harmonic
angle_style     harmonic
dihedral_style  fourier
improper_style  cvff
special_bonds   amber
pair_modify     mix arithmetic
read_data       temp.lmps
  orthogonal box = (-193.674 -193.674 -193.674) to (193.674 193.674 193.674)
  1 by 1 by 1 MPI processor grid
  reading atoms ...
  2352 atoms
  reading velocities ...
  2352 velocities
  scanning bonds ...
  3 = max bonds/atom
  scanning angles ...
  6 = max angles/atom
  scanning dihedrals ...
  27 = max dihedrals/atom
  scanning impropers ...
  2 = max impropers/atom
  reading bonds ...
  2596 bonds
  reading angles ...
  4504 angles
  reading dihedrals ...
  6898 dihedrals
  reading impropers ...
  588 impropers
  4 = max # of 1-2 neighbors
  11 = max # of 1-3 neighbors
  20 = max # of 1-4 neighbors
  22 = max # of special neighbors
  special bonds CPU = 0.00188684 secs
  read_data CPU = 0.0238891 secs
################################################################################

timestep        1
fix             pysimm_md all nve/limit 0.1
run             2000
PPPM initialization ...
WARNING: System is not charge neutral, net charge = -0.000196 (../kspace.cpp:313)
  using 12-bit tables for long-range coulomb (../kspace.cpp:332)
  G vector (1/distance) = 0.10116
  grid = 36 36 36
  stencil order = 5
  estimated absolute RMS force accuracy = 0.0347573
  estimated relative force accuracy = 0.000104671
  using double precision KISS FFT
  3d grid and FFT values/proc = 68921 46656
Neighbor list info ...
  update every 1 steps, delay 10 steps, check yes
  max neighbors/atom: 2000, page size: 100000
  master list distance cutoff = 14
  ghost atom cutoff = 14
  binsize = 7, bins = 56 56 56
  1 neighbor lists, perpetual/occasional/extra = 1 0 0
  (1) pair lj/cut/coul/long, perpetual
      attributes: half, newton on
      pair build: half/bin/newton
      stencil: half/bin/3d/newton
      bin: standard
Per MPI rank memory allocation (min/avg/max) = 26.75 | 26.75 | 26.75 Mbytes
Step Temp E_pair E_mol TotEng Press 
       0    364.88605    1514.4122    168208.35    172279.84    -135.3831 
    2000    317.27395    1566.4924     5861.031    9650.9426   0.45719276 
Loop time of 34.0687 on 1 procs for 2000 steps with 2352 atoms

Performance: 5.072 ns/day, 4.732 hours/ns, 58.705 timesteps/s
100.0% CPU use with 1 MPI tasks x no OpenMP threads

MPI task timing breakdown:
Section |  min time  |  avg time  |  max time  |%varavg| %total
---------------------------------------------------------------
Pair    | 8.4503     | 8.4503     | 8.4503     |   0.0 | 24.80
Bond    | 2.1048     | 2.1048     | 2.1048     |   0.0 |  6.18
Kspace  | 22.344     | 22.344     | 22.344     |   0.0 | 65.59
Neigh   | 1.0679     | 1.0679     | 1.0679     |   0.0 |  3.13
Comm    | 0.008456   | 0.008456   | 0.008456   |   0.0 |  0.02
Output  | 3.3855e-05 | 3.3855e-05 | 3.3855e-05 |   0.0 |  0.00
Modify  | 0.078477   | 0.078477   | 0.078477   |   0.0 |  0.23
Other   |            | 0.0148     |            |       |  0.04

Nlocal:    2352 ave 2352 max 2352 min
Histogram: 1 0 0 0 0 0 0 0 0 0
Nghost:    0 ave 0 max 0 min
Histogram: 1 0 0 0 0 0 0 0 0 0
Neighs:    196771 ave 196771 max 196771 min
Histogram: 1 0 0 0 0 0 0 0 0 0

Total # of neighbors = 196771
Ave neighs/atom = 83.6611
Ave special neighs/atom = 11.1114
Neighbor list builds = 169
Dangerous builds = 0
unfix pysimm_md
min_style cg
minimize 0.001 0.001 10000 100000
WARNING: Using 'neigh_modify every 1 delay 0 check yes' setting during minimization (../min.cpp:190)
PPPM initialization ...
  using 12-bit tables for long-range coulomb (../kspace.cpp:332)
  G vector (1/distance) = 0.10116
  grid = 36 36 36
  stencil order = 5
  estimated absolute RMS force accuracy = 0.0347573
  estimated relative force accuracy = 0.000104671
  using double precision KISS FFT
  3d grid and FFT values/proc = 68921 46656
Per MPI rank memory allocation (min/avg/max) = 28.26 | 28.26 | 28.26 Mbytes
Step Temp E_pair E_mol TotEng Press 
    2000    317.27395    1566.4924     5861.031    9650.9426   0.45719276 
    2025    317.27395    1549.5018    4536.1312    8309.0521    2.3439983 
Loop time of 0.979762 on 1 procs for 25 steps with 2352 atoms

99.9% CPU use with 1 MPI tasks x no OpenMP threads

Minimization stats:
  Stopping criterion = energy tolerance
  Energy initial, next-to-last, final = 
         7427.52338899      6091.38558788      6085.63297764
  Force two-norm initial, final = 1372.88 163.851
  Force max component initial, final = 172.562 49.2822
  Final line search alpha, max atom move = 0.0020454 0.100802
  Iterations, force evaluations = 25 50

MPI task timing breakdown:
Section |  min time  |  avg time  |  max time  |%varavg| %total
---------------------------------------------------------------
Pair    | 0.33843    | 0.33843    | 0.33843    |   0.0 | 34.54
Bond    | 0.058432   | 0.058432   | 0.058432   |   0.0 |  5.96
Kspace  | 0.57355    | 0.57355    | 0.57355    |   0.0 | 58.54
Neigh   | 0.0063059  | 0.0063059  | 0.0063059  |   0.0 |  0.64
Comm    | 7.9155e-05 | 7.9155e-05 | 7.9155e-05 |   0.0 |  0.01
Output  | 0          | 0          | 0          |   0.0 |  0.00
Modify  | 0          | 0          | 0          |   0.0 |  0.00
Other   |            | 0.002962   |            |       |  0.30

Nlocal:    2352 ave 2352 max 2352 min
Histogram: 1 0 0 0 0 0 0 0 0 0
Nghost:    0 ave 0 max 0 min
Histogram: 1 0 0 0 0 0 0 0 0 0
Neighs:    196357 ave 196357 max 196357 min
Histogram: 1 0 0 0 0 0 0 0 0 0

Total # of neighbors = 196357
Ave neighs/atom = 83.4851
Ave special neighs/atom = 11.1114
Neighbor list builds = 1
Dangerous builds = 0
write_dump all custom pysimm.dump.tmp id q x y z vx vy vz
quit


################################################################################
##################################    Init    ##################################
################################################################################
units           real
atom_style      full
pair_style      lj/cut/coul/long 12.0  12.0
kspace_style    pppm 1e-4
bond_style      harmonic
angle_style     harmonic
dihedral_style  fourier
improper_style  cvff
special_bonds   amber
pair_modify     mix arithmetic
read_data       temp.lmps
  orthogonal box = (-195.009 -195.009 -195.009) to (195.009 195.009 195.009)
  1 by 1 by 1 MPI processor grid
  reading atoms ...
  2400 atoms
  reading velocities ...
  2400 velocities
  scanning bonds ...
  3 = max bonds/atom
  scanning angles ...
  6 = max angles/atom
  scanning dihedrals ...
  27 = max dihedrals/atom
  scanning impropers ...
  2 = max impropers/atom
  reading bonds ...
  2649 bonds
  reading angles ...
  4596 angles
  reading dihedrals ...
  7039 dihedrals
  reading impropers ...
  600 impropers
  4 = max # of 1-2 neighbors
  11 = max # of 1-3 neighbors
  20 = max # of 1-4 neighbors
  22 = max # of special neighbors
  special bonds CPU = 0.00187182 secs
  read_data CPU = 0.02402 secs
################################################################################

timestep        1
fix             pysimm_md all nve/limit 0.1
run             2000
PPPM initialization ...
WARNING: System is not charge neutral, net charge = -0.0002 (../kspace.cpp:313)
  using 12-bit tables for long-range coulomb (../kspace.cpp:332)
  G vector (1/distance) = 0.100666
  grid = 36 36 36
  stencil order = 5
  estimated absolute RMS force accuracy = 0.0352515
  estimated relative force accuracy = 0.000106159
  using double precision KISS FFT
  3d grid and FFT values/proc = 68921 46656
Neighbor list info ...
  update every 1 steps, delay 10 steps, check yes
  max neighbors/atom: 2000, page size: 100000
  master list distance cutoff = 14
  ghost atom cutoff = 14
  binsize = 7, bins = 56 56 56
  1 neighbor lists, perpetual/occasional/extra = 1 0 0
  (1) pair lj/cut/coul/long, perpetual
      attributes: half, newton on
      pair build: half/bin/newton
      stencil: half/bin/3d/newton
      bin: standard
Per MPI rank memory allocation (min/avg/max) = 27.14 | 27.14 | 27.14 Mbytes
Step Temp E_pair E_mol TotEng Press 
       0    310.93589    1513.4255    251930.59     255667.5   -199.16951 
    2000    317.83941    1644.6445    5911.6299    9829.1323  0.042236542 
Loop time of 34.3939 on 1 procs for 2000 steps with 2400 atoms

Performance: 5.024 ns/day, 4.777 hours/ns, 58.150 timesteps/s
100.0% CPU use with 1 MPI tasks x no OpenMP threads

MPI task timing breakdown:
Section |  min time  |  avg time  |  max time  |%varavg| %total
---------------------------------------------------------------
Pair    | 8.7112     | 8.7112     | 8.7112     |   0.0 | 25.33
Bond    | 2.1445     | 2.1445     | 2.1445     |   0.0 |  6.24
Kspace  | 22.31      | 22.31      | 22.31      |   0.0 | 64.87
Neigh   | 1.1245     | 1.1245     | 1.1245     |   0.0 |  3.27
Comm    | 0.0089183  | 0.0089183  | 0.0089183  |   0.0 |  0.03
Output  | 2.9802e-05 | 2.9802e-05 | 2.9802e-05 |   0.0 |  0.00
Modify  | 0.07964    | 0.07964    | 0.07964    |   0.0 |  0.23
Other   |            | 0.01502    |            |       |  0.04

Nlocal:    2400 ave 2400 max 2400 min
Histogram: 1 0 0 0 0 0 0 0 0 0
Nghost:    0 ave 0 max 0 min
Histogram: 1 0 0 0 0 0 0 0 0 0
Neighs:    207438 ave 207438 max 207438 min
Histogram: 1 0 0 0 0 0 0 0 0 0

Total # of neighbors = 207438
Ave neighs/atom = 86.4325
Ave special neighs/atom = 11.1117
Neighbor list builds = 169
Dangerous builds = 0
unfix pysimm_md
min_style cg
minimize 0.001 0.001 10000 100000
WARNING: Using 'neigh_modify every 1 delay 0 check yes' setting during minimization (../min.cpp:190)
PPPM initialization ...
  using 12-bit tables for long-range coulomb (../kspace.cpp:332)
  G vector (1/distance) = 0.100666
  grid = 36 36 36
  stencil order = 5
  estimated absolute RMS force accuracy = 0.0352515
  estimated relative force accuracy = 0.000106159
  using double precision KISS FFT
  3d grid and FFT values/proc = 68921 46656
Per MPI rank memory allocation (min/avg/max) = 28.26 | 28.26 | 28.26 Mbytes
Step Temp E_pair E_mol TotEng Press 
    2000    317.83941    1644.6445    5911.6299    9829.1323  0.042236542 
    2032    317.83941    1549.3275    4344.2421    8166.4276    2.1669879 
Loop time of 1.26337 on 1 procs for 32 steps with 2400 atoms

100.0% CPU use with 1 MPI tasks x no OpenMP threads

Minimization stats:
  Stopping criterion = energy tolerance
  Energy initial, next-to-last, final = 
         7556.27437233      5897.75717581      5893.56960636
  Force two-norm initial, final = 1421.95 150.263
  Force max component initial, final = 160.9 44.5695
  Final line search alpha, max atom move = 0.000598303 0.026666
  Iterations, force evaluations = 32 64

MPI task timing breakdown:
Section |  min time  |  avg time  |  max time  |%varavg| %total
---------------------------------------------------------------
Pair    | 0.44461    | 0.44461    | 0.44461    |   0.0 | 35.19
Bond    | 0.07632    | 0.07632    | 0.07632    |   0.0 |  6.04
Kspace  | 0.73165    | 0.73165    | 0.73165    |   0.0 | 57.91
Neigh   | 0.0068128  | 0.0068128  | 0.0068128  |   0.0 |  0.54
Comm    | 0.00011182 | 0.00011182 | 0.00011182 |   0.0 |  0.01
Output  | 0          | 0          | 0          |   0.0 |  0.00
Modify  | 0          | 0          | 0          |   0.0 |  0.00
Other   |            | 0.003858   |            |       |  0.31

Nlocal:    2400 ave 2400 max 2400 min
Histogram: 1 0 0 0 0 0 0 0 0 0
Nghost:    0 ave 0 max 0 min
Histogram: 1 0 0 0 0 0 0 0 0 0
Neighs:    207507 ave 207507 max 207507 min
Histogram: 1 0 0 0 0 0 0 0 0 0

Total # of neighbors = 207507
Ave neighs/atom = 86.4613
Ave special neighs/atom = 11.1117
Neighbor list builds = 1
Dangerous builds = 0
write_dump all custom pysimm.dump.tmp id q x y z vx vy vz
quit
