

################################################################################
##################################    Init    ##################################
################################################################################
units           real
atom_style      full
pair_style      lj/cut/coul/long 12.0  12.0
kspace_style    pppm 1e-4
bond_style      harmonic
angle_style     harmonic
dihedral_style  fourier
improper_style  cvff
special_bonds   amber
pair_modify     mix arithmetic
read_data       temp.lmps
  orthogonal box = (-49.72 -49.72 -49.72) to (49.72 49.72 49.72)
  1 by 1 by 1 MPI processor grid
  reading atoms ...
  117 atoms
  reading velocities ...
  117 velocities
  scanning bonds ...
  4 = max bonds/atom
  scanning angles ...
  6 = max angles/atom
  scanning dihedrals ...
  18 = max dihedrals/atom
  reading bonds ...
  114 bonds
  reading angles ...
  216 angles
  reading dihedrals ...
  318 dihedrals
  4 = max # of 1-2 neighbors
  6 = max # of 1-3 neighbors
  12 = max # of 1-4 neighbors
  16 = max # of special neighbors
  special bonds CPU = 0.000257015 secs
  read_data CPU = 0.00708103 secs
################################################################################

min_style cg
minimize 1e-06 1e-06 1000000 10000000
WARNING: Using 'neigh_modify every 1 delay 0 check yes' setting during minimization (../min.cpp:190)
PPPM initialization ...
  using 12-bit tables for long-range coulomb (../kspace.cpp:332)
  G vector (1/distance) = 0.12068
  grid = 12 12 12
  stencil order = 5
  estimated absolute RMS force accuracy = 0.0267773
  estimated relative force accuracy = 8.06391e-05
  using double precision KISS FFT
  3d grid and FFT values/proc = 4913 1728
Neighbor list info ...
  update every 1 steps, delay 0 steps, check yes
  max neighbors/atom: 2000, page size: 100000
  master list distance cutoff = 14
  ghost atom cutoff = 14
  binsize = 7, bins = 15 15 15
  1 neighbor lists, perpetual/occasional/extra = 1 0 0
  (1) pair lj/cut/coul/long, perpetual
      attributes: half, newton on
      pair build: half/bin/newton
      stencil: half/bin/3d/newton
      bin: standard
Per MPI rank memory allocation (min/avg/max) = 16.45 | 16.45 | 16.45 Mbytes
Step Temp E_pair E_mol TotEng Press 
       0     951.0231   -153.23517     576.1735    751.77735   -55.812313 
     168     951.0231   -153.68202    29.243145    204.40016    15.243205 
Loop time of 0.205131 on 1 procs for 168 steps with 117 atoms

99.9% CPU use with 1 MPI tasks x no OpenMP threads

Minimization stats:
  Stopping criterion = linesearch alpha is zero
  Energy initial, next-to-last, final = 
         422.938324195     -124.438870571     -124.438870571
  Force two-norm initial, final = 1156.35 4.64979
  Force max component initial, final = 362.75 1.61506
  Final line search alpha, max atom move = 4.79619e-10 7.74616e-10
  Iterations, force evaluations = 168 382

MPI task timing breakdown:
Section |  min time  |  avg time  |  max time  |%varavg| %total
---------------------------------------------------------------
Pair    | 0.035203   | 0.035203   | 0.035203   |   0.0 | 17.16
Bond    | 0.015907   | 0.015907   | 0.015907   |   0.0 |  7.75
Kspace  | 0.15205    | 0.15205    | 0.15205    |   0.0 | 74.12
Neigh   | 0.00027704 | 0.00027704 | 0.00027704 |   0.0 |  0.14
Comm    | 0.00019646 | 0.00019646 | 0.00019646 |   0.0 |  0.10
Output  | 0          | 0          | 0          |   0.0 |  0.00
Modify  | 0          | 0          | 0          |   0.0 |  0.00
Other   |            | 0.001498   |            |       |  0.73

Nlocal:    117 ave 117 max 117 min
Histogram: 1 0 0 0 0 0 0 0 0 0
Nghost:    36 ave 36 max 36 min
Histogram: 1 0 0 0 0 0 0 0 0 0
Neighs:    2222 ave 2222 max 2222 min
Histogram: 1 0 0 0 0 0 0 0 0 0

Total # of neighbors = 2222
Ave neighs/atom = 18.9915
Ave special neighs/atom = 10.8718
Neighbor list builds = 3
Dangerous builds = 0
write_dump all custom pysimm.dump.tmp id q x y z vx vy vz
quit


################################################################################
##################################    Init    ##################################
################################################################################
units           real
atom_style      full
pair_style      lj/cut/coul/long 12.0  12.0
kspace_style    pppm 1e-4
bond_style      harmonic
angle_style     harmonic
dihedral_style  fourier
improper_style  cvff
special_bonds   amber
pair_modify     mix arithmetic
read_data       temp.lmps
  orthogonal box = (-49.72 -49.72 -49.72) to (49.72 49.72 49.72)
  1 by 1 by 1 MPI processor grid
  reading atoms ...
  113 atoms
  reading velocities ...
  113 velocities
  scanning bonds ...
  4 = max bonds/atom
  scanning angles ...
  6 = max angles/atom
  scanning dihedrals ...
  15 = max dihedrals/atom
  reading bonds ...
  112 bonds
  reading angles ...
  208 angles
  reading dihedrals ...
  306 dihedrals
  4 = max # of 1-2 neighbors
  6 = max # of 1-3 neighbors
  12 = max # of 1-4 neighbors
  16 = max # of special neighbors
  special bonds CPU = 0.000266075 secs
  read_data CPU = 0.00811291 secs
################################################################################

min_style cg
minimize 1e-06 1e-06 1000000 10000000
WARNING: Using 'neigh_modify every 1 delay 0 check yes' setting during minimization (../min.cpp:190)
PPPM initialization ...
  using 12-bit tables for long-range coulomb (../kspace.cpp:332)
  G vector (1/distance) = 0.12068
  grid = 12 12 12
  stencil order = 5
  estimated absolute RMS force accuracy = 0.0272471
  estimated relative force accuracy = 8.20538e-05
  using double precision KISS FFT
  3d grid and FFT values/proc = 4913 1728
Neighbor list info ...
  update every 1 steps, delay 0 steps, check yes
  max neighbors/atom: 2000, page size: 100000
  master list distance cutoff = 14
  ghost atom cutoff = 14
  binsize = 7, bins = 15 15 15
  1 neighbor lists, perpetual/occasional/extra = 1 0 0
  (1) pair lj/cut/coul/long, perpetual
      attributes: half, newton on
      pair build: half/bin/newton
      stencil: half/bin/3d/newton
      bin: standard
Per MPI rank memory allocation (min/avg/max) = 15.51 | 15.51 | 15.51 Mbytes
Step Temp E_pair E_mol TotEng Press 
       0    113.04045   -234.71081    200.66847    3.6962963   -21.209272 
      27    113.04045    -233.9414    19.634144   -176.56862    2.0105463 
Loop time of 0.0731142 on 1 procs for 27 steps with 113 atoms

98.5% CPU use with 1 MPI tasks x no OpenMP threads

Minimization stats:
  Stopping criterion = linesearch alpha is zero
  Energy initial, next-to-last, final = 
        -34.0423407267     -214.307253457     -214.307253457
  Force two-norm initial, final = 668.263 10.8172
  Force max component initial, final = 295.889 3.44974
  Final line search alpha, max atom move = 7.70341e-11 2.65747e-10
  Iterations, force evaluations = 27 104

MPI task timing breakdown:
Section |  min time  |  avg time  |  max time  |%varavg| %total
---------------------------------------------------------------
Pair    | 0.015384   | 0.015384   | 0.015384   |   0.0 | 21.04
Bond    | 0.0052886  | 0.0052886  | 0.0052886  |   0.0 |  7.23
Kspace  | 0.05198    | 0.05198    | 0.05198    |   0.0 | 71.09
Neigh   | 0          | 0          | 0          |   0.0 |  0.00
Comm    | 3.4571e-05 | 3.4571e-05 | 3.4571e-05 |   0.0 |  0.05
Output  | 0          | 0          | 0          |   0.0 |  0.00
Modify  | 0          | 0          | 0          |   0.0 |  0.00
Other   |            | 0.0004261  |            |       |  0.58

Nlocal:    113 ave 113 max 113 min
Histogram: 1 0 0 0 0 0 0 0 0 0
Nghost:    0 ave 0 max 0 min
Histogram: 1 0 0 0 0 0 0 0 0 0
Neighs:    3042 ave 3042 max 3042 min
Histogram: 1 0 0 0 0 0 0 0 0 0

Total # of neighbors = 3042
Ave neighs/atom = 26.9204
Ave special neighs/atom = 11.3628
Neighbor list builds = 0
Dangerous builds = 0
write_dump all custom pysimm.dump.tmp id q x y z vx vy vz
quit


################################################################################
##################################    Init    ##################################
################################################################################
units           real
atom_style      full
pair_style      lj/cut/coul/long 12.0  12.0
kspace_style    pppm 1e-4
bond_style      harmonic
angle_style     harmonic
dihedral_style  fourier
improper_style  cvff
special_bonds   amber
pair_modify     mix arithmetic
read_data       temp.lmps
  orthogonal box = (-49.72 -49.72 -49.72) to (49.72 49.72 49.72)
  1 by 1 by 1 MPI processor grid
  reading atoms ...
  113 atoms
  reading velocities ...
  113 velocities
  scanning bonds ...
  4 = max bonds/atom
  scanning angles ...
  6 = max angles/atom
  scanning dihedrals ...
  15 = max dihedrals/atom
  reading bonds ...
  112 bonds
  reading angles ...
  214 angles
  reading dihedrals ...
  306 dihedrals
  4 = max # of 1-2 neighbors
  6 = max # of 1-3 neighbors
  12 = max # of 1-4 neighbors
  16 = max # of special neighbors
  special bonds CPU = 0.000277042 secs
  read_data CPU = 0.00527 secs
################################################################################

min_style cg
minimize 1e-06 1e-06 1000000 10000000
WARNING: Using 'neigh_modify every 1 delay 0 check yes' setting during minimization (../min.cpp:190)
PPPM initialization ...
  using 12-bit tables for long-range coulomb (../kspace.cpp:332)
  G vector (1/distance) = 0.12068
  grid = 12 12 12
  stencil order = 5
  estimated absolute RMS force accuracy = 0.0272471
  estimated relative force accuracy = 8.20538e-05
  using double precision KISS FFT
  3d grid and FFT values/proc = 4913 1728
Neighbor list info ...
  update every 1 steps, delay 0 steps, check yes
  max neighbors/atom: 2000, page size: 100000
  master list distance cutoff = 14
  ghost atom cutoff = 14
  binsize = 7, bins = 15 15 15
  1 neighbor lists, perpetual/occasional/extra = 1 0 0
  (1) pair lj/cut/coul/long, perpetual
      attributes: half, newton on
      pair build: half/bin/newton
      stencil: half/bin/3d/newton
      bin: standard
Per MPI rank memory allocation (min/avg/max) = 15.51 | 15.51 | 15.51 Mbytes
Step Temp E_pair E_mol TotEng Press 
       0    173.55866   -227.27981     207.1781    37.840979   -19.600742 
      62    173.55866   -228.66444    24.566562    -146.1552    3.1913576 
Loop time of 0.109575 on 1 procs for 62 steps with 113 atoms

98.5% CPU use with 1 MPI tasks x no OpenMP threads

Minimization stats:
  Stopping criterion = linesearch alpha is zero
  Energy initial, next-to-last, final = 
        -20.1017050102     -204.097880083     -204.097880083
  Force two-norm initial, final = 669.478 8.78869
  Force max component initial, final = 372.403 2.0729
  Final line search alpha, max atom move = 1.43395e-10 2.97244e-10
  Iterations, force evaluations = 62 172

MPI task timing breakdown:
Section |  min time  |  avg time  |  max time  |%varavg| %total
---------------------------------------------------------------
Pair    | 0.023734   | 0.023734   | 0.023734   |   0.0 | 21.66
Bond    | 0.0076609  | 0.0076609  | 0.0076609  |   0.0 |  6.99
Kspace  | 0.077346   | 0.077346   | 0.077346   |   0.0 | 70.59
Neigh   | 0.00012898 | 0.00012898 | 0.00012898 |   0.0 |  0.12
Comm    | 4.2677e-05 | 4.2677e-05 | 4.2677e-05 |   0.0 |  0.04
Output  | 0          | 0          | 0          |   0.0 |  0.00
Modify  | 0          | 0          | 0          |   0.0 |  0.00
Other   |            | 0.0006626  |            |       |  0.60

Nlocal:    113 ave 113 max 113 min
Histogram: 1 0 0 0 0 0 0 0 0 0
Nghost:    0 ave 0 max 0 min
Histogram: 1 0 0 0 0 0 0 0 0 0
Neighs:    3498 ave 3498 max 3498 min
Histogram: 1 0 0 0 0 0 0 0 0 0

Total # of neighbors = 3498
Ave neighs/atom = 30.9558
Ave special neighs/atom = 11.3628
Neighbor list builds = 1
Dangerous builds = 0
write_dump all custom pysimm.dump.tmp id q x y z vx vy vz
quit


################################################################################
##################################    Init    ##################################
################################################################################
units           real
atom_style      full
pair_style      lj/cut/coul/long 12.0  12.0
kspace_style    pppm 1e-4
bond_style      harmonic
angle_style     harmonic
dihedral_style  fourier
improper_style  cvff
special_bonds   amber
pair_modify     mix arithmetic
read_data       temp.lmps
  orthogonal box = (-49.72 -49.72 -49.72) to (49.72 49.72 49.72)
  1 by 1 by 1 MPI processor grid
  reading atoms ...
  113 atoms
  reading velocities ...
  113 velocities
  scanning bonds ...
  4 = max bonds/atom
  scanning angles ...
  6 = max angles/atom
  scanning dihedrals ...
  15 = max dihedrals/atom
  reading bonds ...
  112 bonds
  reading angles ...
  216 angles
  reading dihedrals ...
  306 dihedrals
  4 = max # of 1-2 neighbors
  6 = max # of 1-3 neighbors
  12 = max # of 1-4 neighbors
  16 = max # of special neighbors
  special bonds CPU = 0.000301838 secs
  read_data CPU = 0.0055759 secs
################################################################################

min_style cg
minimize 1e-06 1e-06 1000000 10000000
WARNING: Using 'neigh_modify every 1 delay 0 check yes' setting during minimization (../min.cpp:190)
PPPM initialization ...
  using 12-bit tables for long-range coulomb (../kspace.cpp:332)
  G vector (1/distance) = 0.12068
  grid = 12 12 12
  stencil order = 5
  estimated absolute RMS force accuracy = 0.0272471
  estimated relative force accuracy = 8.20538e-05
  using double precision KISS FFT
  3d grid and FFT values/proc = 4913 1728
Neighbor list info ...
  update every 1 steps, delay 0 steps, check yes
  max neighbors/atom: 2000, page size: 100000
  master list distance cutoff = 14
  ghost atom cutoff = 14
  binsize = 7, bins = 15 15 15
  1 neighbor lists, perpetual/occasional/extra = 1 0 0
  (1) pair lj/cut/coul/long, perpetual
      attributes: half, newton on
      pair build: half/bin/newton
      stencil: half/bin/3d/newton
      bin: standard
Per MPI rank memory allocation (min/avg/max) = 15.51 | 15.51 | 15.51 Mbytes
Step Temp E_pair E_mol TotEng Press 
       0    182.60933   -225.42365    214.03017     49.57078   -23.854998 
      41    182.60933   -225.02426    30.266412    -133.7936   0.85547951 
Loop time of 0.0958409 on 1 procs for 41 steps with 113 atoms

100.2% CPU use with 1 MPI tasks x no OpenMP threads

Minimization stats:
  Stopping criterion = linesearch alpha is zero
  Energy initial, next-to-last, final = 
        -11.3934774414     -194.757852313     -194.757852313
  Force two-norm initial, final = 668.092 14.7828
  Force max component initial, final = 287.522 5.36902
  Final line search alpha, max atom move = 3.13447e-11 1.68291e-10
  Iterations, force evaluations = 41 135

MPI task timing breakdown:
Section |  min time  |  avg time  |  max time  |%varavg| %total
---------------------------------------------------------------
Pair    | 0.020697   | 0.020697   | 0.020697   |   0.0 | 21.60
Bond    | 0.0068824  | 0.0068824  | 0.0068824  |   0.0 |  7.18
Kspace  | 0.067519   | 0.067519   | 0.067519   |   0.0 | 70.45
Neigh   | 0.00016499 | 0.00016499 | 0.00016499 |   0.0 |  0.17
Comm    | 3.171e-05  | 3.171e-05  | 3.171e-05  |   0.0 |  0.03
Output  | 0          | 0          | 0          |   0.0 |  0.00
Modify  | 0          | 0          | 0          |   0.0 |  0.00
Other   |            | 0.000546   |            |       |  0.57

Nlocal:    113 ave 113 max 113 min
Histogram: 1 0 0 0 0 0 0 0 0 0
Nghost:    0 ave 0 max 0 min
Histogram: 1 0 0 0 0 0 0 0 0 0
Neighs:    3549 ave 3549 max 3549 min
Histogram: 1 0 0 0 0 0 0 0 0 0

Total # of neighbors = 3549
Ave neighs/atom = 31.4071
Ave special neighs/atom = 11.3628
Neighbor list builds = 1
Dangerous builds = 0
write_dump all custom pysimm.dump.tmp id q x y z vx vy vz
quit
