pySIMM System Object

704 atoms
768 bonds
1351 angles
2046 dihedrals
215 impropers

11 atom types
13 bond types
22 angle types
9 dihedral types
4 improper types

-114.791043 114.791043 xlo xhi
-114.791043 114.791043 ylo yhi
-114.791043 114.791043 zlo zhi

Masses

   1	14.01	# n
   2	12.01	# c
   3	12.01	# ca
   4	1.008	# hn
   5	16.0	# o
   6	1.008	# ha
   7	12.01	# c3
   8	19.0	# f
   9	16.0	# oh
  10	1.008	# ho
  11	1.008	# hc

Pair Coeffs

   1	0.17	3.249998523775958	# n
   2	0.086	3.3996695084235347	# c
   3	0.086	3.3996695084235347	# ca
   4	0.0157	1.069078461768407	# hn
   5	0.21	2.959921901149463	# o
   6	0.015	2.59964245953351	# ha
   7	0.1094	3.3996695084235347	# c3
   8	0.061	3.1181455134911875	# f
   9	0.2104	3.0664733878390478	# oh
  10	0.0047	0.5379246460131368	# ho
  11	0.0157	2.649532787749369	# hc

Bond Coeffs

   1	345.9	1.4906	# c,ca
   2	400.1	1.3513	# c,oh
   3	345.8	1.086	# ca,ha
   4	637.7	1.2183	# c,o
   5	321.0	1.5156	# c3,ca
   6	300.9	1.5375	# c3,c3
   7	384.2	1.4121	# ca,n
   8	403.2	1.0129	# hn,n
   9	356.9	1.3497	# c3,f
  10	371.4	0.973	# ho,oh
  11	427.6	1.3789	# c,n
  12	461.1	1.3984	# ca,ca
  13	330.6	1.0969	# c3,hc

Angle Coeffs

   1	48.33	117.55	# c,n,hn
   2	64.28	120.33	# c,ca,ca
   3	67.68	115.25	# ca,c,n
   4	63.53	120.77	# c3,ca,ca
   5	67.87	120.19	# ca,ca,n
   6	70.89	107.36	# f,c3,f
   7	66.11	109.24	# c3,c3,f
   8	49.88	106.55	# c,oh,ho
   9	62.86	111.51	# c3,c3,c3
  10	63.15	112.07	# c3,c3,ca
  11	63.56	112.24	# ca,c3,ca
  12	63.82	123.71	# c,n,ca
  13	69.15	113.45	# ca,c,oh
  14	63.74	127.08	# c,n,c
  15	48.18	119.88	# ca,ca,ha
  16	74.22	123.05	# n,c,o
  17	75.92	122.1	# o,c,oh
  18	66.62	120.02	# ca,ca,ca
  19	68.72	122.6	# ca,c,o
  20	39.4	107.58	# hc,c3,hc
  21	46.8	110.47	# ca,c3,hc
  22	49.75	116.02	# ha,ca,n

Dihedral Coeffs

   1	1	2.3	2	180	# X,c,oh,X
   2	2	2.5	2	180	2.0	1	0	# hn,n,c,o
   3	1	3.625	2	180	# X,ca,ca,X
   4	2	2.3	2	180	1.9	1	0	# ho,oh,c,o
   5	1	0.15555555555555556	3	0	# X,c3,c3,X
   6	1	0.0	2	0	# X,c3,ca,X
   7	1	1.0	2	180	# X,c,ca,X
   8	1	2.5	2	180	# X,c,n,X
   9	1	0.45	2	180	# X,ca,n,X

Improper Coeffs

   1	1.1	-1	2	# ca,X,X,ha
   2	1.1	-1	2	# n,X,X,hn
   3	1.1	-1	2	# ca,ca,ca,c3
   4	10.5	-1	2	# c,X,X,o

Atoms

   1	1	1	0.492035	15.5856	-17.5703	29.283
   2	1	2	0.039235	16.5499	-18.2972	28.6069
   3	1	3	-0.015324	15.8355	-18.7059	27.3922
   4	1	2	0.029964	14.3373	-17.5439	28.6847
   5	1	3	0.070931	14.5403	-18.2125	27.4114
   6	1	5	-0.376136	17.7299	-18.4527	28.898
   7	1	5	-0.378673	13.3411	-16.9828	29.0795
   8	1	3	-0.008856	16.399	-19.3177	26.2846
   9	1	3	-0.050254	13.6783	-18.388	26.3395
  10	1	3	-0.199808	14.1896	-19.1439	25.2473
  11	1	3	-0.056025	15.5506	-19.6346	25.2042
  12	1	6	0.163004	17.4334	-19.6568	26.319
  13	1	6	0.15778	12.6649	-17.9857	26.3569
  14	1	6	0.172843	13.5215	-19.3307	24.4034
  15	1	7	-0.082157	16.0895	-20.6292	24.1253
  16	1	7	0.321766	17.6026	-20.3384	23.6391
  17	1	8	-0.115532	18.5318	-20.9741	24.377
  18	1	8	-0.098544	17.9282	-20.7601	22.3716
  19	1	8	-0.116522	17.8704	-19.024	23.7213
  20	1	7	0.409577	16.0791	-22.089	24.7528
  21	1	8	-0.127323	16.528	-23.0007	23.8507
  22	1	8	-0.131234	14.8486	-22.4768	25.1544
  23	1	8	-0.12834	16.8259	-22.1717	25.8994
  24	1	3	-0.054598	15.202	-20.4469	22.8666
  25	1	3	-0.114682	15.416	-19.3208	22.0442
  26	1	3	-0.027292	14.8235	-19.2674	20.7848
  27	1	3	-0.053307	14.3147	-21.4434	22.3737
  28	1	3	-0.12014	13.6865	-21.3355	21.11
  29	1	3	-0.108895	13.9737	-20.2252	20.3206
  30	1	2	0.53745	13.5432	-19.8249	18.9482
  31	1	1	-0.142145	14.2296	-18.656	18.6937
  32	1	2	0.571477	15.0454	-18.2904	19.7273
  33	1	3	-0.002566	14.1561	-17.9411	17.4744
  34	1	3	-0.337427	12.9554	-17.3422	16.9784
  35	1	3	0.463101	12.9525	-16.5346	15.8099
  36	1	3	-0.077757	15.347	-17.7881	16.7585
  37	1	3	-0.17221	15.3914	-16.9589	15.6188
  38	1	3	-0.341697	14.2035	-16.3114	15.1936
  39	1	2	0.246259	11.6528	-15.9785	15.1811
  40	1	6	0.163123	13.0235	-22.1183	20.7316
  41	1	6	0.140059	14.0892	-22.3229	22.9573
  42	1	6	0.184664	16.0841	-18.5174	22.3178
  43	1	5	-0.57014	15.8117	-17.3603	19.7881
  44	1	5	-0.478504	12.6589	-20.3126	18.2738
  45	1	6	0.172599	16.3368	-16.8018	15.0938
  46	1	6	0.35044	12.0264	-17.4804	17.5193
  47	1	6	0.154366	16.2641	-18.2038	17.1816
  48	1	6	0.237262	14.2239	-15.6652	14.3185
  49	1	5	-0.49166	10.5596	-15.9786	15.7342
  50	1	9	-0.100187	11.7461	-15.3917	13.9392
  51	1	3	-0.024347	22.8368	-8.03428	35.1942
  52	1	3	-0.071478	22.4519	-9.3109	35.7317
  53	1	3	-0.180016	22.2003	-9.38148	37.1392
  54	1	5	-0.370097	23.404	-5.10532	34.5282
  55	1	3	0.010306	22.8407	-6.92439	36.0066
  56	1	3	-0.071748	22.1219	-8.21023	37.9363
  57	1	5	-0.403598	21.7118	-5.31631	38.8799
  58	1	3	0.055994	22.4085	-6.99166	37.3007
  59	1	2	0.021521	23.0348	-5.49885	35.6381
  60	1	1	0.466017	22.5658	-4.78145	36.7445
  61	1	2	0.096621	22.2039	-5.61348	37.8056
  62	1	3	-0.099438	18.5233	-11.2661	35.0799
  63	1	7	-0.089685	22.4256	-10.642	34.8392
  64	1	3	-0.037281	21.029	-11.3726	34.8889
  65	1	3	-0.08188	19.8317	-10.6867	35.2787
  66	1	3	-0.106561	18.4264	-12.5637	34.5434
  67	1	3	-0.037628	20.8681	-12.685	34.3624
  68	1	3	-0.12234	19.5872	-13.2426	34.2352
  69	1	7	0.388954	23.632	-11.6	35.2696
  70	1	7	0.307788	22.588	-10.2837	33.3165
  71	1	8	-0.129718	23.4208	-12.1071	36.5066
  72	1	8	-0.129089	24.8356	-10.9623	35.3058
  73	1	8	-0.119089	23.8214	-12.6825	34.4874
  74	1	8	-0.103894	23.7835	-9.75733	33.1135
  75	1	8	-0.097852	21.688	-9.35762	32.9587
  76	1	8	-0.104555	22.5405	-11.3134	32.428
  77	1	2	0.521254	19.2178	-14.5402	33.6292
  78	1	2	0.53569	17.2712	-13.4366	34.1389
  79	1	1	0.027822	17.8407	-14.5135	33.4573
  80	1	5	-0.468874	19.9978	-15.4191	33.2844
  81	1	5	-0.477974	16.0886	-13.1573	34.1775
  82	1	3	-0.359831	17.1679	-15.2856	32.4329
  83	1	3	0.131035	16.7337	-16.6272	32.6547
  84	1	3	-0.120983	16.0593	-17.3453	31.6363
  85	1	3	0.127261	16.9819	-14.6762	31.1652
  86	1	3	-0.127195	16.3077	-15.3916	30.1618
  87	1	3	0.144798	15.9297	-16.7461	30.3727
  88	1	7	-0.020676	17.3964	-13.2251	30.8889
  89	1	7	-0.019785	17.0231	-17.3517	33.9741
  90	1	6	0.164889	23.0303	-7.82029	34.1546
  91	1	6	0.175264	21.9765	-10.3456	37.5839
  92	1	6	0.1582	21.8459	-8.23109	38.9934
  93	1	6	0.150763	17.6103	-10.7195	35.3056
  94	1	6	0.144868	19.8937	-9.66986	35.6682
  95	1	6	0.134072	21.7104	-13.2651	34.0029
  96	1	7	-0.300668	15.3902	-18.705	31.898
  97	1	7	-0.243237	16.0473	-14.6564	28.8415
  98	1	11	0.021835	18.0743	-12.7813	31.6308
  99	1	11	0.012312	16.5071	-12.5764	30.8843
 100	1	11	0.041777	17.9504	-13.1013	29.9565
 101	1	11	0.110598	15.6959	-13.6145	28.9619
 102	1	11	0.08293	16.9725	-14.6384	28.2387
 103	1	11	0.082252	15.2825	-15.1282	28.2344
 104	1	11	0.027698	17.6429	-18.2396	33.8223
 105	1	11	0.017051	16.0764	-17.6811	34.4284
 106	1	11	0.037874	17.5256	-16.7623	34.7442
 107	1	11	0.095908	16.1598	-19.497	31.9107
 108	1	11	0.127068	14.8811	-18.6993	32.864
 109	1	11	0.099095	14.6173	-18.9778	31.1604
 110	1	1	0.492035	14.0102	-1.68798	24.8122
 111	1	2	0.039235	14.39	-1.5534	26.1552
 112	1	3	-0.015324	15.8838	-1.50959	26.1357
 113	1	2	0.029964	15.0858	-1.68469	23.9163
 114	1	3	0.070931	16.2911	-1.73898	24.8284
 115	1	5	-0.376136	13.6805	-1.62638	27.1449
 116	1	5	-0.378673	15.0603	-1.70737	22.6855
 117	1	3	-0.008856	16.8468	-1.28215	27.1451
 118	1	3	-0.050254	17.6602	-1.88899	24.5103
 119	1	3	-0.199808	18.6154	-1.47735	25.4648
 120	1	3	-0.056025	18.2063	-1.02147	26.7776
 121	1	6	0.163004	16.4559	-1.04639	28.1348
 122	1	6	0.15778	17.947	-2.22812	23.5018
 123	1	6	0.172843	19.6338	-1.48446	25.1526
 124	1	7	-0.082157	19.0857	-0.190675	27.7725
 125	1	7	0.321766	20.5202	0.157552	27.2287
 126	1	8	-0.115532	21.1947	-1.00688	26.9396
 127	1	8	-0.098544	21.2214	0.768012	28.2076
 128	1	8	-0.116522	20.5156	0.972919	26.1558
 129	1	7	0.409577	18.4146	1.23988	27.988
 130	1	8	-0.127323	19.1538	2.30932	28.3518
 131	1	8	-0.131234	17.4126	1.16109	28.8971
 132	1	8	-0.12834	17.8688	1.58683	26.7989
 133	1	3	-0.054598	19.3019	-0.991464	29.0979
 134	1	3	-0.114682	19.6812	-0.350714	30.305
 135	1	3	-0.027292	20.1713	-1.09467	31.37
 136	1	3	-0.053307	19.2785	-2.42432	29.0842
 137	1	3	-0.12014	19.5939	-3.19065	30.2346
 138	1	3	-0.108895	20.1248	-2.47287	31.3159
 139	1	2	0.53745	20.7086	-2.936	32.5629
 140	1	1	-0.142145	21.0143	-1.84857	33.3522
 141	1	2	0.571477	20.7125	-0.651922	32.6789
 142	1	3	-0.002566	21.6632	-2.01053	34.6428
 143	1	3	-0.337427	22.5834	-1.046	35.0693
 144	1	3	0.463101	23.292	-1.26225	36.2715
 145	1	3	-0.077757	21.3943	-3.09615	35.5345
 146	1	3	-0.17221	22.1779	-3.39785	36.6999
 147	1	3	-0.341697	23.1858	-2.46333	37.0346
 148	1	2	0.246259	24.0503	-0.138019	36.8471
 149	1	6	0.163123	19.5521	-4.28193	30.2328
 150	1	6	0.140059	18.9475	-2.96662	28.2002
 151	1	6	0.184664	19.7975	0.731224	30.3594
 152	1	5	-0.57014	20.7677	0.481349	33.0807
 153	1	5	-0.478504	20.8109	-4.0826	32.8479
 154	1	6	0.172599	21.5166	-3.41388	37.5657
 155	1	6	0.35044	22.7428	-0.130223	34.4946
 156	1	6	0.154366	20.6694	-3.84008	35.2054
 157	1	6	0.237262	23.8066	-2.60078	37.9236
 158	1	5	-0.49166	25.0523	-0.380918	37.4754
 159	1	9	-0.100187	23.4571	1.062	36.7852
 160	1	3	-0.024347	7.06118	-5.81402	14.266
 161	1	3	-0.071478	7.33298	-5.55543	15.6378
 162	1	3	-0.180016	8.57417	-5.97864	16.1335
 163	1	5	-0.370097	7.02645	-6.55008	11.2268
 164	1	3	0.010306	8.02682	-6.37777	13.4519
 165	1	3	-0.071748	9.54101	-6.58651	15.2474
 166	1	5	-0.403598	10.9423	-8.24377	13.0421
 167	1	3	0.055994	9.27207	-6.74139	13.8904
 168	1	2	0.021521	7.96781	-6.71463	11.9908
 169	1	1	0.466017	9.1322	-7.46634	11.6946
 170	1	2	0.096621	9.96983	-7.55662	12.8273
 171	1	3	-0.099438	6.97966	-5.31217	20.4879
 172	1	7	-0.089685	6.41256	-4.72739	16.5677
 173	1	3	-0.037281	6.9809	-4.65201	18.0332
 174	1	3	-0.08188	6.61885	-5.54918	19.1027
 175	1	3	-0.106561	7.92111	-4.32561	20.7568
 176	1	3	-0.037628	7.99477	-3.72758	18.3625
 177	1	3	-0.12234	8.45602	-3.60071	19.6966
 178	1	7	0.388954	5.00934	-5.39186	16.6624
 179	1	7	0.307788	6.28601	-3.2077	16.0389
 180	1	8	-0.129718	4.14915	-4.74968	17.5124
 181	1	8	-0.129089	5.01801	-6.75883	16.936
 182	1	8	-0.119089	4.42467	-5.40022	15.4465
 183	1	8	-0.103894	7.49214	-2.92026	15.4388
 184	1	8	-0.097852	5.31731	-2.86639	15.1009
 185	1	8	-0.104555	5.96436	-2.38338	17.0831
 186	1	2	0.521254	9.54467	-2.68761	20.2229
 187	1	2	0.53569	8.66084	-3.93369	21.9918
 188	1	1	0.027822	9.63324	-3.03503	21.5624
 189	1	5	-0.468874	10.1924	-1.82489	19.6193
 190	1	5	-0.477974	8.51034	-4.44566	23.0932
 191	1	3	-0.359831	10.6781	-2.6169	22.3926
 192	1	3	0.131035	11.6145	-3.62295	22.7736
 193	1	3	-0.120983	12.5906	-3.30141	23.7518
 194	1	3	0.127261	10.6951	-1.2941	22.9163
 195	1	3	-0.127195	11.8086	-0.947052	23.7252
 196	1	3	0.144798	12.7608	-1.96075	24.1562
 197	1	7	-0.020676	9.5435	-0.315672	22.5941
 198	1	7	-0.019785	11.5568	-5.0407	22.1454
 199	1	6	0.164889	6.1449	-5.52211	13.7856
 200	1	6	0.175264	8.84152	-5.91195	17.1833
 201	1	6	0.1582	10.4592	-6.99456	15.6716
 202	1	6	0.150763	6.63387	-5.93303	21.3393
 203	1	6	0.144868	5.9201	-6.3831	18.9852
 204	1	6	0.134072	8.40734	-2.99762	17.6463
 205	1	7	-0.300668	13.5952	-4.42032	24.148
 206	1	7	-0.243237	11.9383	0.498808	24.2359
 207	1	11	0.021835	9.20872	0.35022	23.4085
 208	1	11	0.012312	8.56792	-0.834805	22.3749
 209	1	11	0.041777	9.76404	0.260951	21.7024
 210	1	11	0.110598	11.2679	1.2441	23.7568
 211	1	11	0.08293	11.7976	0.58913	25.3285
 212	1	11	0.082252	12.9217	0.891983	24.0187
 213	1	11	0.027698	11.091	-5.03895	21.1247
 214	1	11	0.017051	11.1026	-5.8275	22.788
 215	1	11	0.037874	12.6103	-5.4319	21.8836
 216	1	11	0.095908	13.8457	-4.34987	25.2018
 217	1	11	0.127068	13.2482	-5.44035	23.9743
 218	1	11	0.099095	14.5407	-4.29206	23.6341
 219	1	1	0.492035	4.70613	-3.47668	-2.48962
 220	1	2	0.039235	5.263	-2.46691	-1.75447
 221	1	3	-0.015324	6.15587	-3.185	-0.840919
 222	1	2	0.029964	5.19709	-4.73198	-2.16445
 223	1	3	0.070931	6.12684	-4.49074	-1.11705
 224	1	5	-0.376136	4.92096	-1.31379	-1.82211
 225	1	5	-0.378673	5.10256	-5.7725	-2.75244
 226	1	3	-0.008856	6.88844	-2.65485	0.164166
 227	1	3	-0.050254	6.96023	-5.38095	-0.453104
 228	1	3	-0.199808	7.60012	-4.87791	0.7094
 229	1	3	-0.056025	7.56684	-3.50471	1.05979
 230	1	6	0.163004	6.78159	-1.57094	0.31964
 231	1	6	0.15778	6.98025	-6.42222	-0.81896
 232	1	6	0.172843	8.14059	-5.54878	1.31995
 233	1	7	-0.082157	8.28261	-3.03334	2.4105
 234	1	7	0.321766	9.85129	-3.29192	2.22163
 235	1	8	-0.115532	10.6361	-2.79276	3.18174
 236	1	8	-0.098544	10.3405	-2.70817	1.14427
 237	1	8	-0.116522	10.2843	-4.53891	2.04065
 238	1	7	0.409577	8.02381	-1.53559	2.88955
 239	1	8	-0.127323	8.68775	-1.34628	4.14535
 240	1	8	-0.131234	6.68779	-1.19807	2.99079
 241	1	8	-0.12834	8.60071	-0.701027	1.99541
 242	1	3	-0.054598	7.68985	-3.86266	3.56421
 243	1	3	-0.114682	8.3674	-3.93185	4.78636
 244	1	3	-0.027292	7.97797	-4.86771	5.71582
 245	1	3	-0.053307	6.49688	-4.56826	3.39699
 246	1	3	-0.12014	6.07738	-5.47397	4.30953
 247	1	3	-0.108895	6.85351	-5.65172	5.45352
 248	1	2	0.53745	6.80568	-6.78559	6.33841
 249	1	1	-0.142145	7.91508	-6.60884	7.20768
 250	1	2	0.571477	8.60271	-5.4695	6.93543
 251	1	3	-0.002566	8.26844	-7.54501	8.23108
 252	1	3	-0.337427	7.99729	-8.88978	8.09002
 253	1	3	0.463101	8.25781	-9.83764	9.11583
 254	1	3	-0.077757	8.97664	-7.1371	9.36062
 255	1	3	-0.17221	9.2719	-8.05509	10.4052
 256	1	3	-0.341697	8.80158	-9.36828	10.3259
 257	1	2	0.246259	7.80995	-11.3045	8.90374
 258	1	6	0.163123	5.18727	-6.0499	4.10443
 259	1	6	0.140059	5.88449	-4.49754	2.51267
 260	1	6	0.184664	9.30091	-3.43013	4.90846
 261	1	5	-0.57014	9.65217	-5.06284	7.45249
 262	1	5	-0.478504	5.89453	-7.55076	6.30196
 263	1	6	0.172599	10.3648	-8.16037	10.5808
 264	1	6	0.35044	7.56211	-9.28403	7.20727
 265	1	6	0.154366	9.22753	-6.09964	9.50519
 266	1	6	0.237262	8.97648	-10.0148	11.1521
 267	1	5	-0.49166	7.19604	-11.6981	7.92847
 268	1	9	-0.100187	8.09365	-12.1759	9.92259
 269	1	3	-0.024347	-4.85674	-2.70171	-8.40175
 270	1	3	-0.071478	-5.95412	-2.6598	-7.51623
 271	1	3	-0.180016	-6.97221	-3.6132	-7.75981
 272	1	5	-0.370097	-2.76855	-3.37299	-10.646
 273	1	3	0.010306	-4.83836	-3.62694	-9.47067
 274	1	3	-0.071748	-6.85885	-4.63002	-8.74682
 275	1	5	-0.403598	-6.06306	-6.62231	-11.0453
 276	1	3	0.055994	-5.7911	-4.59589	-9.61464
 277	1	2	0.021521	-3.84251	-3.95041	-10.5142
 278	1	1	0.466017	-4.3812	-4.9775	-11.2909
 279	1	2	0.096621	-5.46983	-5.59191	-10.6884
 280	1	3	-0.099438	-2.67079	0.497195	-5.80977
 281	1	7	-0.089685	-5.99211	-1.4474	-6.52869
 282	1	3	-0.037281	-4.55018	-1.11013	-6.05693
 283	1	3	-0.08188	-4.03006	0.213643	-6.04618
 284	1	3	-0.106561	-1.85809	-0.572475	-5.41174
 285	1	3	-0.037628	-3.68737	-2.17335	-5.73794
 286	1	3	-0.12234	-2.35083	-1.88876	-5.40073
 287	1	7	0.388954	-6.7908	-1.87277	-5.26304
 288	1	7	0.307788	-6.74019	-0.223608	-7.25379
 289	1	8	-0.129718	-6.24767	-2.97195	-4.69536
 290	1	8	-0.129089	-8.13107	-2.07595	-5.42531
 291	1	8	-0.119089	-6.62666	-0.974877	-4.29201
 292	1	8	-0.103894	-7.9198	-0.73599	-7.77065
 293	1	8	-0.097852	-6.02797	0.423561	-8.28664
 294	1	8	-0.104555	-7.04514	0.78378	-6.4078
 295	1	2	0.521254	-1.13063	-2.78027	-5.28632
 296	1	2	0.53569	-0.362809	-0.616375	-5.26861
 297	1	1	0.027822	-0.0357472	-1.93784	-5.07482
 298	1	5	-0.468874	-1.07958	-3.99051	-5.46241
 299	1	5	-0.477974	0.45081	0.264921	-5.54743
 300	1	3	-0.359831	1.20402	-2.38243	-4.50671
 301	1	3	0.131035	2.36153	-2.5257	-5.2921
 302	1	3	-0.120983	3.56095	-2.89947	-4.6473
 303	1	3	0.127261	1.19654	-2.64078	-3.09822
 304	1	3	-0.127195	2.35275	-3.12317	-2.49587
 305	1	3	0.144798	3.53883	-3.19499	-3.24366
 306	1	7	-0.020676	-0.0878865	-2.48481	-2.2387
 307	1	7	-0.019785	2.37257	-2.29093	-6.8076
 308	1	6	0.164889	-4.02465	-2.04183	-8.30592
 309	1	6	0.175264	-7.86848	-3.6397	-7.15339
 310	1	6	0.1582	-7.66384	-5.36049	-8.92272
 311	1	6	0.150763	-2.30781	1.51727	-5.95799
 312	1	6	0.144868	-4.67762	1.04787	-6.30391
 313	1	6	0.134072	-3.95862	-3.21089	-5.8316
 314	1	7	-0.300668	4.73146	-3.35238	-5.51587
 315	1	7	-0.243237	2.31734	-3.39682	-1.01444
 316	1	11	0.021835	-0.48634	-3.46322	-1.93822
 317	1	11	0.012312	-0.8653	-1.91703	-2.73447
 318	1	11	0.041777	0.106424	-1.89039	-1.34413
 319	1	11	0.110598	2.79475	-2.59533	-0.4877
 320	1	11	0.08293	1.35199	-3.50906	-0.586158
 321	1	11	0.082252	2.80896	-4.34482	-0.774952
 322	1	11	0.027698	2.52398	-3.25311	-7.27017
 323	1	11	0.017051	3.20202	-1.6648	-7.12995
 324	1	11	0.037874	1.43666	-1.93994	-7.2121
 325	1	11	0.095908	4.42995	-4.01006	-6.33672
 326	1	11	0.127068	5.42985	-2.5794	-5.83036
 327	1	11	0.099095	5.30537	-4.0887	-4.96375
 328	1	3	-0.024347	-6.11418	-11.401	-23.0445
 329	1	3	-0.071478	-5.14653	-11.7247	-22.0009
 330	1	3	-0.180016	-3.87315	-12.1686	-22.4498
 331	1	5	-0.370097	-7.67236	-10.5604	-25.7223
 332	1	3	0.010306	-5.82293	-11.514	-24.4119
 333	1	3	-0.071748	-3.60659	-12.3542	-23.8373
 334	1	5	-0.403598	-3.73203	-12.6959	-26.9978
 335	1	3	0.055994	-4.61558	-12.0679	-24.7849
 336	1	2	0.021521	-6.58446	-11.12	-25.6502
 337	1	1	0.466017	-5.70945	-11.4706	-26.7075
 338	1	2	0.096621	-4.55557	-12.1196	-26.2675
 339	1	3	-0.099438	-3.24565	-8.50721	-19.8339
 340	1	7	-0.089685	-5.4259	-11.6791	-20.4239
 341	1	3	-0.037281	-4.50261	-10.6542	-19.7063
 342	1	3	-0.08188	-3.82288	-9.64266	-20.4282
 343	1	3	-0.106561	-3.26877	-8.37889	-18.4443
 344	1	3	-0.037628	-4.36398	-10.5654	-18.3079
 345	1	3	-0.12234	-3.76439	-9.43641	-17.7034
 346	1	7	0.388954	-5.28301	-13.1942	-19.909
 347	1	7	0.307788	-6.93017	-11.1686	-20.1286
 348	1	8	-0.129718	-5.97405	-13.9911	-20.7473
 349	1	8	-0.129089	-5.80831	-13.4334	-18.6717
 350	1	8	-0.119089	-3.9931	-13.6643	-19.9539
 351	1	8	-0.103894	-7.00799	-9.88884	-20.5388
 352	1	8	-0.097852	-7.33954	-11.0946	-18.8023
 353	1	8	-0.104555	-7.84665	-11.8907	-20.8271
 354	1	2	0.521254	-3.82362	-8.95986	-16.298
 355	1	2	0.53569	-3.04844	-7.17947	-17.6078
 356	1	1	0.027822	-3.42175	-7.60377	-16.3255
 357	1	5	-0.468874	-4.17298	-9.63808	-15.3601
 358	1	5	-0.477974	-2.87413	-6.03334	-17.9684
 359	1	3	-0.359831	-3.48001	-6.77172	-15.0995
 360	1	3	0.131035	-4.74584	-6.16571	-14.8543
 361	1	3	-0.120983	-4.86628	-5.29437	-13.7088
 362	1	3	0.127261	-2.38083	-6.47567	-14.2079
 363	1	3	-0.127195	-2.64462	-5.94438	-12.8981
 364	1	3	0.144798	-3.93814	-5.36429	-12.6187
 365	1	7	-0.020676	-0.964328	-7.00487	-14.606
 366	1	7	-0.019785	-5.88408	-6.30017	-15.8745
 367	1	6	0.164889	-7.0775	-10.9452	-22.7946
 368	1	6	0.175264	-3.09267	-12.3492	-21.7006
 369	1	6	0.1582	-2.65032	-12.6658	-24.218
 370	1	6	0.150763	-2.84084	-7.70866	-20.4541
 371	1	6	0.144868	-3.84665	-9.59867	-21.4775
 372	1	6	0.134072	-4.80151	-11.3404	-17.6698
 373	1	7	-0.300668	-6.04541	-4.33369	-13.4273
 374	1	7	-0.243237	-1.48084	-5.98296	-11.8148
 375	1	11	0.021835	-0.17157	-6.4672	-14.0726
 376	1	11	0.012312	-0.837842	-6.86057	-15.6776
 377	1	11	0.041777	-0.884307	-8.10552	-14.4031
 378	1	11	0.110598	-1.84576	-6.04469	-10.7858
 379	1	11	0.08293	-0.813428	-6.85999	-11.944
 380	1	11	0.082252	-0.868117	-5.08002	-11.8466
 381	1	11	0.027698	-6.76966	-5.75817	-15.6477
 382	1	11	0.017051	-6.16682	-7.36452	-16.0204
 383	1	11	0.037874	-5.54661	-5.9566	-16.8559
 384	1	11	0.095908	-6.5157	-4.09773	-14.3872
 385	1	11	0.127068	-6.78867	-4.78032	-12.7608
 386	1	11	0.099095	-5.77111	-3.31533	-13.0867
 387	1	1	0.492035	-13.6062	-1.63395	-26.9673
 388	1	2	0.039235	-14.2359	-2.78697	-26.6387
 389	1	3	-0.015324	-13.7712	-3.76085	-27.657
 390	1	2	0.029964	-12.6724	-1.78314	-27.9845
 391	1	3	0.070931	-12.8094	-3.15992	-28.4366
 392	1	5	-0.376136	-15.1994	-2.9264	-25.9491
 393	1	5	-0.378673	-11.9576	-0.935426	-28.4874
 394	1	3	-0.008856	-14.1778	-5.06711	-27.9558
 395	1	3	-0.050254	-12.3296	-3.72986	-29.616
 396	1	3	-0.199808	-12.853	-4.96375	-30.0313
 397	1	3	-0.056025	-13.7997	-5.64323	-29.2172
 398	1	6	0.163004	-14.9303	-5.48024	-27.3169
 399	1	6	0.15778	-11.6095	-3.19123	-30.2129
 400	1	6	0.172843	-12.5007	-5.394	-30.9817
 401	1	7	-0.082157	-14.4793	-6.90727	-29.8547
 402	1	7	0.321766	-15.7676	-7.3837	-29.0885
 403	1	8	-0.115532	-16.7197	-6.42109	-29.0145
 404	1	8	-0.098544	-15.502	-7.82131	-27.8229
 405	1	8	-0.116522	-16.3581	-8.40814	-29.7049
 406	1	7	0.409577	-14.9274	-6.57823	-31.3573
 407	1	8	-0.127323	-15.3044	-5.31746	-31.5242
 408	1	8	-0.131234	-15.8682	-7.4323	-31.8992
 409	1	8	-0.12834	-13.891	-6.72171	-32.1782
 410	1	3	-0.054598	-13.384	-8.00881	-29.8126
 411	1	3	-0.114682	-12.094	-7.76972	-29.2535
 412	1	3	-0.027292	-11.1064	-8.7148	-29.5239
 413	1	3	-0.053307	-13.5745	-9.17304	-30.5914
 414	1	3	-0.12014	-12.5887	-10.1608	-30.7897
 415	1	3	-0.108895	-11.379	-9.90755	-30.1585
 416	1	2	0.53745	-10.1559	-10.7587	-30.1964
 417	1	1	-0.142145	-9.178	-9.99527	-29.5402
 418	1	2	0.571477	-9.68439	-8.75137	-29.1668
 419	1	3	-0.002566	-7.78927	-10.3228	-29.4839
 420	1	3	-0.337427	-6.80422	-9.79021	-30.3693
 421	1	3	0.463101	-5.40799	-9.94424	-30.1097
 422	1	3	-0.077757	-7.35088	-11.1613	-28.4703
 423	1	3	-0.17221	-6.00015	-11.398	-28.1249
 424	1	3	-0.341697	-5.04806	-10.6869	-28.9397
 425	1	2	0.246259	-4.3571	-9.2142	-30.9694
 426	1	6	0.163123	-12.7447	-11.0608	-31.3854
 427	1	6	0.140059	-14.516	-9.34214	-31.0634
 428	1	6	0.184664	-11.8591	-6.93535	-28.6071
 429	1	5	-0.57014	-9.14709	-7.83048	-28.5802
 430	1	5	-0.478504	-10.0289	-11.7575	-30.8591
 431	1	6	0.172599	-5.83665	-12.4786	-28.315
 432	1	6	0.35044	-7.02157	-9.14701	-31.2136
 433	1	6	0.154366	-8.16803	-11.62	-27.8491
 434	1	6	0.237262	-3.99118	-10.6257	-28.6479
 435	1	5	-0.49166	-4.65399	-8.47675	-31.9173
 436	1	9	-0.100187	-3.09449	-9.2469	-30.498
 437	1	3	-0.024347	-15.7761	10.0142	-28.1164
 438	1	3	-0.071478	-16.3859	9.76845	-26.8738
 439	1	3	-0.180016	-17.7918	9.62115	-26.7941
 440	1	5	-0.370097	-15.0481	10.1694	-31.0408
 441	1	3	0.010306	-16.5742	10.2648	-29.2128
 442	1	3	-0.071748	-18.6154	9.82521	-27.8982
 443	1	5	-0.403598	-19.706	10.3332	-30.8043
 444	1	3	0.055994	-17.9627	10.186	-29.115
 445	1	2	0.021521	-16.1691	10.404	-30.6096
 446	1	1	0.466017	-17.3799	10.6426	-31.2779
 447	1	2	0.096621	-18.5116	10.4563	-30.4595
 448	1	3	-0.099438	-16.6468	6.32354	-23.751
 449	1	7	-0.089685	-15.5656	9.50964	-25.5746
 450	1	3	-0.037281	-15.8814	8.05568	-25.2539
 451	1	3	-0.08188	-16.2919	7.64327	-23.9644
 452	1	3	-0.106561	-16.3589	5.34908	-24.7204
 453	1	3	-0.037628	-15.6455	7.02685	-26.2291
 454	1	3	-0.12234	-15.8851	5.69139	-25.9432
 455	1	7	0.388954	-13.972	9.59224	-25.6811
 456	1	7	0.307788	-15.94	10.6009	-24.4947
 457	1	8	-0.129718	-13.3887	9.30661	-24.4985
 458	1	8	-0.129089	-13.4806	10.7725	-26.1544
 459	1	8	-0.119089	-13.4404	8.74683	-26.5421
 460	1	8	-0.103894	-17.2292	10.5557	-24.0862
 461	1	8	-0.097852	-15.8051	11.7431	-25.1581
 462	1	8	-0.104555	-15.2308	10.6555	-23.3125
 463	1	2	0.521254	-15.3712	4.43894	-26.5776
 464	1	2	0.53569	-16.3097	3.91081	-24.5502
 465	1	1	0.027822	-15.6552	3.44567	-25.6677
 466	1	5	-0.468874	-14.8981	4.22921	-27.6919
 467	1	5	-0.477974	-16.8152	3.26774	-23.6499
 468	1	3	-0.359831	-15.1798	2.09821	-25.8872
 469	1	3	0.131035	-13.9325	1.68751	-25.3536
 470	1	3	-0.120983	-13.4511	0.410574	-25.6667
 471	1	3	0.127261	-15.8726	1.30442	-26.811
 472	1	3	-0.127195	-15.3517	0.0532971	-27.2403
 473	1	3	0.144798	-14.1385	-0.375205	-26.6259
 474	1	7	-0.020676	-17.2952	1.66629	-27.2959
 475	1	7	-0.019785	-13.0275	2.64065	-24.5632
 476	1	6	0.164889	-14.7251	10.0272	-28.2262
 477	1	6	0.175264	-18.2888	9.39633	-25.8497
 478	1	6	0.1582	-19.7207	9.73641	-27.8331
 479	1	6	0.150763	-17.0456	5.98013	-22.7801
 480	1	6	0.144868	-16.43	8.33891	-23.1368
 481	1	6	0.134072	-15.2083	7.31662	-27.1919
 482	1	7	-0.300668	-12.1102	-0.0691618	-25.0686
 483	1	7	-0.243237	-16.053	-0.823434	-28.3446
 484	1	11	0.021835	-17.2668	1.9676	-28.3536
 485	1	11	0.012312	-17.8267	2.43826	-26.7219
 486	1	11	0.041777	-17.9667	0.808243	-27.3131
 487	1	11	0.110598	-15.3243	-1.38532	-28.9839
 488	1	11	0.08293	-16.6891	-1.58328	-27.8906
 489	1	11	0.082252	-16.6854	-0.222083	-28.9838
 490	1	11	0.027698	-12.6325	2.17398	-23.6376
 491	1	11	0.017051	-13.5585	3.53837	-24.2876
 492	1	11	0.037874	-12.1773	2.92355	-25.1814
 493	1	11	0.095908	-11.3409	0.709735	-25.0724
 494	1	11	0.127068	-12.2692	-0.296434	-24.0306
 495	1	11	0.099095	-11.607	-0.949016	-25.5342
 496	1	1	0.492035	-6.66677	20.4747	-37.4845
 497	1	2	0.039235	-8.04794	20.8397	-37.6773
 498	1	3	-0.015324	-8.77447	19.555	-37.5661
 499	1	2	0.029964	-6.5196	19.1359	-37.0584
 500	1	3	0.070931	-7.89292	18.6206	-37.0839
 501	1	5	-0.376136	-8.58619	21.8858	-37.9282
 502	1	5	-0.378673	-5.53818	18.4693	-36.7934
 503	1	3	-0.008856	-10.1339	19.2224	-37.7951
 504	1	3	-0.050254	-8.30615	17.3276	-36.8854
 505	1	3	-0.199808	-9.62226	16.9114	-37.1572
 506	1	3	-0.056025	-10.5687	17.8471	-37.6715
 507	1	6	0.163004	-10.7422	19.9666	-38.2545
 508	1	6	0.15778	-7.58444	16.6029	-36.537
 509	1	6	0.172843	-9.81699	15.8352	-37.1084
 510	1	7	-0.082157	-11.9693	17.3173	-38.1184
 511	1	7	0.321766	-12.987	18.4549	-38.4952
 512	1	8	-0.115532	-12.515	19.1384	-39.6069
 513	1	8	-0.098544	-13.1315	19.2643	-37.445
 514	1	8	-0.116522	-14.2156	18.0064	-38.8109
 515	1	7	0.409577	-11.7093	16.3949	-39.3949
 516	1	8	-0.127323	-11.0955	15.2586	-39.0441
 517	1	8	-0.131234	-10.9177	17.1023	-40.219
 518	1	8	-0.12834	-12.7979	16.0479	-40.0809
 519	1	3	-0.054598	-12.5698	16.4291	-36.9464
 520	1	3	-0.114682	-13.4915	15.3925	-37.2604
 521	1	3	-0.027292	-14.048	14.6331	-36.1897
 522	1	3	-0.053307	-12.2631	16.7121	-35.5821
 523	1	3	-0.12014	-12.7444	15.8282	-34.5533
 524	1	3	-0.108895	-13.6602	14.8215	-34.8808
 525	1	2	0.53745	-14.3217	13.7948	-33.9928
 526	1	1	-0.142145	-15.082	12.9505	-34.8285
 527	1	2	0.571477	-14.9911	13.43	-36.1806
 528	1	3	-0.002566	-15.8688	11.8134	-34.3845
 529	1	3	-0.337427	-16.1029	10.7047	-35.226
 530	1	3	0.463101	-16.9708	9.68399	-34.8271
 531	1	3	-0.077757	-16.5184	11.9131	-33.1443
 532	1	3	-0.17221	-17.4057	10.8913	-32.6886
 533	1	3	-0.341697	-17.5293	9.73609	-33.5233
 534	1	2	0.246259	-17.3143	8.46259	-35.6927
 535	1	6	0.163123	-12.4709	15.9304	-33.5047
 536	1	6	0.140059	-11.653	17.5705	-35.3095
 537	1	6	0.184664	-13.8977	15.1816	-38.2808
 538	1	5	-0.57014	-15.5881	13.0226	-37.1522
 539	1	5	-0.478504	-14.2974	13.78	-32.7659
 540	1	6	0.172599	-18.3882	11.3741	-32.6823
 541	1	6	0.35044	-15.6267	10.6417	-36.2003
 542	1	6	0.154366	-16.334	12.7685	-32.4817
 543	1	6	0.237262	-18.1054	8.91066	-33.226
 544	1	5	-0.49166	-18.2038	7.64819	-35.434
 545	1	9	-0.100187	-16.4378	8.30292	-36.7226
 546	1	1	0.492035	-9.35357	24.4608	-48.1588
 547	1	2	0.039235	-8.4884	24.2258	-47.0532
 548	1	3	-0.015324	-7.17285	23.7594	-47.634
 549	1	2	0.029964	-8.74971	24.033	-49.3674
 550	1	3	0.070931	-7.40295	23.6391	-49.0107
 551	1	5	-0.376136	-8.71967	24.3889	-45.8995
 552	1	5	-0.378673	-9.20165	24.1106	-50.4934
 553	1	3	-0.008856	-5.89654	23.57	-47.0517
 554	1	3	-0.050254	-6.42698	23.2064	-49.8988
 555	1	3	-0.199808	-5.17428	22.8877	-49.3138
 556	1	3	-0.056025	-4.90328	23.0606	-47.9357
 557	1	6	0.163004	-5.66142	23.7101	-45.9794
 558	1	6	0.15778	-6.68189	22.9999	-50.9196
 559	1	6	0.172843	-4.38425	22.5416	-49.9498
 560	1	7	-0.082157	-3.4778	22.6861	-47.3506
 561	1	7	0.321766	-2.64045	21.7423	-48.3044
 562	1	8	-0.115532	-3.36443	20.7284	-48.7527
 563	1	8	-0.098544	-2.10517	22.3645	-49.3719
 564	1	8	-0.116522	-1.55579	21.269	-47.6329
 565	1	7	0.409577	-2.65146	24.0315	-47.1984
 566	1	8	-0.127323	-3.15751	24.8807	-46.3092
 567	1	8	-0.131234	-2.67989	24.725	-48.3573
 568	1	8	-0.12834	-1.37058	23.8789	-46.7761
 569	1	3	-0.054598	-3.70512	21.8218	-46.0739
 570	1	3	-0.114682	-3.19851	22.2	-44.8183
 571	1	3	-0.027292	-3.75995	21.6182	-43.6573
 572	1	3	-0.053307	-4.63054	20.723	-46.1894
 573	1	3	-0.12014	-5.08837	20.0794	-44.9965
 574	1	3	-0.108895	-4.65845	20.5704	-43.7336
 575	1	2	0.53745	-5.15397	20.2704	-42.327
 576	1	1	-0.142145	-4.43276	21.1597	-41.4943
 577	1	2	0.571477	-3.60572	22.0123	-42.2151
 578	1	3	-0.002566	-4.38088	21.0585	-40.0854
 579	1	3	-0.337427	-3.22296	20.6104	-39.44
 580	1	3	0.463101	-3.16319	20.5717	-38.0404
 581	1	3	-0.077757	-5.49209	21.3759	-39.2974
 582	1	3	-0.17221	-5.5523	21.2958	-37.875
 583	1	3	-0.341697	-4.32713	20.9071	-37.288
 584	1	2	0.246259	-1.8577	20.2438	-37.4198
 585	1	6	0.163123	-5.85654	19.3759	-45.064
 586	1	6	0.140059	-5.11566	20.5995	-47.191
 587	1	6	0.184664	-2.59606	23.1044	-44.7487
 588	1	5	-0.57014	-2.80135	22.8746	-41.8288
 589	1	5	-0.478504	-5.80727	19.3127	-41.9984
 590	1	6	0.172599	-5.94474	22.1999	-37.3828
 591	1	6	0.35044	-2.2775	20.4615	-40.0135
 592	1	6	0.154366	-6.31883	21.866	-39.7841
 593	1	6	0.237262	-4.24147	20.939	-36.223
 594	1	5	-0.49166	-0.953334	19.6829	-37.9796
 595	1	9	-0.100187	-1.68311	20.6638	-36.1493
 596	1	1	0.492035	-18.4759	16.48	-38.1421
 597	1	2	0.039235	-18.8707	17.8453	-38.1849
 598	1	3	-0.015324	-17.9636	18.5025	-39.205
 599	1	2	0.029964	-17.4701	16.1561	-39.0972
 600	1	3	0.070931	-17.2721	17.4419	-39.8556
 601	1	5	-0.376136	-19.6582	18.5053	-37.5207
 602	1	5	-0.378673	-17.0935	15.0633	-39.4754
 603	1	3	-0.008856	-17.985	19.7919	-39.7853
 604	1	3	-0.050254	-16.5191	17.7352	-40.9575
 605	1	3	-0.199808	-16.4981	19.0418	-41.5481
 606	1	3	-0.056025	-17.2143	20.11	-40.9456
 607	1	6	0.163004	-18.7163	20.5439	-39.404
 608	1	6	0.15778	-15.9494	16.9105	-41.3665
 609	1	6	0.172843	-15.8788	19.1904	-42.4087
 610	1	7	-0.082157	-17.411	21.4628	-41.7274
 611	1	7	0.321766	-18.6703	21.1621	-42.6574
 612	1	8	-0.115532	-19.8246	20.9082	-41.976
 613	1	8	-0.098544	-18.4144	20.2311	-43.6493
 614	1	8	-0.116522	-18.9571	22.2457	-43.3885
 615	1	7	0.409577	-17.8019	22.7255	-40.8337
 616	1	8	-0.127323	-16.7909	23.0956	-39.9774
 617	1	8	-0.131234	-19.0062	22.5883	-40.1653
 618	1	8	-0.12834	-17.984	23.8944	-41.5447
 619	1	3	-0.054598	-16.1668	21.869	-42.5468
 620	1	3	-0.114682	-16.1891	22.3345	-43.9228
 621	1	3	-0.027292	-14.9655	22.8665	-44.4787
 622	1	3	-0.053307	-14.9691	21.9883	-41.8035
 623	1	3	-0.12014	-13.7912	22.4529	-42.4033
 624	1	3	-0.108895	-13.7626	22.8058	-43.7652
 625	1	2	0.53745	-12.6774	23.4858	-44.4857
 626	1	1	-0.142145	-13.2869	23.9599	-45.622
 627	1	2	0.571477	-14.6696	23.7021	-45.6674
 628	1	3	-0.002566	-12.617	24.7303	-46.5628
 629	1	3	-0.337427	-12.8471	26.1155	-46.6064
 630	1	3	0.463101	-11.9239	26.9638	-47.2398