pySIMM System Object

972 atoms
1061 bonds
1867 angles
2834 dihedrals
298 impropers

11 atom types
13 bond types
22 angle types
9 dihedral types
4 improper types

-127.943350 127.943350 xlo xhi
-127.943350 127.943350 ylo yhi
-127.943350 127.943350 zlo zhi

Masses

   1	14.01	# n
   2	12.01	# c
   3	12.01	# ca
   4	1.008	# hn
   5	16.0	# o
   6	1.008	# ha
   7	12.01	# c3
   8	19.0	# f
   9	16.0	# oh
  10	1.008	# ho
  11	1.008	# hc

Pair Coeffs

   1	0.17	3.249998523775958	# n
   2	0.086	3.3996695084235347	# c
   3	0.086	3.3996695084235347	# ca
   4	0.0157	1.069078461768407	# hn
   5	0.21	2.959921901149463	# o
   6	0.015	2.59964245953351	# ha
   7	0.1094	3.3996695084235347	# c3
   8	0.061	3.1181455134911875	# f
   9	0.2104	3.0664733878390478	# oh
  10	0.0047	0.5379246460131368	# ho
  11	0.0157	2.649532787749369	# hc

Bond Coeffs

   1	345.9	1.4906	# c,ca
   2	400.1	1.3513	# c,oh
   3	345.8	1.086	# ca,ha
   4	637.7	1.2183	# c,o
   5	321.0	1.5156	# c3,ca
   6	300.9	1.5375	# c3,c3
   7	384.2	1.4121	# ca,n
   8	403.2	1.0129	# hn,n
   9	356.9	1.3497	# c3,f
  10	371.4	0.973	# ho,oh
  11	427.6	1.3789	# c,n
  12	461.1	1.3984	# ca,ca
  13	330.6	1.0969	# c3,hc

Angle Coeffs

   1	48.33	117.55	# c,n,hn
   2	64.28	120.33	# c,ca,ca
   3	67.68	115.25	# ca,c,n
   4	63.53	120.77	# c3,ca,ca
   5	67.87	120.19	# ca,ca,n
   6	70.89	107.36	# f,c3,f
   7	66.11	109.24	# c3,c3,f
   8	49.88	106.55	# c,oh,ho
   9	62.86	111.51	# c3,c3,c3
  10	63.15	112.07	# c3,c3,ca
  11	63.56	112.24	# ca,c3,ca
  12	63.82	123.71	# c,n,ca
  13	69.15	113.45	# ca,c,oh
  14	63.74	127.08	# c,n,c
  15	48.18	119.88	# ca,ca,ha
  16	74.22	123.05	# n,c,o
  17	75.92	122.1	# o,c,oh
  18	66.62	120.02	# ca,ca,ca
  19	68.72	122.6	# ca,c,o
  20	39.4	107.58	# hc,c3,hc
  21	46.8	110.47	# ca,c3,hc
  22	49.75	116.02	# ha,ca,n

Dihedral Coeffs

   1	1	2.3	2	180	# X,c,oh,X
   2	2	2.5	2	180	2.0	1	0	# hn,n,c,o
   3	1	3.625	2	180	# X,ca,ca,X
   4	2	2.3	2	180	1.9	1	0	# ho,oh,c,o
   5	1	0.15555555555555556	3	0	# X,c3,c3,X
   6	1	0.0	2	0	# X,c3,ca,X
   7	1	1.0	2	180	# X,c,ca,X
   8	1	2.5	2	180	# X,c,n,X
   9	1	0.45	2	180	# X,ca,n,X

Improper Coeffs

   1	1.1	-1	2	# ca,X,X,ha
   2	1.1	-1	2	# n,X,X,hn
   3	1.1	-1	2	# ca,ca,ca,c3
   4	10.5	-1	2	# c,X,X,o

Atoms

   1	1	1	0.492035	60.2278	-2.99466	22.2949
   2	1	2	0.039235	61.229	-2.27444	21.6361
   3	1	3	-0.015324	61.4943	-1.11115	22.5114
   4	1	2	0.029964	59.8443	-2.44858	23.5193
   5	1	3	0.070931	60.6991	-1.22999	23.651
   6	1	5	-0.376136	61.8418	-2.58568	20.6277
   7	1	5	-0.378673	58.9267	-2.78782	24.2577
   8	1	3	-0.008856	62.3437	-0.0167212	22.3009
   9	1	3	-0.050254	60.7278	-0.248153	24.6509
  10	1	3	-0.199808	61.555	0.879443	24.4399
  11	1	3	-0.056025	62.3622	1.04142	23.2699
  12	1	6	0.163004	62.8893	0.0119396	21.3635
  13	1	6	0.15778	60.1168	-0.366123	25.5406
  14	1	6	0.172843	61.554	1.66733	25.1955
  15	1	7	-0.082157	63.1991	2.36734	23.1107
  16	1	7	0.321766	64.4468	2.31933	24.0654
  17	1	8	-0.115532	64.0805	2.38286	25.3787
  18	1	8	-0.098544	65.3287	3.32274	23.8532
  19	1	8	-0.116522	65.1837	1.19599	23.8917
  20	1	7	0.409577	63.7559	2.54347	21.6558
  21	1	8	-0.127323	64.6409	1.56897	21.3021
  22	1	8	-0.131234	64.3676	3.73894	21.4511
  23	1	8	-0.12834	62.7427	2.45194	20.7673
  24	1	3	-0.054598	62.282	3.59403	23.4359
  25	1	3	-0.114682	62.7243	4.66951	24.2359
  26	1	3	-0.027292	61.8188	5.6586	24.6275
  27	1	3	-0.053307	60.9256	3.63639	22.9776
  28	1	3	-0.12014	60.0168	4.6408	23.3771
  29	1	3	-0.108895	60.5032	5.64827	24.2207
  30	1	2	0.53745	59.8399	6.85809	24.8302
  31	1	1	-0.142145	60.833	7.48759	25.5856
  32	1	2	0.571477	62.0453	6.8177	25.5215
  33	1	3	-0.002566	60.6934	8.66973	26.3756
  34	1	3	-0.337427	60.2308	9.87544	25.8163
  35	1	3	0.463101	60.2698	11.0741	26.5501
  36	1	3	-0.077757	61.208	8.67395	27.6953
  37	1	3	-0.17221	61.2491	9.86062	28.4301
  38	1	3	-0.341697	60.7829	11.05	27.8658
  39	1	2	0.246259	59.807	12.3424	25.9147
  40	1	6	0.163123	58.9854	4.64319	23.0336
  41	1	6	0.140059	60.5607	2.85249	22.318
  42	1	6	0.184664	63.7224	4.75584	24.6494
  43	1	5	-0.57014	63.095	7.11175	26.08
  44	1	5	-0.478504	58.6949	7.23653	24.6527
  45	1	6	0.172599	61.6419	9.85086	29.443
  46	1	6	0.35044	59.8353	9.91264	24.8012
  47	1	6	0.154366	61.5695	7.7491	28.1397
  48	1	6	0.237262	60.8427	11.97	28.4415
  49	1	5	-0.49166	59.137	12.343	24.8951
  50	1	9	-0.100187	60.3067	13.5004	26.4625
  51	1	3	-0.024347	53.1496	-12.3472	15.4186
  52	1	3	-0.071478	54.1587	-11.4598	15.8836
  53	1	3	-0.180016	54.0193	-10.0814	15.5817
  54	1	5	-0.370097	50.5518	-13.694	14.223
  55	1	3	0.010306	52.0249	-11.8147	14.7517
  56	1	3	-0.071748	52.8618	-9.576	14.9835
  57	1	5	-0.403598	50.0851	-9.06253	13.8143
  58	1	3	0.055994	51.8847	-10.4628	14.5632
  59	1	2	0.021521	50.7778	-12.4831	14.2458
  60	1	1	0.466017	49.9606	-11.4455	13.7431
  61	1	2	0.096621	50.5477	-10.1826	13.9761
  62	1	3	-0.099438	54.6767	-9.6984	19.7627
  63	1	7	-0.089685	55.4504	-11.904	16.63
  64	1	3	-0.037281	55.6545	-10.9443	17.8459
  65	1	3	-0.08188	54.5452	-10.5894	18.6765
  66	1	3	-0.106561	55.9305	-9.12254	19.9809
  67	1	3	-0.037628	56.9118	-10.3545	18.1356
  68	1	3	-0.12234	57.0097	-9.44048	19.1822
  69	1	7	0.388954	56.5728	-11.8278	15.5342
  70	1	7	0.307788	55.3926	-13.374	17.1848
  71	1	8	-0.129718	56.848	-10.5384	15.1787
  72	1	8	-0.129089	56.155	-12.4338	14.3963
  73	1	8	-0.119089	57.7087	-12.4554	15.9331
  74	1	8	-0.103894	54.229	-13.5466	17.8498
  75	1	8	-0.097852	56.4113	-13.7254	18.0049
  76	1	8	-0.104555	55.4404	-14.2665	16.189
  77	1	2	0.521254	58.1437	-8.56669	19.5673
  78	1	2	0.53569	56.3304	-7.96851	20.8535
  79	1	1	0.027822	57.6218	-7.65809	20.4576
  80	1	5	-0.468874	59.2332	-8.52649	19.0499
  81	1	5	-0.477974	55.6053	-7.30162	21.5758
  82	1	3	-0.359831	58.3076	-6.47824	20.8669
  83	1	3	0.131035	58.0485	-5.24398	20.2294
  84	1	3	-0.120983	58.7275	-4.08104	20.6872
  85	1	3	0.127261	59.2039	-6.57966	21.9477
  86	1	3	-0.127195	59.8772	-5.4207	22.4014
  87	1	3	0.144798	59.6382	-4.1825	21.7623
  88	1	7	-0.020676	59.3795	-7.92892	22.6912
  89	1	7	-0.019785	57.0768	-5.12846	19.0438
  90	1	6	0.164889	53.2141	-13.4203	15.5609
  91	1	6	0.175264	54.7579	-9.35851	15.9306
  92	1	6	0.1582	52.7082	-8.50406	14.8649
  93	1	6	0.150763	53.8102	-9.36813	20.3316
  94	1	6	0.144868	53.5646	-11.008	18.4723
  95	1	6	0.134072	57.8027	-10.5515	17.5462
  96	1	7	-0.300668	58.469	-2.70113	20.0385
  97	1	7	-0.243237	60.7834	-5.51034	23.6436
  98	1	11	0.021835	60.3539	-8.37004	22.4774
  99	1	11	0.012312	58.6397	-8.70732	22.4653
 100	1	11	0.041777	59.3099	-7.78016	23.7776
 101	1	11	0.110598	61.51	-6.321	23.5461
 102	1	11	0.08293	61.3703	-4.61618	23.8871
 103	1	11	0.082252	60.1716	-5.72419	24.534
 104	1	11	0.027698	56.842	-6.07761	18.5577
 105	1	11	0.017051	57.4737	-4.45774	18.2725
 106	1	11	0.037874	56.1262	-4.70253	19.3909
 107	1	11	0.095908	57.409	-2.55734	19.7957
 108	1	11	0.127068	58.7188	-1.83634	20.67
 109	1	11	0.099095	59.0457	-2.59749	19.1215
 110	1	1	0.492035	41.4226	-4.88448	1.44675
 111	1	2	0.039235	41.071	-6.02274	2.17666
 112	1	3	-0.015324	42.2262	-6.28884	3.08114
 113	1	2	0.029964	42.6356	-4.31848	1.88426
 114	1	3	0.070931	43.138	-5.25954	2.92453
 115	1	5	-0.376136	40.0318	-6.67355	2.09799
 116	1	5	-0.378673	43.1684	-3.27383	1.49409
 117	1	3	-0.008856	42.5151	-7.33674	3.96276
 118	1	3	-0.050254	44.3496	-5.2175	3.64135
 119	1	3	-0.199808	44.5972	-6.23199	4.59659
 120	1	3	-0.056025	43.6946	-7.30649	4.78216
 121	1	6	0.163004	41.8325	-8.18519	3.96486
 122	1	6	0.15778	45.0626	-4.42519	3.48772
 123	1	6	0.172843	45.5269	-6.21367	5.14861
 124	1	7	-0.082157	44.2121	-8.57145	5.5559
 125	1	7	0.321766	42.9898	-9.55114	5.87525
 126	1	8	-0.115532	43.2927	-10.406	6.86894
 127	1	8	-0.098544	42.5959	-10.3467	4.84316
 128	1	8	-0.116522	41.9345	-8.84982	6.35897
 129	1	7	0.409577	45.2701	-9.32515	4.62206
 130	1	8	-0.127323	46.3464	-8.54504	4.32703
 131	1	8	-0.131234	45.7774	-10.4098	5.23592
 132	1	8	-0.12834	44.7358	-9.7115	3.40642
 133	1	3	-0.054598	44.7573	-8.18444	6.99262
 134	1	3	-0.114682	45.8309	-8.87896	7.6339
 135	1	3	-0.027292	45.871	-8.93052	9.04656
 136	1	3	-0.053307	43.906	-7.42245	7.82929
 137	1	3	-0.12014	44.0133	-7.399	9.24348
 138	1	3	-0.108895	44.9767	-8.22974	9.83605
 139	1	2	0.53745	45.1837	-8.67642	11.2517
 140	1	1	-0.142145	46.1777	-9.68877	11.181
 141	1	2	0.571477	46.6593	-9.88979	9.87763
 142	1	3	-0.002566	46.6934	-10.4285	12.2905
 143	1	3	-0.337427	45.976	-10.5994	13.4894
 144	1	3	0.463101	46.5247	-11.3058	14.5781
 145	1	3	-0.077757	48.0354	-10.8651	12.2882
 146	1	3	-0.17221	48.5927	-11.6805	13.3116
 147	1	3	-0.341697	47.7841	-11.9121	14.4392
 148	1	2	0.246259	45.8074	-11.4537	15.9013
 149	1	6	0.163123	43.2889	-6.84392	9.83894
 150	1	6	0.140059	43.0921	-6.87738	7.38349
 151	1	6	0.184664	46.5342	-9.51884	7.10698
 152	1	5	-0.57014	47.3294	-10.817	9.4088
 153	1	5	-0.478504	44.524	-8.29562	12.2158
 154	1	6	0.172599	48.8368	-12.6179	12.8108
 155	1	6	0.35044	45.0011	-10.1457	13.6586
 156	1	6	0.154366	48.6606	-10.5856	11.4542
 157	1	6	0.237262	48.1619	-12.4925	15.2818
 158	1	5	-0.49166	44.6034	-11.5876	16.007
 159	1	9	-0.100187	46.5782	-11.2675	17.0091
 160	1	3	-0.024347	34.9987	2.33781	-8.99365
 161	1	3	-0.071478	35.2347	1.99024	-7.63647
 162	1	3	-0.180016	35.9137	2.91693	-6.81397
 163	1	5	-0.370097	34.8073	3.75464	-11.7134
 164	1	3	0.010306	35.4532	3.57875	-9.43989
 165	1	3	-0.071748	36.2927	4.17885	-7.26212
 166	1	5	-0.403598	36.9112	6.73006	-8.78214
 167	1	3	0.055994	36.072	4.4618	-8.5871
 168	1	2	0.021521	35.3492	4.25166	-10.7395
 169	1	1	0.466017	35.8598	5.53848	-10.5583
 170	1	2	0.096621	36.3338	5.75767	-9.25261
 171	1	3	-0.099438	38.4499	-0.231346	-5.82511
 172	1	7	-0.089685	34.7815	0.670884	-6.89026
 173	1	3	-0.037281	35.9612	-0.00199178	-6.04951
 174	1	3	-0.08188	37.2986	0.239627	-6.4911
 175	1	3	-0.106561	38.2495	-0.956155	-4.64864
 176	1	3	-0.037628	35.8173	-0.857946	-4.90319
 177	1	3	-0.12234	36.9734	-1.33532	-4.24745
 178	1	7	0.388954	33.6252	1.03141	-5.9279
 179	1	7	0.307788	34.3028	-0.39077	-7.93347
 180	1	8	-0.129718	34.0499	1.49069	-4.69961
 181	1	8	-0.129089	32.8487	-0.0306232	-5.65767
 182	1	8	-0.119089	32.7834	1.90705	-6.52743
 183	1	8	-0.103894	33.1235	-0.0361238	-8.54507
 184	1	8	-0.097852	34.2139	-1.62659	-7.37923
 185	1	8	-0.104555	35.1866	-0.54591	-8.93948
 186	1	2	0.521254	37.1075	-2.09575	-2.95609
 187	1	2	0.53569	39.2538	-1.47672	-3.65303
 188	1	1	0.027822	38.484	-2.13197	-2.67771
 189	1	5	-0.468874	36.1831	-2.56364	-2.30327
 190	1	5	-0.477974	40.4606	-1.49256	-3.75888
 191	1	3	-0.359831	39.1035	-2.88078	-1.61322
 192	1	3	0.131035	39.7068	-4.14272	-1.86443
 193	1	3	-0.120983	40.5051	-4.79541	-0.851826
 194	1	3	0.127261	39.1821	-2.33575	-0.326288
 195	1	3	-0.127195	39.8951	-3.03429	0.675235
 196	1	3	0.144798	40.5984	-4.24984	0.442617
 197	1	7	-0.020676	38.6248	-0.942545	0.0396246
 198	1	7	-0.019785	39.5683	-4.74563	-3.25526
 199	1	6	0.164889	34.4645	1.69979	-9.68697
 200	1	6	0.175264	36.0946	2.6876	-5.78209
 201	1	6	0.1582	36.7567	4.91581	-6.61633
 202	1	6	0.150763	39.4308	0.00879679	-6.21511
 203	1	6	0.144868	37.4746	0.829408	-7.38887
 204	1	6	0.134072	34.8492	-1.08942	-4.47341
 205	1	7	-0.300668	41.3412	-5.99537	-1.25489
 206	1	7	-0.243237	39.9009	-2.47745	2.11487
 207	1	11	0.021835	37.97	-1.00144	0.921242
 208	1	11	0.012312	38.0759	-0.506636	-0.807065
 209	1	11	0.041777	39.4305	-0.249182	0.273877
 210	1	11	0.110598	40.6574	-1.68854	2.23387
 211	1	11	0.08293	38.917	-2.1174	2.44793
 212	1	11	0.082252	40.1576	-3.23223	2.86183
 213	1	11	0.027698	40.4416	-4.49809	-3.87236
 214	1	11	0.017051	38.6715	-4.40553	-3.76276
 215	1	11	0.037874	39.4379	-5.82531	-3.20171
 216	1	11	0.095908	42.211	-6.14961	-0.587766
 217	1	11	0.127068	40.7102	-6.89712	-1.28584
 218	1	11	0.099095	41.784	-5.87839	-2.27566
 219	1	1	0.492035	20.5662	9.78246	-10.738
 220	1	2	0.039235	21.3309	10.8934	-11.1917
 221	1	3	-0.015324	22.6954	10.2962	-11.6229
 222	1	2	0.029964	21.2937	8.59672	-10.759
 223	1	3	0.070931	22.6757	8.93326	-11.3027
 224	1	5	-0.376136	20.9549	12.0715	-11.2186
 225	1	5	-0.378673	20.9167	7.49241	-10.4106
 226	1	3	-0.008856	23.9198	10.9637	-11.7925
 227	1	3	-0.050254	23.7996	8.1239	-11.2642
 228	1	3	-0.199808	25.0087	8.76972	-11.5949
 229	1	3	-0.056025	25.1136	10.167	-11.8381
 230	1	6	0.163004	23.8694	12.0719	-11.8459
 231	1	6	0.15778	23.7488	7.06762	-10.9913
 232	1	6	0.172843	25.8776	8.12721	-11.6422
 233	1	7	-0.082157	26.4639	10.7898	-12.3544
 234	1	7	0.321766	26.3297	10.5836	-13.9027
 235	1	8	-0.115532	27.3248	11.2529	-14.4978
 236	1	8	-0.098544	25.09	10.947	-14.4234
 237	1	8	-0.116522	26.5023	9.26042	-14.224
 238	1	7	0.409577	26.5307	12.335	-11.9742
 239	1	8	-0.127323	27.7879	12.7863	-12.1271
 240	1	8	-0.131234	25.6735	13.1399	-12.6813
 241	1	8	-0.12834	26.221	12.5825	-10.6943
 242	1	3	-0.054598	27.7729	10.0438	-11.7894
 243	1	3	-0.114682	29.0414	10.1045	-12.4409
 244	1	3	-0.027292	30.1656	9.38511	-11.9234
 245	1	3	-0.053307	27.8486	9.47441	-10.4694
 246	1	3	-0.12014	28.9658	8.75713	-9.952
 247	1	3	-0.108895	30.1244	8.66647	-10.74
 248	1	2	0.53745	31.4946	8.16994	-10.4409
 249	1	1	-0.142145	32.2859	8.56245	-11.5118
 250	1	2	0.571477	31.5732	9.28493	-12.4477
 251	1	3	-0.002566	33.6959	8.2881	-11.5429
 252	1	3	-0.337427	34.6425	9.31697	-11.6715
 253	1	3	0.463101	36.0177	9.06253	-11.6831
 254	1	3	-0.077757	34.1348	6.9665	-11.3258
 255	1	3	-0.17221	35.4981	6.64549	-11.4048
 256	1	3	-0.341697	36.4067	7.73178	-11.4669
 257	1	2	0.246259	37.0025	10.2158	-11.7413
 258	1	6	0.163123	28.9323	8.27957	-8.95687
 259	1	6	0.140059	26.9419	9.48776	-9.88106
 260	1	6	0.184664	29.1815	10.5179	-13.4473
 261	1	5	-0.57014	31.9324	9.56788	-13.5789
 262	1	5	-0.478504	31.8586	7.54724	-9.45683
 263	1	6	0.172599	35.6049	6.02707	-12.3191
 264	1	6	0.35044	34.3833	10.3509	-11.8982
 265	1	6	0.154366	33.3739	6.18021	-11.2151
 266	1	6	0.237262	37.4572	7.54746	-11.2908
 267	1	5	-0.49166	36.7783	11.3363	-12.1345
 268	1	9	-0.100187	38.2583	9.87529	-11.4188
 269	1	3	-0.024347	7.67549	12.998	-6.76196
 270	1	3	-0.071478	8.17659	12.2678	-7.91889
 271	1	3	-0.180016	7.40931	11.1023	-8.26789
 272	1	5	-0.370097	6.19868	14.2619	-4.44551
 273	1	3	0.010306	6.42218	12.6476	-6.22192
 274	1	3	-0.071748	6.17379	10.7505	-7.66991
 275	1	5	-0.403598	3.63846	10.7128	-6.0764
 276	1	3	0.055994	5.72764	11.5174	-6.59342
 277	1	2	0.021521	5.73771	13.3322	-5.12821
 278	1	1	0.466017	4.53766	12.6236	-4.92915
 279	1	2	0.096621	4.50529	11.4914	-5.79167
 280	1	3	-0.099438	11.8363	10.0908	-7.46586
 281	1	7	-0.089685	9.36684	12.8344	-8.7782
 282	1	3	-0.037281	10.6334	11.8769	-8.6588
 283	1	3	-0.08188	10.7049	10.8859	-7.63074
 284	1	3	-0.106561	12.9507	10.3355	-8.30027
 285	1	3	-0.037628	11.7935	12.09	-9.46086
 286	1	3	-0.12234	12.9719	11.3295	-9.262
 287	1	7	0.388954	9.83989	14.2582	-8.24392
 288	1	7	0.307788	8.86699	13.0167	-10.2553
 289	1	8	-0.129718	10.8992	14.8013	-8.91279
 290	1	8	-0.129089	10.2374	14.2145	-6.95975
 291	1	8	-0.119089	8.83159	15.1626	-8.23549
 292	1	8	-0.103894	9.78207	13.5239	-11.062
 293	1	8	-0.097852	7.85872	13.9466	-10.3224
 294	1	8	-0.104555	8.41774	11.9011	-10.8692
 295	1	2	0.521254	14.3695	11.3874	-9.76691
 296	1	2	0.53569	14.2883	9.66205	-8.30185
 297	1	1	0.027822	15.0918	10.3371	-9.1917
 298	1	5	-0.468874	14.7223	12.2059	-10.5928
 299	1	5	-0.477974	14.6178	8.7324	-7.58893
 300	1	3	-0.359831	16.4588	10.0518	-9.53304
 301	1	3	0.131035	17.4924	10.7059	-8.78867
 302	1	3	-0.120983	18.8567	10.5118	-9.15549
 303	1	3	0.127261	16.7813	9.29759	-10.6788
 304	1	3	-0.127195	18.1541	9.13039	-11.0512
 305	1	3	0.144798	19.1751	9.79848	-10.319
 306	1	7	-0.020676	15.6078	8.64951	-11.4539
 307	1	7	-0.019785	17.0991	11.5505	-7.54425
 308	1	6	0.164889	8.09585	13.8677	-6.34519
 309	1	6	0.175264	7.80261	10.441	-9.0446
 310	1	6	0.1582	5.6044	9.90041	-8.01446
 311	1	6	0.150763	11.857	9.26526	-6.75428
 312	1	6	0.144868	9.82791	10.6452	-7.00718
 313	1	6	0.134072	11.8147	12.9119	-10.203
 314	1	7	-0.300668	19.9647	10.8608	-8.17152
 315	1	7	-0.243237	18.4809	8.32065	-12.3218
 316	1	11	0.021835	14.8521	9.42695	-11.6478
 317	1	11	0.012312	15.0944	7.82247	-10.8975
 318	1	11	0.041777	15.9258	8.20915	-12.3944
 319	1	11	0.110598	18.0022	7.32035	-12.2478
 320	1	11	0.08293	18.1276	8.87638	-13.2136
 321	1	11	0.082252	19.5498	8.14063	-12.57
 322	1	11	0.027698	17.8759	12.2915	-7.23195
 323	1	11	0.017051	16.9235	10.9307	-6.68
 324	1	11	0.037874	16.1942	12.1132	-7.80882
 325	1	11	0.095908	20.0995	11.9435	-8.22075
 326	1	11	0.127068	19.7198	10.592	-7.13433
 327	1	11	0.099095	20.9806	10.4469	-8.32558
 328	1	1	0.492035	-6.54929	4.21941	-1.40324
 329	1	2	0.039235	-7.16121	5.46429	-1.63375
 330	1	3	-0.015324	-6.18225	6.43661	-1.03335
 331	1	2	0.029964	-5.24737	4.31923	-0.826769
 332	1	3	0.070931	-5.04387	5.79415	-0.554075
 333	1	5	-0.376136	-8.17161	5.80404	-2.28709
 334	1	5	-0.378673	-4.44484	3.41242	-0.555677
 335	1	3	-0.008856	-6.35991	7.82608	-1.08324
 336	1	3	-0.050254	-3.93277	6.53527	-0.102234
 337	1	3	-0.199808	-4.0553	7.94987	-0.209537
 338	1	3	-0.056025	-5.28842	8.61236	-0.589943
 339	1	6	0.163004	-7.32865	8.22684	-1.36808
 340	1	6	0.15778	-3.08482	6.0427	0.231923
 341	1	6	0.172843	-3.16243	8.54152	0.0296873
 342	1	7	-0.082157	-5.29877	10.1644	-0.649159
 343	1	7	0.321766	-6.65744	10.8535	-1.152
 344	1	8	-0.115532	-7.6786	10.6471	-0.264337
 345	1	8	-0.098544	-7.13062	10.3575	-2.3693
 346	1	8	-0.116522	-6.4115	12.1958	-1.35315
 347	1	7	0.409577	-5.04233	10.7353	0.834817
 348	1	8	-0.127323	-5.97634	10.2276	1.65723
 349	1	8	-0.131234	-5.1664	12.0869	0.95308
 350	1	8	-0.12834	-3.84229	10.4236	1.44957
 351	1	3	-0.054598	-4.19015	10.5089	-1.62811
 352	1	3	-0.114682	-3.23588	11.5202	-1.35709
 353	1	3	-0.027292	-2.08031	11.5642	-2.19846
 354	1	3	-0.053307	-3.97871	9.63657	-2.77611
 355	1	3	-0.12014	-2.84864	9.79057	-3.62298
 356	1	3	-0.108895	-1.87345	10.6902	-3.22069
 357	1	2	0.53745	-0.509374	10.9311	-3.73536
 358	1	1	-0.142145	-0.00333156	12.0124	-3.00229
 359	1	2	0.571477	-0.890737	12.4069	-2.05051
 360	1	3	-0.002566	1.13085	12.8568	-3.39965
 361	1	3	-0.337427	1.00684	14.2869	-3.32388
 362	1	3	0.463101	1.98162	15.1809	-3.80806
 363	1	3	-0.077757	2.36629	12.3709	-3.84569
 364	1	3	-0.17221	3.49308	13.1881	-4.13391
 365	1	3	-0.341697	3.16872	14.5651	-4.38853
 366	1	2	0.246259	1.70712	16.6839	-3.70672
 367	1	6	0.163123	-2.61579	9.15502	-4.47854
 368	1	6	0.140059	-4.66797	8.87288	-3.05785
 369	1	6	0.184664	-3.36091	12.2412	-0.542001
 370	1	5	-0.57014	-0.759889	13.3786	-1.33209
 371	1	5	-0.478504	0.121583	10.2424	-4.49911
 372	1	6	0.172599	4.05698	13.1926	-3.21124
 373	1	6	0.35044	0.0616153	14.7259	-2.92505
 374	1	6	0.154366	2.47219	11.269	-3.90686
 375	1	6	0.237262	3.86604	15.2882	-4.8308
 376	1	5	-0.49166	2.49491	17.5118	-4.03901
 377	1	9	-0.100187	0.525711	17.0832	-3.16436
 378	1	1	0.492035	-16.3537	-3.19441	7.52391
 379	1	2	0.039235	-16.8238	-3.50814	6.2291
 380	1	3	-0.015324	-15.9076	-2.75293	5.37132
 381	1	2	0.029964	-15.167	-2.45197	7.55928
 382	1	3	0.070931	-14.9736	-2.05951	6.17319
 383	1	5	-0.376136	-17.8059	-4.06084	5.82949
 384	1	5	-0.378673	-14.5671	-2.09786	8.55854
 385	1	3	-0.008856	-15.8961	-2.63316	4.00553
 386	1	3	-0.050254	-14.0462	-1.1626	5.66092
 387	1	3	-0.199808	-14.1805	-0.890375	4.2865
 388	1	3	-0.056025	-15.0539	-1.61635	3.42699
 389	1	6	0.163004	-16.6109	-3.19464	3.42489
 390	1	6	0.15778	-13.2981	-0.66319	6.30716
 391	1	6	0.172843	-13.5391	-0.0843356	3.89395
 392	1	7	-0.082157	-14.9753	-1.40221	1.88797
 393	1	7	0.321766	-15.4603	-2.72091	1.10936
 394	1	8	-0.115532	-15.092	-2.47727	-0.181293
 395	1	8	-0.098544	-16.7724	-2.99898	1.05973
 396	1	8	-0.116522	-14.7253	-3.76749	1.48416
 397	1	7	0.409577	-15.8452	-0.144863	1.5463
 398	1	8	-0.127323	-17.1324	-0.392902	1.7383
 399	1	8	-0.131234	-15.8088	0.249501	0.267306
 400	1	8	-0.12834	-15.4639	0.898296	2.34791
 401	1	3	-0.054598	-13.4549	-1.14015	1.54317
 402	1	3	-0.114682	-12.9711	-0.211158	0.580149
 403	1	3	-0.027292	-11.609	-0.0050857	0.441641
 404	1	3	-0.053307	-12.4793	-1.88875	2.22842
 405	1	3	-0.12014	-11.1174	-1.6934	2.12953
 406	1	3	-0.108895	-10.7244	-0.7397	1.19791
 407	1	2	0.53745	-9.3635	-0.334229	0.734084
 408	1	1	-0.142145	-9.48104	0.624404	-0.233561
 409	1	2	0.571477	-10.8336	0.970951	-0.408991
 410	1	3	-0.002566	-8.36148	1.11978	-0.991895
 411	1	3	-0.337427	-7.36526	0.30001	-1.46844
 412	1	3	0.463101	-6.31014	0.723619	-2.22169
 413	1	3	-0.077757	-8.23026	2.4915	-1.20179
 414	1	3	-0.17221	-7.14436	3.0142	-1.96292
 415	1	3	-0.341697	-6.16096	2.09594	-2.45042
 416	1	2	0.246259	-5.26388	-0.324958	-2.42471
 417	1	6	0.163123	-10.3891	-2.22649	2.78178
 418	1	6	0.140059	-12.8457	-2.6377	2.89614
 419	1	6	0.184664	-13.5582	0.307981	-0.146872
 420	1	5	-0.57014	-11.2295	1.81142	-1.21038
 421	1	5	-0.478504	-8.36112	-0.679921	1.3332
 422	1	6	0.172599	-7.58159	3.49618	-2.82503
 423	1	6	0.35044	-7.43266	-0.767723	-1.25513
 424	1	6	0.154366	-9.00956	3.13565	-0.891403
 425	1	6	0.237262	-5.26101	2.40166	-2.95682
 426	1	5	-0.49166	-5.46313	-1.54028	-2.56064
 427	1	9	-0.100187	-4.02222	0.209369	-2.54728
 428	1	3	-0.024347	-27.0862	-6.55116	9.27438
 429	1	3	-0.071478	-26.5039	-6.18716	10.5414
 430	1	3	-0.180016	-26.4654	-4.80022	10.8219
 431	1	5	-0.370097	-28.6875	-6.87971	6.57836
 432	1	3	0.010306	-27.6122	-5.63336	8.41037
 433	1	3	-0.071748	-26.9297	-3.84146	9.90299
 434	1	5	-0.403598	-28.3319	-2.29726	7.65022
 435	1	3	0.055994	-27.5447	-4.3147	8.71814
 436	1	2	0.021521	-28.3522	-5.81949	7.11148
 437	1	1	0.466017	-28.6448	-4.47765	6.71211
 438	1	2	0.096621	-28.1469	-3.53407	7.63844
 439	1	3	-0.099438	-22.5737	-6.81733	13.4878
 440	1	7	-0.089685	-25.9126	-7.25521	11.5595
 441	1	3	-0.037281	-24.4811	-6.81765	11.8969
 442	1	3	-0.08188	-23.9323	-7.10459	13.186
 443	1	3	-0.106561	-21.7323	-6.36155	12.4338
 444	1	3	-0.037628	-23.6092	-6.31232	10.9028
 445	1	3	-0.12234	-22.256	-6.06223	11.1954
 446	1	7	0.388954	-26.9746	-7.43472	12.6906
 447	1	7	0.307788	-25.7101	-8.68444	10.9463
 448	1	8	-0.129718	-28.2007	-7.68273	12.1577
 449	1	8	-0.129089	-27.1555	-6.35635	13.2867
 450	1	8	-0.119089	-26.6513	-8.33922	13.6351
 451	1	8	-0.103894	-26.8347	-9.32099	10.5871
 452	1	8	-0.097852	-25.0224	-9.49893	11.7733
 453	1	8	-0.104555	-25.0215	-8.56562	9.78
 454	1	2	0.521254	-21.1945	-5.43105	10.3657
 455	1	2	0.53569	-20.2455	-6.02606	12.3549
 456	1	1	0.027822	-19.9923	-5.51583	11.0271
 457	1	5	-0.468874	-21.4398	-4.80799	9.37673
 458	1	5	-0.477974	-19.4246	-6.30463	13.2273
 459	1	3	-0.359831	-18.8301	-4.82833	10.4871
 460	1	3	0.131035	-17.7236	-5.58551	9.96906
 461	1	3	-0.120983	-16.7907	-4.97253	9.06943
 462	1	3	0.127261	-18.9866	-3.44725	10.1343
 463	1	3	-0.127195	-18.0497	-2.8299	9.22941
 464	1	3	0.144798	-16.9908	-3.59695	8.74023
 465	1	7	-0.020676	-20.1287	-2.59044	10.7599
 466	1	7	-0.019785	-17.5225	-7.0866	10.3054
 467	1	6	0.164889	-27.1112	-7.58211	8.96336
 468	1	6	0.175264	-26.0238	-4.48379	11.7654
 469	1	6	0.1582	-26.8205	-2.76145	10.0869
 470	1	6	0.150763	-22.1483	-7.00983	14.4654
 471	1	6	0.144868	-24.5279	-7.53361	14.0126
 472	1	6	0.134072	-23.8915	-6.06383	9.89753
 473	1	7	-0.300668	-15.5001	-5.66386	8.51679
 474	1	7	-0.243237	-18.0212	-1.2878	8.89395
 475	1	11	0.021835	-20.9898	-2.48912	10.1479
 476	1	11	0.012312	-19.7862	-1.56076	11.043
 477	1	11	0.041777	-20.4062	-3.15415	11.642
 478	1	11	0.110598	-18.9216	-0.713472	9.17869
 479	1	11	0.08293	-17.1437	-0.740397	9.23056
 480	1	11	0.082252	-17.947	-1.14728	7.84072
 481	1	11	0.027698	-16.4761	-7.38377	10.2771
 482	1	11	0.017051	-18.0124	-7.71026	9.60038
 483	1	11	0.037874	-17.8742	-7.33125	11.3359
 484	1	11	0.095908	-14.8266	-5.12636	7.87071
 485	1	11	0.127068	-14.8564	-6.01331	9.35702
 486	1	11	0.099095	-15.8156	-6.56334	7.90434
 487	1	1	0.492035	-37.4576	-9.45075	6.57752
 488	1	2	0.039235	-37.485	-9.1616	5.20502
 489	1	3	-0.015324	-38.1172	-7.88898	5.10147
 490	1	2	0.029964	-38.0604	-8.36303	7.30126
 491	1	3	0.070931	-38.4283	-7.36116	6.34756
 492	1	5	-0.376136	-37.3094	-10.0149	4.35662
 493	1	5	-0.378673	-38.2139	-8.21643	8.48773
 494	1	3	-0.008856	-38.1688	-7.12255	3.97316
 495	1	3	-0.050254	-38.8092	-6.0012	6.48337
 496	1	3	-0.199808	-39.056	-5.28096	5.27066
 497	1	3	-0.056025	-38.679	-5.81493	4.00066
 498	1	6	0.163004	-37.6751	-7.54429	3.08557
 499	1	6	0.15778	-39.1163	-5.64784	7.44069
 500	1	6	0.172843	-39.3773	-4.23155	5.28526
 501	1	7	-0.082157	-38.4566	-4.98842	2.69975
 502	1	7	0.321766	-38.8667	-3.46441	2.61552
 503	1	8	-0.115532	-38.4074	-2.6487	3.5626
 504	1	8	-0.098544	-40.1752	-3.26984	2.7705
 505	1	8	-0.116522	-38.4626	-2.84525	1.44603
 506	1	7	0.409577	-39.2482	-5.69611	1.54172
 507	1	8	-0.127323	-40.5842	-5.67902	1.84582
 508	1	8	-0.131234	-38.9342	-6.94245	1.28275
 509	1	8	-0.12834	-39.0869	-5.13849	0.308108
 510	1	3	-0.054598	-36.8792	-4.94222	2.44844
 511	1	3	-0.114682	-36.0397	-4.56599	3.51447
 512	1	3	-0.027292	-34.6163	-4.64617	3.31592
 513	1	3	-0.053307	-36.2906	-5.13722	1.14385
 514	1	3	-0.12014	-34.9006	-5.14239	0.965623
 515	1	3	-0.108895	-34.0989	-5.04635	2.10414
 516	1	2	0.53745	-32.6375	-4.99559	2.15228
 517	1	1	-0.142145	-32.3058	-4.50134	3.38293
 518	1	2	0.571477	-33.4249	-4.35321	4.22182
 519	1	3	-0.002566	-30.9129	-4.25843	3.74637
 520	1	3	-0.337427	-30.056	-3.66089	2.82113
 521	1	3	0.463101	-28.6915	-3.64685	3.09061
 522	1	3	-0.077757	-30.3618	-4.6514	5.00409
 523	1	3	-0.17221	-29.153	-4.09782	5.44229
 524	1	3	-0.341697	-28.2319	-3.78272	4.44092
 525	1	2	0.246259	-27.9084	-2.99049	2.01835
 526	1	6	0.163123	-34.4879	-5.25291	0.0062011
 527	1	6	0.140059	-36.842	-5.32183	0.214013
 528	1	6	0.184664	-36.4702	-4.26476	4.47865
 529	1	5	-0.57014	-33.4592	-4.13311	5.39832
 530	1	5	-0.478504	-31.9137	-5.49548	1.28907
 531	1	6	0.172599	-29.5142	-3.10727	5.70747
 532	1	6	0.35044	-30.3344	-3.36945	1.81945
 533	1	6	0.154366	-31.076	-5.12197	5.72542
 534	1	6	0.237262	-27.2135	-3.63527	4.65464
 535	1	5	-0.49166	-28.4152	-2.27842	1.17347
 536	1	9	-0.100187	-26.6028	-2.93435	2.25321
 537	1	1	0.492035	-47.4182	-9.50069	4.66413
 538	1	2	0.039235	-47.5964	-10.4019	5.71353
 539	1	3	-0.015324	-46.2954	-11.0153	6.13496
 540	1	2	0.029964	-46.0311	-9.43128	4.37858
 541	1	3	0.070931	-45.3699	-10.3128	5.40181
 542	1	5	-0.376136	-48.679	-10.7378	6.13761
 543	1	5	-0.378673	-45.5245	-8.66633	3.5997
 544	1	3	-0.008856	-45.9078	-12.0844	6.97028
 545	1	3	-0.050254	-44.0389	-10.604	5.51544
 546	1	3	-0.199808	-43.6136	-11.61	6.46662
 547	1	3	-0.056025	-44.5354	-12.378	7.23979
 548	1	6	0.163004	-46.6702	-12.6228	7.47898
 549	1	6	0.15778	-43.3138	-10.0547	4.91827
 550	1	6	0.172843	-42.498	-11.7415	6.66532
 551	1	7	-0.082157	-44.0409	-13.3668	8.37651
 552	1	7	0.321766	-45.1984	-13.8228	9.38738
 553	1	8	-0.115532	-44.6886	-14.5539	10.4064
 554	1	8	-0.098544	-46.0642	-14.6275	8.77119
 555	1	8	-0.116522	-45.934	-12.7968	9.89536
 556	1	7	0.409577	-43.5438	-14.6124	7.53077
 557	1	8	-0.127323	-42.3586	-14.3772	6.90206
 558	1	8	-0.131234	-44.4055	-14.9719	6.53804
 559	1	8	-0.12834	-43.3218	-15.6822	8.31418
 560	1	3	-0.054598	-42.9991	-12.6933	9.23912
 561	1	3	-0.114682	-41.7669	-13.2578	9.47191
 562	1	3	-0.027292	-40.8026	-12.4966	10.1104
 563	1	3	-0.053307	-43.2699	-11.387	9.77246
 564	1	3	-0.12014	-42.2626	-10.5706	10.3791
 565	1	3	-0.108895	-41.0119	-11.1515	10.4488
 566	1	2	0.53745	-39.6861	-10.4486	10.5847
 567	1	1	-0.142145	-38.8038	-11.4604	10.1295
 568	1	2	0.571477	-39.314	-12.7086	10.0726
 569	1	3	-0.002566	-37.5873	-11.246	9.3784
 570	1	3	-0.337427	-36.4604	-10.7216	10.0544
 571	1	3	0.463101	-35.3906	-10.1932	9.26091
 572	1	3	-0.077757	-37.6341	-11.3203	7.95779
 573	1	3	-0.17221	-36.7359	-10.547	7.19371
 574	1	3	-0.341697	-35.5409	-10.1489	7.86201
 575	1	2	0.246259	-34.2446	-9.41582	9.92834
 576	1	6	0.163123	-42.3867	-9.53946	10.6862
 577	1	6	0.140059	-44.2412	-10.9393	9.54273
 578	1	6	0.184664	-41.4618	-14.2112	9.05838
 579	1	5	-0.57014	-38.7573	-13.771	9.77874
 580	1	5	-0.478504	-39.4914	-9.30707	10.9816
 581	1	6	0.172599	-36.5311	-11.038	6.28283
 582	1	6	0.35044	-36.4692	-10.6516	11.147
 583	1	6	0.154366	-38.5308	-11.6992	7.52954
 584	1	6	0.237262	-34.759	-9.83001	7.17439
 585	1	5	-0.49166	-34.2117	-9.16987	11.1314
 586	1	9	-0.100187	-33.4151	-8.83442	9.09537
 587	1	1	0.492035	-54.0367	-4.33774	10.189
 588	1	2	0.039235	-53.5914	-5.65554	10.06
 589	1	3	-0.015324	-54.8434	-6.41538	9.7655
 590	1	2	0.029964	-55.4005	-4.14218	9.9136
 591	1	3	0.070931	-55.9059	-5.52517	9.70993
 592	1	5	-0.376136	-52.4182	-6.0686	10.2314
 593	1	5	-0.378673	-56.0615	-3.12834	10.0812
 594	1	3	-0.008856	-55.0644	-7.77873	9.70521
 595	1	3	-0.050254	-57.226	-5.97467	9.62514
 596	1	3	-0.199808	-57.4155	-7.36862	9.60564
 597	1	3	-0.056025	-56.3316	-8.32882	9.52588
 598	1	6	0.163004	-54.2018	-8.41528	9.81556
 599	1	6	0.15778	-58.059	-5.32374	9.70345
 600	1	6	0.172843	-58.4412	-7.74145	9.49368
 601	1	7	-0.082157	-56.5095	-9.86792	9.23035
 602	1	7	0.321766	-56.3745	-10.6867	10.5756
 603	1	8	-0.115532	-56.8984	-9.96823	11.6192
 604	1	8	-0.098544	-55.0962	-10.9657	10.9419
 605	1	8	-0.116522	-57.0443	-11.8592	10.5428
 606	1	7	0.409577	-57.9244	-10.0861	8.52389
 607	1	8	-0.127323	-58.9961	-9.91152	9.38672
 608	1	8	-0.131234	-58.0405	-11.364	8.09234
 609	1	8	-0.12834	-58.0831	-9.25598	7.45921
 610	1	3	-0.054598	-55.5309	-10.3406	8.10579
 611	1	3	-0.114682	-54.8535	-9.3508	7.28883
 612	1	3	-0.027292	-53.8056	-9.68233	6.44202
 613	1	3	-0.053307	-55.2264	-11.713	7.80204
 614	1	3	-0.12014	-54.224	-12.0194	6.80768
 615	1	3	-0.108895	-53.4889	-10.9763	6.23527
 616	1	2	0.53745	-52.3981	-10.9367	5.23348
 617	1	1	-0.142145	-52.062	-9.58959	5.01475
 618	1	2	0.571477	-52.8179	-8.78442	5.79133
 619	1	3	-0.002566	-50.9557	-9.18734	4.15924
 620	1	3	-0.337427	-50.9833	-9.69832	2.85872
 621	1	3	0.463101	-49.8094	-9.66745	2.04117
 622	1	3	-0.077757	-49.7148	-8.68016	4.66004
 623	1	3	-0.17221	-48.4731	-8.75819	3.95318
 624	1	3	-0.341697	-48.5848	-9.15442	2.62362
 625	1	2	0.246259	-49.7902	-10.1251	0.592805
 626	1	6	0.163123	-53.9866	-13.0275	6.5502
 627	1	6	0.140059	-55.7302	-12.5624	8.29925
 628	1	6	0.184664	-55.0139	-8.29306	7.41546
 629	1	5	-0.57014	-52.7813	-7.56674	5.90939
 630	1	5	-0.478504	-51.944	-11.8544	4.5782
 631	1	6	0.172599	-47.9531	-7.83725	4.08125
 632	1	6	0.35044	-51.8907	-10.1136	2.50815
 633	1	6	0.154366	-49.6752	-8.4283	5.71356
 634	1	6	0.237262	-47.6772	-9.12109	1.99299