pySIMM System Object

2221 atoms
2425 bonds
4273 angles
6484 dihedrals
678 impropers

11 atom types
13 bond types
22 angle types
9 dihedral types
4 improper types

-168.340328 168.340328 xlo xhi
-168.340328 168.340328 ylo yhi
-168.340328 168.340328 zlo zhi

Masses

   1	14.01	# n
   2	12.01	# c
   3	12.01	# ca
   4	1.008	# hn
   5	16.0	# o
   6	1.008	# ha
   7	12.01	# c3
   8	19.0	# f
   9	16.0	# oh
  10	1.008	# ho
  11	1.008	# hc

Pair Coeffs

   1	0.17	3.249998523775958	# n
   2	0.086	3.3996695084235347	# c
   3	0.086	3.3996695084235347	# ca
   4	0.0157	1.069078461768407	# hn
   5	0.21	2.959921901149463	# o
   6	0.015	2.59964245953351	# ha
   7	0.1094	3.3996695084235347	# c3
   8	0.061	3.1181455134911875	# f
   9	0.2104	3.0664733878390478	# oh
  10	0.0047	0.5379246460131368	# ho
  11	0.0157	2.649532787749369	# hc

Bond Coeffs

   1	345.9	1.4906	# c,ca
   2	400.1	1.3513	# c,oh
   3	345.8	1.086	# ca,ha
   4	637.7	1.2183	# c,o
   5	321.0	1.5156	# c3,ca
   6	300.9	1.5375	# c3,c3
   7	384.2	1.4121	# ca,n
   8	403.2	1.0129	# hn,n
   9	356.9	1.3497	# c3,f
  10	371.4	0.973	# ho,oh
  11	427.6	1.3789	# c,n
  12	461.1	1.3984	# ca,ca
  13	330.6	1.0969	# c3,hc

Angle Coeffs

   1	48.33	117.55	# c,n,hn
   2	64.28	120.33	# c,ca,ca
   3	67.68	115.25	# ca,c,n
   4	63.53	120.77	# c3,ca,ca
   5	67.87	120.19	# ca,ca,n
   6	70.89	107.36	# f,c3,f
   7	66.11	109.24	# c3,c3,f
   8	49.88	106.55	# c,oh,ho
   9	62.86	111.51	# c3,c3,c3
  10	63.15	112.07	# c3,c3,ca
  11	63.56	112.24	# ca,c3,ca
  12	63.82	123.71	# c,n,ca
  13	69.15	113.45	# ca,c,oh
  14	63.74	127.08	# c,n,c
  15	48.18	119.88	# ca,ca,ha
  16	74.22	123.05	# n,c,o
  17	75.92	122.1	# o,c,oh
  18	66.62	120.02	# ca,ca,ca
  19	68.72	122.6	# ca,c,o
  20	39.4	107.58	# hc,c3,hc
  21	46.8	110.47	# ca,c3,hc
  22	49.75	116.02	# ha,ca,n

Dihedral Coeffs

   1	1	2.3	2	180	# X,c,oh,X
   2	2	2.5	2	180	2.0	1	0	# hn,n,c,o
   3	1	3.625	2	180	# X,ca,ca,X
   4	2	2.3	2	180	1.9	1	0	# ho,oh,c,o
   5	1	0.15555555555555556	3	0	# X,c3,c3,X
   6	1	0.0	2	0	# X,c3,ca,X
   7	1	1.0	2	180	# X,c,ca,X
   8	1	2.5	2	180	# X,c,n,X
   9	1	0.45	2	180	# X,ca,n,X

Improper Coeffs

   1	1.1	-1	2	# ca,X,X,ha
   2	1.1	-1	2	# n,X,X,hn
   3	1.1	-1	2	# ca,ca,ca,c3
   4	10.5	-1	2	# c,X,X,o

Atoms

   1	1	1	0.492035	7.13948	-163.488	24.1423
   2	1	2	0.039235	5.90073	-163.109	23.6203
   3	1	3	-0.015324	5.43452	-162.022	24.5156
   4	1	2	0.029964	7.53143	-162.723	25.2386
   5	1	3	0.070931	6.39817	-161.793	25.4765
   6	1	5	-0.376136	5.27171	-163.607	22.6983
   7	1	5	-0.378673	8.52088	-162.86	25.9394
   8	1	3	-0.008856	4.21069	-161.351	24.5309
   9	1	3	-0.050254	6.18883	-160.863	26.5011
  10	1	3	-0.199808	4.96651	-160.151	26.518
  11	1	3	-0.056025	3.94525	-160.405	25.5543
  12	1	6	0.163004	3.47985	-161.58	23.7594
  13	1	6	0.15778	6.95291	-160.704	27.2607
  14	1	6	0.172843	4.81979	-159.421	27.3068
  15	1	7	-0.082157	2.58263	-159.652	25.5198
  16	1	7	0.321766	2.14243	-159.028	26.9013
  17	1	8	-0.115532	2.21404	-159.928	27.9078
  18	1	8	-0.098544	0.858354	-158.588	26.8752
  19	1	8	-0.116522	2.90732	-157.976	27.2671
  20	1	7	0.409577	2.75956	-158.492	24.4659
  21	1	8	-0.127323	1.71919	-157.629	24.4536
  22	1	8	-0.131234	2.90365	-158.972	23.2089
  23	1	8	-0.12834	3.87028	-157.757	24.7022
  24	1	3	-0.054598	1.46971	-160.676	25.1409
  25	1	3	-0.114682	1.40297	-161.907	25.8481
  26	1	3	-0.027292	0.37056	-162.807	25.5493
  27	1	3	-0.053307	0.486247	-160.413	24.1412
  28	1	3	-0.12014	-0.520412	-161.345	23.835
  29	1	3	-0.108895	-0.55486	-162.53	24.567
  30	1	2	0.53745	-1.5176	-163.647	24.4985
  31	1	1	-0.142145	-1.13471	-164.539	25.4853
  32	1	2	0.571477	0.00192582	-164.114	26.1605
  33	1	3	-0.002566	-1.8649	-165.716	25.7843
  34	1	3	-0.337427	-2.24365	-165.997	27.1083
  35	1	3	0.463101	-3.04523	-167.108	27.4154
  36	1	3	-0.077757	-2.27983	-166.569	24.7453
  37	1	3	-0.17221	-3.07543	-167.686	25.0306
  38	1	3	-0.341697	-3.457	-167.949	26.3581
  39	1	2	0.246259	-3.45876	-167.335	28.8516
  40	1	6	0.163123	-1.26545	-161.144	23.0682
  41	1	6	0.140059	0.477033	-159.484	23.5835
  42	1	6	0.184664	2.11425	-162.153	26.6351
  43	1	5	-0.57014	0.543998	-164.651	27.1102
  44	1	5	-0.478504	-2.45371	-163.739	23.727
  45	1	6	0.172599	-3.40906	168.349	24.2197
  46	1	6	0.35044	-1.92527	-165.363	27.9323
  47	1	6	0.154366	-2.00618	-166.352	23.7128
  48	1	6	0.237262	-4.08803	167.875	26.5714
  49	1	5	-0.49166	-3.15995	-166.565	29.7548
  50	1	9	-0.100187	-4.22043	168.25	29.0792
  51	1	3	-0.024347	13.3893	162.05	18.4098
  52	1	3	-0.071478	12.6461	162.657	19.456
  53	1	3	-0.180016	11.3879	162.092	19.8051
  54	1	5	-0.370097	14.4181	160.389	15.9887
  55	1	3	0.010306	12.84	160.953	17.739
  56	1	3	-0.071748	10.8562	160.98	19.1227
  57	1	5	-0.403598	10.2035	158.746	17.0999
  58	1	3	0.055994	11.6063	160.439	18.0765
  59	1	2	0.021521	13.3541	160.206	16.562
  60	1	1	0.466017	12.3326	159.318	16.2106
  61	1	2	0.096621	11.2595	159.362	17.1158
  62	1	3	-0.099438	10.1003	166.095	19.3536
  63	1	7	-0.089685	13.1683	163.884	20.2601
  64	1	3	-0.037281	12.0364	164.943	20.3735
  65	1	3	-0.08188	11.1205	165.126	19.2995
  66	1	3	-0.106561	10.042	166.916	20.4826
  67	1	3	-0.037628	11.959	165.823	21.483
  68	1	3	-0.12234	10.9626	166.802	21.5012
  69	1	7	0.388954	13.597	163.303	21.664
  70	1	7	0.307788	14.3789	164.631	19.5681
  71	1	8	-0.129718	12.5098	163.018	22.4204
  72	1	8	-0.129089	14.3805	164.136	22.3805
  73	1	8	-0.119089	14.2883	162.145	21.5443
  74	1	8	-0.103894	14.6707	165.812	20.1609
  75	1	8	-0.097852	14.1007	164.936	18.2791
  76	1	8	-0.104555	15.5237	163.913	19.5762
  77	1	2	0.521254	10.7112	167.889	22.4804
  78	1	2	0.53569	9.14932	168.061	20.7874
  79	1	1	0.027822	9.62503	-168.079	21.9797
  80	1	5	-0.468874	11.3918	168.141	23.4604
  81	1	5	-0.477974	8.21004	-168.251	20.1043
  82	1	3	-0.359831	9.07379	-166.911	22.6068
  83	1	3	0.131035	8.07891	-167.06	23.6012
  84	1	3	-0.120983	7.49051	-165.905	24.1641
  85	1	3	0.127261	9.52911	-165.627	22.2198
  86	1	3	-0.127195	8.89633	-164.472	22.7342
  87	1	3	0.144798	7.86166	-164.624	23.6865
  88	1	7	-0.020676	10.7263	-165.482	21.2728
  89	1	7	-0.019785	7.58631	168.229	24.0274
  90	1	6	0.164889	14.3605	162.41	18.0893
  91	1	6	0.175264	10.8032	162.528	20.6122
  92	1	6	0.1582	9.88124	160.568	19.3734
  93	1	6	0.150763	9.40006	166.225	18.5311
  94	1	6	0.144868	11.1976	164.517	18.405
  95	1	6	0.134072	12.6682	165.79	22.3027
  96	1	7	-0.300668	6.3563	-166.035	25.195
  97	1	7	-0.243237	9.36413	-163.073	22.3005
  98	1	11	0.021835	11.394	-164.675	21.6012
  99	1	11	0.012312	10.3963	-165.254	20.2516
 100	1	11	0.041777	11.3539	-166.378	21.2311
 101	1	11	0.110598	10.1797	-162.725	22.9484
 102	1	11	0.08293	9.72901	-163.056	21.2659
 103	1	11	0.082252	8.5644	-162.324	22.3362
 104	1	11	0.027698	7.77677	168.052	25.0943
 105	1	11	0.017051	8.05429	167.397	23.4877
 106	1	11	0.037874	6.5051	168.134	23.8564
 107	1	11	0.095908	6.37326	-165.232	25.9404
 108	1	11	0.127068	5.37675	-166.016	24.696
 109	1	11	0.099095	6.40668	-166.96	25.7805
 110	1	1	0.492035	11.9607	-166.229	10.278
 111	1	2	0.039235	11.5425	-167.403	10.916
 112	1	3	-0.015324	10.7655	-168.155	9.89388
 113	1	2	0.029964	11.595	-166.203	8.92689
 114	1	3	0.070931	10.7874	-167.429	8.72168
 115	1	5	-0.376136	11.7151	-167.73	12.0785
 116	1	5	-0.378673	11.8347	-165.354	8.08212
 117	1	3	-0.008856	10.0699	167.311	9.98842
 118	1	3	-0.050254	10.0962	-167.862	7.58941
 119	1	3	-0.199808	9.38072	167.606	7.66663
 120	1	3	-0.056025	9.35833	166.82	8.85772
 121	1	6	0.163004	10.0802	166.768	10.9303
 122	1	6	0.15778	10.1093	-167.269	6.67772
 123	1	6	0.172843	8.84922	167.3	6.77215
 124	1	7	-0.082157	8.54903	165.485	8.98643
 125	1	7	0.321766	7.32939	165.802	9.93893
 126	1	8	-0.115532	6.72072	166.964	9.61725
 127	1	8	-0.098544	7.71123	165.91	11.2329
 128	1	8	-0.116522	6.36364	164.861	9.90533
 129	1	7	0.409577	8.00803	164.931	7.60771
 130	1	8	-0.127323	7.42928	163.715	7.73556
 131	1	8	-0.131234	9.01173	164.752	6.72069
 132	1	8	-0.12834	7.08985	165.736	7.02193
 133	1	3	-0.054598	9.4679	164.367	9.57473
 134	1	3	-0.114682	8.95637	163.308	10.3746
 135	1	3	-0.027292	9.84374	162.357	10.9
 136	1	3	-0.053307	10.8607	164.364	9.2805
 137	1	3	-0.12014	11.7357	163.393	9.81001
 138	1	3	-0.108895	11.1937	162.398	10.6308
 139	1	2	0.53745	11.8511	161.293	11.3818
 140	1	1	-0.142145	10.8404	160.66	12.1032
 141	1	2	0.571477	9.60195	161.239	11.8519
 142	1	3	-0.002566	11.0369	159.597	13.0412
 143	1	3	-0.337427	10.1225	158.533	13.1372
 144	1	3	0.463101	10.3282	157.474	14.0387
 145	1	3	-0.077757	12.1367	159.617	13.9159
 146	1	3	-0.17221	12.3153	158.651	14.9318
 147	1	3	-0.341697	11.4661	157.519	14.8745
 148	1	2	0.246259	9.37286	156.299	14.0493
 149	1	6	0.163123	12.8019	163.415	9.59247
 150	1	6	0.140059	11.2824	165.124	8.62897
 151	1	6	0.184664	7.90403	163.219	10.6297
 152	1	5	-0.57014	8.53407	160.957	12.3661
 153	1	5	-0.478504	13.0465	161.057	11.3922
 154	1	6	0.172599	13.3587	158.346	14.9996
 155	1	6	0.35044	9.23085	158.492	12.5128
 156	1	6	0.154366	12.8424	160.447	13.8525
 157	1	6	0.237262	11.629	156.698	15.5699
 158	1	5	-0.49166	8.43975	156.194	13.2687
 159	1	9	-0.100187	9.6335	155.33	14.9595
 160	1	1	0.492035	5.87816	-152.466	8.21685
 161	1	2	0.039235	6.73369	-153.018	7.2497
 162	1	3	-0.015324	7.81405	-153.681	8.0103
 163	1	2	0.029964	6.32541	-152.737	9.52029
 164	1	3	0.070931	7.5751	-153.52	9.35563
 165	1	5	-0.376136	6.63558	-153.035	6.03365
 166	1	5	-0.378673	5.80222	-152.441	10.5844
 167	1	3	-0.008856	8.90822	-154.402	7.53319
 168	1	3	-0.050254	8.41635	-154.091	10.3128
 169	1	3	-0.199808	9.50972	-154.855	9.85525
 170	1	3	-0.056025	9.77393	-155.034	8.46701
 171	1	6	0.163004	9.0299	-154.481	6.45866
 172	1	6	0.15778	8.21388	-153.959	11.3742
 173	1	6	0.172843	10.1575	-155.322	10.5956
 174	1	7	-0.082157	10.9694	-155.935	8.0399
 175	1	7	0.321766	10.9173	-156.338	6.51788
 176	1	8	-0.115532	11.8206	-157.293	6.21412
 177	1	8	-0.098544	11.1567	-155.306	5.67409
 178	1	8	-0.116522	9.71263	-156.864	6.20479
 179	1	7	0.409577	12.2892	-155.109	8.31751
 180	1	8	-0.127323	12.502	-154.922	9.63861
 181	1	8	-0.131234	12.2283	-153.877	7.76496
 182	1	8	-0.12834	13.4086	-155.675	7.82349
 183	1	3	-0.054598	10.8807	-157.274	8.8365
 184	1	3	-0.114682	12.0386	-158.031	9.14665
 185	1	3	-0.027292	11.8908	-159.268	9.78071
 186	1	3	-0.053307	9.60751	-157.83	9.16382
 187	1	3	-0.12014	9.48354	-159.062	9.83718
 188	1	3	-0.108895	10.6563	-159.765	10.1281
 189	1	2	0.53745	10.849	-161.134	10.6724
 190	1	1	-0.142145	12.2167	-161.402	10.5747
 191	1	2	0.571477	12.9127	-160.299	10.0923
 192	1	3	-0.002566	12.8185	-162.674	10.8475
 193	1	3	-0.337427	14.1394	-162.793	11.3201
 194	1	3	0.463101	14.7455	-164.051	11.4911
 195	1	3	-0.077757	12.0997	-163.853	10.5945
 196	1	3	-0.17221	12.58	-165.127	10.9665
 197	1	3	-0.341697	13.969	-165.209	11.2491
 198	1	2	0.246259	16.1936	-164.109	11.9336
 199	1	6	0.163123	8.50712	-159.487	10.065
 200	1	6	0.140059	8.69353	-157.315	8.87823
 201	1	6	0.184664	13.0394	-157.721	8.86708
 202	1	5	-0.57014	14.1142	-160.182	9.92393
 203	1	5	-0.478504	9.95554	-161.87	11.0564
 204	1	6	0.172599	12.1158	-165.29	11.937
 205	1	6	0.35044	14.7589	-161.915	11.4967
 206	1	6	0.154366	11.107	-163.783	10.1503
 207	1	6	0.237262	14.4345	-166.185	11.3746
 208	1	5	-0.49166	16.8548	-163.11	12.1676
 209	1	9	-0.100187	16.7253	-165.347	12.0586
 210	1	1	0.492035	-7.05157	-147.409	2.56689
 211	1	2	0.039235	-6.86936	-148.67	1.9808
 212	1	3	-0.015324	-5.45434	-149.028	2.22804
 213	1	2	0.029964	-5.89073	-146.962	3.21681
 214	1	3	0.070931	-4.88785	-148.03	2.98518
 215	1	5	-0.376136	-7.69563	-149.371	1.42016
 216	1	5	-0.378673	-5.69307	-145.929	3.83855
 217	1	3	-0.008856	-4.7139	-150.132	1.78741
 218	1	3	-0.050254	-3.56616	-148.123	3.42004
 219	1	3	-0.199808	-2.81878	-149.257	3.04426
 220	1	3	-0.056025	-3.35448	-150.26	2.1806
 221	1	6	0.163004	-5.20862	-150.871	1.16528
 222	1	6	0.15778	-3.14189	-147.342	4.04609
 223	1	6	0.172843	-1.80923	-149.329	3.43646
 224	1	7	-0.082157	-2.50398	-151.491	1.73921
 225	1	7	0.321766	-2.65834	-151.771	0.190466
 226	1	8	-0.115532	-2.66539	-150.627	-0.528859
 227	1	8	-0.098544	-3.79933	-152.412	-0.139329
 228	1	8	-0.116522	-1.64867	-152.536	-0.283931
 229	1	7	0.409577	-3.0517	-152.735	2.55174
 230	1	8	-0.127323	-3.00674	-152.498	3.88103
 231	1	8	-0.131234	-2.34724	-153.863	2.29907
 232	1	8	-0.12834	-4.35336	-153.024	2.31987
 233	1	3	-0.054598	-0.990795	-151.192	2.04336
 234	1	3	-0.114682	-0.292634	-151.863	3.08154
 235	1	3	-0.027292	0.969677	-151.417	3.47165
 236	1	3	-0.053307	-0.311422	-150.113	1.39627
 237	1	3	-0.12014	0.973039	-149.678	1.80525
 238	1	3	-0.108895	1.58526	-150.339	2.87964
 239	1	2	0.53745	2.76818	-149.981	3.72211
 240	1	1	-0.142145	2.76637	-150.887	4.78376
 241	1	2	0.571477	1.74632	-151.819	4.66648
 242	1	3	-0.002566	3.50851	-150.727	5.99346
 243	1	3	-0.337427	3.45906	-149.492	6.6477
 244	1	3	0.463101	3.99741	-149.319	7.92607
 245	1	3	-0.077757	4.13177	-151.814	6.639
 246	1	3	-0.17221	4.67909	-151.707	7.94455
 247	1	3	-0.341697	4.6362	-150.417	8.54079
 248	1	2	0.246259	3.81021	-147.985	8.6052
 249	1	6	0.163123	1.43564	-148.8	1.35973
 250	1	6	0.140059	-0.812719	-149.545	0.620629
 251	1	6	0.184664	-0.710294	-152.676	3.66207
 252	1	5	-0.57014	1.41419	-152.672	5.47352
 253	1	5	-0.478504	3.42432	-148.957	3.63797
 254	1	6	0.172599	4.08585	-152.37	8.57279
 255	1	6	0.35044	2.96817	-148.633	6.19333
 256	1	6	0.154366	4.11565	-152.784	6.14199
 257	1	6	0.237262	5.03894	-150.272	9.54261
 258	1	5	-0.49166	3.11793	-147.096	8.13336
 259	1	9	-0.100187	4.43088	-147.831	9.7969
 260	1	1	0.492035	-10.7945	-136.502	-6.51131
 261	1	2	0.039235	-11.8591	-137.35	-6.20472
 262	1	3	-0.015324	-11.2515	-138.695	-6.09396
 263	1	2	0.029964	-9.56862	-137.163	-6.58541
 264	1	3	0.070931	-9.8857	-138.572	-6.25165
 265	1	5	-0.376136	-13.0092	-137.05	-5.92665
 266	1	5	-0.378673	-8.48215	-136.717	-6.92012
 267	1	3	-0.008856	-11.8699	-139.939	-5.94546
 268	1	3	-0.050254	-9.04261	-139.675	-6.11987
 269	1	3	-0.199808	-9.64017	-140.933	-5.89592
 270	1	3	-0.056025	-11.0571	-141.098	-5.87137
 271	1	6	0.163004	-12.9534	-139.976	-5.93817
 272	1	6	0.15778	-7.96454	-139.559	-6.21746
 273	1	6	0.172843	-8.99072	-141.803	-5.83274
 274	1	7	-0.082157	-11.6608	-142.531	-5.91985
 275	1	7	0.321766	-13.1936	-142.605	-5.5224
 276	1	8	-0.115532	-13.4643	-141.894	-4.40421
 277	1	8	-0.098544	-13.5606	-143.879	-5.25717
 278	1	8	-0.116522	-14.0417	-142.157	-6.47588
 279	1	7	0.409577	-11.5143	-142.992	-7.42339
 280	1	8	-0.127323	-12.076	-144.2	-7.64493
 281	1	8	-0.131234	-10.2227	-143.06	-7.82012
 282	1	8	-0.12834	-12.0832	-142.128	-8.29132
 283	1	3	-0.054598	-10.8864	-143.443	-4.91132
 284	1	3	-0.114682	-10.9746	-143.167	-3.521
 285	1	3	-0.027292	-10.2724	-143.967	-2.61324
 286	1	3	-0.053307	-10.0784	-144.55	-5.31194
 287	1	3	-0.12014	-9.35996	-145.327	-4.37744
 288	1	3	-0.108895	-9.47464	-145.006	-3.02246
 289	1	2	0.53745	-8.83122	-145.602	-1.82069
 290	1	1	-0.142145	-9.30857	-144.873	-0.723076
 291	1	2	0.571477	-10.1981	-143.88	-1.1374
 292	1	3	-0.002566	-8.9568	-145.102	0.652961
 293	1	3	-0.337427	-8.99519	-144.057	1.59695
 294	1	3	0.463101	-8.73307	-144.282	2.95601
 295	1	3	-0.077757	-8.59981	-146.386	1.10686
 296	1	3	-0.17221	-8.28227	-146.666	2.45434
 297	1	3	-0.341697	-8.42718	-145.593	3.3682
 298	1	2	0.246259	-8.78429	-143.128	3.92937
 299	1	6	0.163123	-8.73418	-146.159	-4.69533
 300	1	6	0.140059	-9.99138	-144.849	-6.34998
 301	1	6	0.184664	-11.5487	-142.333	-3.13098
 302	1	5	-0.57014	-10.8067	-143.069	-0.460627
 303	1	5	-0.478504	-8.00146	-146.498	-1.84658
 304	1	6	0.172599	-8.87107	-147.517	2.79326
 305	1	6	0.35044	-9.25591	-143.037	1.32038
 306	1	6	0.154366	-8.59358	-147.211	0.396611
 307	1	6	0.237262	-8.20883	-145.76	4.42134
 308	1	5	-0.49166	-9.13857	-142.007	3.60436
 309	1	9	-0.100187	-8.35829	-143.392	5.18735
 310	1	1	0.492035	-18.4314	-126.807	-17.1382
 311	1	2	0.039235	-18.44	-126.958	-15.7559
 312	1	3	-0.015324	-17.5432	-128.104	-15.4953
 313	1	2	0.029964	-17.6008	-127.73	-17.7825
 314	1	3	0.070931	-17.0314	-128.57	-16.6845
 315	1	5	-0.376136	-19.0982	-126.361	-14.9176
 316	1	5	-0.378673	-17.4338	-127.882	-18.982
 317	1	3	-0.008856	-17.3199	-128.749	-14.2866
 318	1	3	-0.050254	-16.179	-129.684	-16.6996
 319	1	3	-0.199808	-15.8894	-130.325	-15.47
 320	1	3	-0.056025	-16.4981	-129.904	-14.2525
 321	1	6	0.163004	-17.8672	-128.363	-13.4354
 322	1	6	0.15778	-15.7725	-130.048	-17.6423
 323	1	6	0.172843	-15.2615	-131.213	-15.4824
 324	1	7	-0.082157	-16.4519	-130.815	-12.9894
 325	1	7	0.321766	-17.1019	-130.121	-11.7227
 326	1	8	-0.115532	-16.616	-128.875	-11.5256
 327	1	8	-0.098544	-18.4464	-130.019	-11.8068
 328	1	8	-0.116522	-16.8492	-130.781	-10.5725
 329	1	7	0.409577	-17.3109	-132.089	-13.3665
 330	1	8	-0.127323	-17.6693	-132.838	-12.31
 331	1	8	-0.131234	-16.6879	-132.922	-14.2318
 332	1	8	-0.12834	-18.4705	-131.722	-13.951
 333	1	3	-0.054598	-14.9982	-131.151	-12.5658
 334	1	3	-0.114682	-14.7528	-132.297	-11.7666
 335	1	3	-0.027292	-13.5238	-132.422	-11.1244
 336	1	3	-0.053307	-13.9466	-130.204	-12.7387
 337	1	3	-0.12014	-12.6925	-130.378	-12.1119
 338	1	3	-0.108895	-12.5236	-131.492	-11.2849
 339	1	2	0.53745	-11.444	-131.814	-10.3181
 340	1	1	-0.142145	-11.927	-132.863	-9.53973
 341	1	2	0.571477	-13.1347	-133.348	-10.038
 342	1	3	-0.002566	-11.3027	-133.322	-8.33224
 343	1	3	-0.337427	-10.518	-132.455	-7.54202
 344	1	3	0.463101	-9.755	-132.942	-6.46998
 345	1	3	-0.077757	-11.4303	-134.663	-7.91304
 346	1	3	-0.17221	-10.9372	-135.091	-6.66491
 347	1	3	-0.341697	-9.92642	-134.284	-6.09219
 348	1	2	0.246259	-8.77104	-132.037	-5.7697
 349	1	6	0.163123	-11.9068	-129.629	-12.1937
 350	1	6	0.140059	-14.1194	-129.294	-13.3091
 351	1	6	0.184664	-15.5173	-133.023	-11.5162
 352	1	5	-0.57014	-13.8103	-134.277	-9.63004
 353	1	5	-0.478504	-10.3828	-131.224	-10.2068
 354	1	6	0.172599	-11.7909	-134.922	-6.01089
 355	1	6	0.35044	-10.3637	-131.412	-7.80866
 356	1	6	0.154366	-11.9854	-135.375	-8.52116
 357	1	6	0.237262	-9.29639	-134.687	-5.30002
 358	1	5	-0.49166	-8.71621	-130.834	-5.97145
 359	1	9	-0.100187	-7.907	-132.657	-4.92702
 360	1	3	-0.024347	-25.3658	-115.985	-19.424
 361	1	3	-0.071478	-24.586	-116.813	-20.2925
 362	1	3	-0.180016	-23.2656	-116.389	-20.6078
 363	1	5	-0.370097	-26.5346	-113.779	-17.5475
 364	1	3	0.010306	-24.831	-114.783	-18.9437
 365	1	3	-0.071748	-22.7481	-115.171	-20.1189
 366	1	5	-0.403598	-22.3348	-112.348	-18.9813
 367	1	3	0.055994	-23.5631	-114.383	-19.3007
 368	1	2	0.021521	-25.448	-113.71	-18.1035
 369	1	1	0.466017	-24.4988	-112.673	-18.0638
 370	1	2	0.096621	-23.3301	-113.021	-18.7633
 371	1	3	-0.099438	-23.1323	-121.096	-22.3428
 372	1	7	-0.089685	-25.1871	-118.03	-21.0716
 373	1	3	-0.037281	-24.1649	-119.211	-21.1201
 374	1	3	-0.08188	-23.9859	-119.983	-22.3028
 375	1	3	-0.106561	-22.4495	-121.439	-21.1809
 376	1	3	-0.037628	-23.4305	-119.589	-19.9575
 377	1	3	-0.12234	-22.5562	-120.694	-20.0252
 378	1	7	0.388954	-25.5505	-117.462	-22.5078
 379	1	7	0.307788	-26.4874	-118.591	-20.3731
 380	1	8	-0.129718	-26.3509	-118.279	-23.2388
 381	1	8	-0.129089	-26.1798	-116.269	-22.4141
 382	1	8	-0.119089	-24.4472	-117.215	-23.2528
 383	1	8	-0.103894	-26.2647	-118.827	-19.062
 384	1	8	-0.097852	-26.9181	-119.759	-20.8938
 385	1	8	-0.104555	-27.5427	-117.757	-20.4632
 386	1	2	0.521254	-21.722	-121.373	-18.9819
 387	1	2	0.53569	-21.6133	-122.632	-20.9173
 388	1	1	0.027822	-21.2562	-122.55	-19.5801
 389	1	5	-0.468874	-21.5572	-121.002	-17.8312
 390	1	5	-0.477974	-21.3968	-123.546	-21.6947
 391	1	3	-0.359831	-20.5452	-123.609	-18.9238
 392	1	3	0.131035	-19.1397	-123.568	-18.8412
 393	1	3	-0.120983	-18.4357	-124.619	-18.2098
 394	1	3	0.127261	-21.2594	-124.736	-18.4642
 395	1	3	-0.127195	-20.5592	-125.839	-17.9267
 396	1	3	0.144798	-19.1488	-125.764	-17.7817
 397	1	7	-0.020676	-22.7889	-124.757	-18.5844
 398	1	7	-0.019785	-18.3856	-122.348	-19.3677
 399	1	6	0.164889	-26.3865	-116.214	-19.1436
 400	1	6	0.175264	-22.6543	-116.976	-21.2907
 401	1	6	0.1582	-21.758	-114.823	-20.4019
 402	1	6	0.150763	-23.0334	-121.7	-23.2425
 403	1	6	0.144868	-24.521	-119.758	-23.2162
 404	1	6	0.134072	-23.5574	-119.059	-19.017
 405	1	7	-0.300668	-16.9112	-124.515	-17.9998
 406	1	7	-0.243237	-21.3411	-127.105	-17.5362
 407	1	11	0.021835	-23.2793	-125.567	-18.037
 408	1	11	0.012312	-23.1004	-124.843	-19.633
 409	1	11	0.041777	-23.217	-123.833	-18.1785
 410	1	11	0.110598	-22.0602	-127.391	-18.3163
 411	1	11	0.08293	-20.7088	-127.989	-17.3917
 412	1	11	0.082252	-21.9015	-126.946	-16.6043
 413	1	11	0.027698	-18.9178	-121.823	-20.1691
 414	1	11	0.017051	-17.4172	-122.625	-19.7983
 415	1	11	0.037874	-18.2042	-121.628	-18.5602
 416	1	11	0.095908	-16.3633	-124.875	-18.8833
 417	1	11	0.127068	-16.5962	-123.48	-17.813
 418	1	11	0.099095	-16.5499	-125.072	-17.1257
 419	1	1	0.492035	-29.8983	-100.409	-20.9003
 420	1	2	0.039235	-29.4678	-101.727	-20.7815
 421	1	3	-0.015324	-30.6672	-102.5	-20.3632
 422	1	2	0.029964	-31.2425	-100.251	-20.5711
 423	1	3	0.070931	-31.7303	-101.626	-20.2645
 424	1	5	-0.376136	-28.3544	-102.17	-21.0039
 425	1	5	-0.378673	-31.8854	-99.2159	-20.5167
 426	1	3	-0.008856	-30.8104	-103.869	-20.0882
 427	1	3	-0.050254	-33.0023	-102.084	-19.9041
 428	1	3	-0.199808	-33.1728	-103.463	-19.6375
 429	1	3	-0.056025	-32.0858	-104.384	-19.7153
 430	1	6	0.163004	-29.942	-104.52	-20.1882
 431	1	6	0.15778	-33.8347	-101.386	-19.8439
 432	1	6	0.172843	-34.1752	-103.802	-19.3936
 433	1	7	-0.082157	-32.2536	-105.923	-19.4846
 434	1	7	0.321766	-33.6188	-106.37	-18.8112
 435	1	8	-0.115532	-34.6932	-106.247	-19.6312
 436	1	8	-0.098544	-33.8917	-105.663	-17.6951
 437	1	8	-0.116522	-33.5841	-107.668	-18.4169
 438	1	7	0.409577	-32.2377	-106.612	-20.8999
 439	1	8	-0.127323	-31.0491	-106.495	-21.5351
 440	1	8	-0.131234	-33.1401	-106.048	-21.7326
 441	1	8	-0.12834	-32.5374	-107.928	-20.8222
 442	1	3	-0.054598	-31.0989	-106.383	-18.5407
 443	1	3	-0.114682	-30.1917	-107.424	-18.8738
 444	1	3	-0.027292	-29.2174	-107.815	-17.9428
 445	1	3	-0.053307	-30.9463	-105.762	-17.2675
 446	1	3	-0.12014	-29.968	-106.184	-16.3374
 447	1	3	-0.108895	-29.1161	-107.233	-16.7054
 448	1	2	0.53745	-28.0041	-107.906	-15.9767
 449	1	1	-0.142145	-27.441	-108.844	-16.8524
 450	1	2	0.571477	-28.1486	-108.842	-18.0552
 451	1	3	-0.002566	-26.2421	-109.629	-16.6267
 452	1	3	-0.337427	-25.2632	-109.212	-15.7005
 453	1	3	0.463101	-24.0689	-109.938	-15.5267
 454	1	3	-0.077757	-25.9682	-110.799	-17.3842
 455	1	3	-0.17221	-24.6745	-111.371	-17.4497
 456	1	3	-0.341697	-23.8411	-111.063	-16.3472
 457	1	2	0.246259	-22.99	-109.493	-14.5628
 458	1	6	0.163123	-29.8771	-105.711	-15.3622
 459	1	6	0.140059	-31.6052	-104.945	-16.9844
 460	1	6	0.184664	-30.2295	-107.961	-19.8164
 461	1	5	-0.57014	-27.8773	-109.438	-19.0796
 462	1	5	-0.478504	-27.6588	-107.628	-14.8423
 463	1	6	0.172599	-24.2199	-110.78	-18.2445
 464	1	6	0.35044	-25.4133	-108.325	-15.0944
 465	1	6	0.154366	-26.7347	-111.207	-18.0402
 466	1	6	0.237262	-22.8981	-111.596	-16.2091
 467	1	5	-0.49166	-21.8748	-109.989	-14.5323
 468	1	9	-0.100187	-23.3052	-108.44	-13.7715
 469	1	3	-0.024347	-21.5958	-89.4246	-24.0451
 470	1	3	-0.071478	-22.403	-90.3979	-23.3883
 471	1	3	-0.180016	-21.8465	-91.0905	-22.2743
 472	1	5	-0.370097	-19.3831	-87.3805	-24.8831
 473	1	3	0.010306	-20.2785	-89.2185	-23.5959
 474	1	3	-0.071748	-20.5382	-90.8344	-21.8176
 475	1	5	-0.403598	-17.7551	-89.6703	-21.1922
 476	1	3	0.055994	-19.7714	-89.8949	-22.5063
 477	1	2	0.021521	-19.2604	-88.2009	-23.9915
 478	1	1	0.466017	-18.2303	-88.2873	-23.0446
 479	1	2	0.096621	-18.4401	-89.3355	-22.1482
 480	1	3	-0.099438	-23.7036	-94.4547	-24.0817
 481	1	7	-0.089685	-23.9176	-90.5923	-23.6989
 482	1	3	-0.037281	-24.2672	-92.1022	-23.5328
 483	1	3	-0.08188	-23.4118	-93.0764	-24.1252
 484	1	3	-0.106561	-24.8558	-94.857	-23.4005
 485	1	3	-0.037628	-25.4332	-92.5559	-22.8586
 486	1	3	-0.12234	-25.6959	-93.936	-22.808
 487	1	7	0.388954	-24.6713	-89.6277	-22.6998
 488	1	7	0.307788	-24.3298	-90.2071	-25.1705
 489	1	8	-0.129718	-24.126	-88.3878	-22.709
 490	1	8	-0.129089	-24.6041	-90.0633	-21.4222
 491	1	8	-0.119089	-25.9831	-89.4693	-22.9824
 492	1	8	-0.103894	-24.3403	-88.8772	-25.4069
 493	1	8	-0.097852	-25.566	-90.668	-25.47
 494	1	8	-0.104555	-23.4974	-90.7516	-26.0775
 495	1	2	0.521254	-26.8429	-94.6888	-22.2191
 496	1	2	0.53569	-25.421	-96.2193	-23.1973
 497	1	1	0.027822	-26.6074	-96.0415	-22.4867
 498	1	5	-0.468874	-27.8134	-94.1966	-21.6707
 499	1	5	-0.477974	-25.0068	-97.2393	-23.7219
 500	1	3	-0.359831	-27.4613	-97.1339	-22.0803
 501	1	3	0.131035	-28.2489	-97.8073	-23.049
 502	1	3	-0.120983	-29.0295	-98.9278	-22.6603
 503	1	3	0.127261	-27.4604	-97.5755	-20.7326
 504	1	3	-0.127195	-28.2795	-98.6579	-20.331
 505	1	3	0.144798	-29.0542	-99.3357	-21.3022
 506	1	7	-0.020676	-26.5674	-96.8797	-19.6991
 507	1	7	-0.019785	-28.2886	-97.3335	-24.5136
 508	1	6	0.164889	-21.9726	-88.7946	-24.8451
 509	1	6	0.175264	-22.4543	-91.7907	-21.7078
 510	1	6	0.1582	-20.1481	-91.3047	-20.9174
 511	1	6	0.150763	-23.0465	-95.1864	-24.5491
 512	1	6	0.144868	-22.5131	-92.7626	-24.6514
 513	1	6	0.134072	-26.146	-91.8714	-22.4097
 514	1	7	-0.300668	-29.8796	-99.6754	-23.7019
 515	1	7	-0.243237	-28.3503	-99.0463	-18.8407
 516	1	11	0.021835	-27.0952	-96.0446	-19.2247
 517	1	11	0.012312	-25.6481	-96.4871	-20.1479
 518	1	11	0.041777	-26.2232	-97.5579	-18.9102
 519	1	11	0.110598	-28.3485	-98.1616	-18.1909
 520	1	11	0.08293	-29.2667	-99.5826	-18.5674
 521	1	11	0.082252	-27.4948	-99.6707	-18.5515
 522	1	11	0.027698	-27.6985	-97.9916	-25.1623
 523	1	11	0.017051	-27.9137	-96.3155	-24.6517
 524	1	11	0.037874	-29.3164	-97.3122	-24.8899
 525	1	11	0.095908	-30.0565	-100.724	-23.4431
 526	1	11	0.127068	-30.856	-99.1957	-23.8402
 527	1	11	0.099095	-29.3934	-99.714	-24.6811
 528	1	3	-0.024347	-11.2189	-76.7263	-19.8464
 529	1	3	-0.071478	-11.9652	-77.8514	-20.3047
 530	1	3	-0.180016	-13.3748	-77.83	-20.0964
 531	1	5	-0.370097	-10.1359	-74.0733	-18.6687
 532	1	3	0.010306	-11.8696	-75.6617	-19.2137
 533	1	3	-0.071748	-14.018	-76.7528	-19.4375
 534	1	5	-0.403598	-14.7211	-74.076	-17.9741
 535	1	3	0.055994	-13.2294	-75.6754	-19.0026
 536	1	2	0.021521	-11.3141	-74.3836	-18.6799
 537	1	1	0.466017	-12.4044	-73.6763	-18.1626
 538	1	2	0.096621	-13.5983	-74.3986	-18.3264
 539	1	3	-0.099438	-12.8982	-82.0203	-19.2964
 540	1	7	-0.089685	-11.2863	-78.9966	-21.1398
 541	1	3	-0.037281	-12.0101	-80.3691	-20.9227
 542	1	3	-0.08188	-12.224	-80.818	-19.5924
 543	1	3	-0.106561	-13.3698	-82.7852	-20.3695
 544	1	3	-0.037628	-12.464	-81.2073	-21.9829
 545	1	3	-0.12234	-13.1453	-82.3917	-21.6737
 546	1	7	0.388954	-9.77187	-79.1817	-20.6985
 547	1	7	0.307788	-11.3656	-78.5349	-22.6479
 548	1	8	-0.129718	-9.25593	-80.3777	-21.0666
 549	1	8	-0.129089	-8.94593	-78.2413	-21.2061
 550	1	8	-0.119089	-9.63836	-79.0977	-19.3529
 551	1	8	-0.103894	-10.8963	-77.282	-22.8175
 552	1	8	-0.097852	-12.6419	-78.5078	-23.095
 553	1	8	-0.104555	-10.6565	-79.3207	-23.493
 554	1	2	0.521254	-13.7664	-83.3987	-22.5768
 555	1	2	0.53569	-14.1618	-84.0503	-20.3924
 556	1	1	0.027822	-14.3948	-84.3195	-21.7403
 557	1	5	-0.468874	-13.7528	-83.3769	-23.7948
 558	1	5	-0.477974	-14.594	-84.6526	-19.4227
 559	1	3	-0.359831	-15.3158	-85.3185	-22.2009
 560	1	3	0.131035	-14.8934	-86.6422	-22.4811
 561	1	3	-0.120983	-15.8451	-87.6194	-22.864
 562	1	3	0.127261	-16.6759	-84.9543	-22.2893
 563	1	3	-0.127195	-17.6367	-85.9611	-22.5186
 564	1	3	0.144798	-17.2258	-87.2827	-22.8409
 565	1	7	-0.020676	-17.1209	-83.5071	-22.0312
 566	1	7	-0.019785	-13.4147	-87.0237	-22.3517
 567	1	6	0.164889	-10.1513	-76.6235	-20.0042
 568	1	6	0.175264	-13.9868	-78.6483	-20.471
 569	1	6	0.1582	-15.0941	-76.7415	-19.2895
 570	1	6	0.150763	-13.0719	-82.3365	-18.2702
 571	1	6	0.144868	-11.877	-80.2089	-18.7641
 572	1	6	0.134072	-12.3259	-80.9683	-23.0309
 573	1	7	-0.300668	-15.3973	-89.0495	-23.2194
 574	1	7	-0.243237	-19.1273	-85.6425	-22.318
 575	1	11	0.021835	-16.3656	-82.7714	-22.3198
 576	1	11	0.012312	-17.3588	-83.3478	-20.9725
 577	1	11	0.041777	-18.0039	-83.2487	-22.6248
 578	1	11	0.110598	-19.6096	-85.3929	-23.2715
 579	1	11	0.08293	-19.6755	-86.4715	-21.8533
 580	1	11	0.082252	-19.2952	-84.7987	-21.6396
 581	1	11	0.027698	-13.3015	-87.9396	-21.7604
 582	1	11	0.017051	-12.8007	-86.2646	-21.8573
 583	1	11	0.037874	-12.9777	-87.194	-23.3433
 584	1	11	0.095908	-14.4082	-89.0782	-23.694
 585	1	11	0.127068	-15.3505	-89.6749	-22.3153
 586	1	11	0.099095	-16.0836	-89.5312	-23.9271
 587	1	1	0.492035	-6.87344	-58.7247	-18.7323
 588	1	2	0.039235	-6.03279	-59.7002	-19.278
 589	1	3	-0.015324	-6.86407	-60.9279	-19.3564
 590	1	2	0.029964	-8.15166	-59.2198	-18.4643
 591	1	3	0.070931	-8.12686	-60.6357	-18.884
 592	1	5	-0.376136	-4.87261	-59.5988	-19.6391
 593	1	5	-0.378673	-9.11364	-58.6309	-18.0098
 594	1	3	-0.008856	-6.51989	-62.2156	-19.7824
 595	1	3	-0.050254	-9.13834	-61.5944	-18.8377
 596	1	3	-0.199808	-8.82144	-62.8883	-19.2913
 597	1	3	-0.056025	-7.51667	-63.2264	-19.7532
 598	1	6	0.163004	-5.51131	-62.3962	-20.1428
 599	1	6	0.15778	-10.134	-61.3334	-18.477
 600	1	6	0.172843	-9.61068	-63.6388	-19.2856
 601	1	7	-0.082157	-7.2805	-64.6727	-20.2684
 602	1	7	0.321766	-5.76035	-65.1059	-20.3328
 603	1	8	-0.115532	-5.07066	-64.7766	-19.2157
 604	1	8	-0.098544	-5.64057	-66.4469	-20.4573
 605	1	8	-0.116522	-5.09219	-64.5599	-21.3722
 606	1	7	0.409577	-7.88204	-64.7234	-21.734
 607	1	8	-0.127323	-7.64342	-65.9033	-22.3416
 608	1	8	-0.131234	-7.35025	-63.7617	-22.5396
 609	1	8	-0.12834	-9.23208	-64.5638	-21.7513
 610	1	3	-0.054598	-7.94805	-65.63	-19.2314
 611	1	3	-0.114682	-8.84732	-66.6762	-19.578
 612	1	3	-0.027292	-9.323	-67.5236	-18.5575
 613	1	3	-0.053307	-7.60566	-65.4643	-17.8592
 614	1	3	-0.12014	-8.06573	-66.3405	-16.8587
 615	1	3	-0.108895	-8.91794	-67.3773	-17.2481
 616	1	2	0.53745	-9.57378	-68.4294	-16.4301
 617	1	1	-0.142145	-10.3696	-69.1798	-17.2989
 618	1	2	0.571477	-10.2634	-68.6859	-18.6064
 619	1	3	-0.002566	-11.1743	-70.3112	-16.8891
 620	1	3	-0.337427	-11.6787	-70.3961	-15.5722
 621	1	3	0.463101	-12.3017	-71.5592	-15.0969
 622	1	3	-0.077757	-11.4167	-71.4164	-17.7482
 623	1	3	-0.17221	-12.3417	-72.4416	-17.4037
 624	1	3	-0.341697	-12.5632	-72.595	-16.0123
 625	1	2	0.246259	-12.643	-71.6915	-13.628
 626	1	6	0.163123	-7.77186	-66.2153	-15.8169