pySIMM System Object

1476 atoms
1610 bonds
2840 angles
4288 dihedrals
445 impropers

11 atom types
13 bond types
22 angle types
9 dihedral types
4 improper types

-147.504734 147.504734 xlo xhi
-147.504734 147.504734 ylo yhi
-147.504734 147.504734 zlo zhi

Masses

   1	12.01	# ca
   2	16.0	# o
   3	12.01	# c
   4	14.01	# n
   5	12.01	# c3
   6	19.0	# f
   7	1.008	# ha
   8	1.008	# hn
   9	1.008	# hc
  10	16.0	# oh
  11	1.008	# ho

Pair Coeffs

   1	0.086	3.3996695084235347	# ca
   2	0.21	2.959921901149463	# o
   3	0.086	3.3996695084235347	# c
   4	0.17	3.249998523775958	# n
   5	0.1094	3.3996695084235347	# c3
   6	0.061	3.1181455134911875	# f
   7	0.015	2.59964245953351	# ha
   8	0.0157	1.069078461768407	# hn
   9	0.0157	2.649532787749369	# hc
  10	0.2104	3.0664733878390478	# oh
  11	0.0047	0.5379246460131368	# ho

Bond Coeffs

   1	345.9	1.4906	# c,ca
   2	330.6	1.0969	# c3,hc
   3	384.2	1.4121	# ca,n
   4	321.0	1.5156	# c3,ca
   5	403.2	1.0129	# hn,n
   6	461.1	1.3984	# ca,ca
   7	345.8	1.086	# ca,ha
   8	300.9	1.5375	# c3,c3
   9	637.7	1.2183	# c,o
  10	356.9	1.3497	# c3,f
  11	427.6	1.3789	# c,n
  12	400.1	1.3513	# c,oh
  13	371.4	0.973	# ho,oh

Angle Coeffs

   1	63.56	112.24	# ca,c3,ca
   2	63.74	127.08	# c,n,c
   3	48.18	119.88	# ca,ca,ha
   4	64.28	120.33	# c,ca,ca
   5	70.89	107.36	# f,c3,f
   6	39.4	107.58	# hc,c3,hc
   7	74.22	123.05	# n,c,o
   8	66.11	109.24	# c3,c3,f
   9	46.8	110.47	# ca,c3,hc
  10	66.62	120.02	# ca,ca,ca
  11	67.87	120.19	# ca,ca,n
  12	62.86	111.51	# c3,c3,c3
  13	63.15	112.07	# c3,c3,ca
  14	68.72	122.6	# ca,c,o
  15	48.33	117.55	# c,n,hn
  16	67.68	115.25	# ca,c,n
  17	63.82	123.71	# c,n,ca
  18	63.53	120.77	# c3,ca,ca
  19	49.88	106.55	# c,oh,ho
  20	69.15	113.45	# ca,c,oh
  21	75.92	122.1	# o,c,oh
  22	49.75	116.02	# ha,ca,n

Dihedral Coeffs

   1	1	1.0	2	180	# X,c,ca,X
   2	1	0.15555555555555556	3	0	# X,c3,c3,X
   3	1	0.0	2	0	# X,c3,ca,X
   4	1	2.5	2	180	# X,c,n,X
   5	1	0.45	2	180	# X,ca,n,X
   6	2	2.5	2	180	2.0	1	0	# hn,n,c,o
   7	1	3.625	2	180	# X,ca,ca,X
   8	1	2.3	2	180	# X,c,oh,X
   9	2	2.3	2	180	1.9	1	0	# ho,oh,c,o

Improper Coeffs

   1	10.5	-1	2	# c,X,X,o
   2	1.1	-1	2	# ca,ca,ca,c3
   3	1.1	-1	2	# ca,X,X,ha
   4	1.1	-1	2	# n,X,X,hn

Atoms

   1	1	1	-0.024347	25.3807	-19.8107	13.3886
   2	1	1	-0.071478	25.0648	-20.8564	12.4864
   3	1	1	-0.180016	26.0094	-21.912	12.2878
   4	1	2	-0.370097	26.6288	-17.8754	15.4031
   5	1	1	0.010306	26.5796	-19.8955	14.0977
   6	1	1	-0.071748	27.2115	-21.979	13.0296
   7	1	2	-0.403598	29.5303	-21.5006	15.0192
   8	1	1	0.055994	27.4584	-20.9462	13.9401
   9	1	3	0.021521	27.1275	-18.9401	15.0848
  10	1	4	0.466017	28.3472	-19.4952	15.4798
  11	1	3	0.096621	28.612	-20.7195	14.8462
  12	1	1	-0.099438	22.7305	-24.2112	13.5684
  13	1	5	-0.089685	23.6827	-20.9263	11.7815
  14	1	1	-0.037281	23.1555	-22.3832	11.9475
  15	1	1	-0.08188	23.3059	-22.9803	13.2359
  16	1	1	-0.106561	22.0076	-24.8681	12.5756
  17	1	1	-0.037628	22.4442	-23.1033	10.9421
  18	1	1	-0.12234	21.9134	-24.3721	11.2867
  19	1	5	0.388954	23.8646	-20.3889	10.3139
  20	1	5	0.307788	22.5744	-20.056	12.4717
  21	1	6	-0.129718	22.7156	-20.29	9.61526
  22	1	6	-0.129089	24.6899	-21.1263	9.55213
  23	1	6	-0.119089	24.4199	-19.1625	10.3415
  24	1	6	-0.103894	22.4861	-20.2647	13.8157
  25	1	6	-0.097852	21.3789	-20.3773	11.9095
  26	1	6	-0.104555	22.7762	-18.735	12.3016
  27	1	3	0.521254	21.1768	-25.4057	10.5033
  28	1	3	0.53569	21.3348	-26.2039	12.6331
  29	1	4	0.027822	20.844	-26.4561	11.3601
  30	1	2	-0.468874	20.9231	-25.3424	9.32559
  31	1	2	-0.477974	21.2785	-26.9379	13.6047
  32	1	1	-0.359831	20.1774	-27.6766	10.9527
  33	1	1	0.131035	20.8412	-28.5469	10.0398
  34	1	1	-0.120983	20.2057	-29.7035	9.54672
  35	1	1	0.127261	18.8729	-28.0183	11.4326
  36	1	1	-0.127195	18.2799	-29.219	10.9701
  37	1	1	0.144798	18.9424	-30.0282	10.0328
  38	1	5	-0.020676	18.0859	-27.1273	12.4195
  39	1	5	-0.019785	22.2628	-28.2798	9.52042
  40	1	7	0.164889	24.7216	-18.9738	13.5895
  41	1	7	0.175264	25.7841	-22.6932	11.5687
  42	1	7	0.1582	27.9291	-22.7821	12.8887
  43	1	7	0.150763	22.816	-24.6309	14.5721
  44	1	7	0.144868	23.8489	-22.4683	14.0282
  45	1	7	0.134072	22.3175	-22.6962	9.94192
  46	1	5	-0.300668	20.8198	-30.5739	8.4421
  47	1	5	-0.243237	16.8782	-29.6359	11.3902
  48	1	9	0.021835	17.3051	-27.6594	12.9694
  49	1	9	0.012312	17.5991	-26.297	11.893
  50	1	9	0.041777	18.736	-26.696	13.1875
  51	1	9	0.110598	16.1305	-28.8974	11.0696
  52	1	9	0.08293	16.5977	-30.5968	10.9432
  53	1	9	0.082252	16.8066	-29.755	12.4761
  54	1	9	0.027698	22.8546	-29.2016	9.53112
  55	1	9	0.017051	22.8301	-27.5462	10.1
  56	1	9	0.037874	22.2358	-27.937	8.4784
  57	1	9	0.095908	21.7797	-31.0131	8.74672
  58	1	9	0.127068	20.151	-31.3993	8.16921
  59	1	9	0.099095	20.9894	-29.9892	7.52685
  60	1	1	-0.024347	35.2551	-17.5591	24.3697
  61	1	1	-0.071478	36.1767	-16.4781	24.3615
  62	1	1	-0.180016	37.28	-16.5309	25.2444
  63	1	2	-0.370097	33.6688	-20.1815	24.846
  64	1	1	0.010306	35.4846	-18.649	25.2026
  65	1	1	-0.071748	37.5122	-17.6386	26.0762
  66	1	2	-0.403598	37.4038	-20.3452	27.58
  67	1	1	0.055994	36.5797	-18.6881	26.0402
  68	1	3	0.021521	34.7368	-19.9227	25.3555
  69	1	4	0.466017	35.479	-20.6909	26.2516
  70	1	3	0.096621	36.5823	-20.0	26.7481
  71	1	1	-0.099438	35.7892	-17.7768	20.3955
  72	1	5	-0.089685	36.0095	-15.3135	23.3466
  73	1	1	-0.037281	35.4898	-15.9766	22.0482
  74	1	1	-0.08188	36.2339	-17.065	21.5185
  75	1	1	-0.106561	34.5463	-17.4503	19.8456
  76	1	1	-0.037628	34.2407	-15.6697	21.4471
  77	1	1	-0.12234	33.8074	-16.4108	20.3383
  78	1	5	0.388954	37.388	-14.6233	22.9411
  79	1	5	0.307788	35.0257	-14.2726	23.9565
  80	1	6	-0.129718	37.2236	-13.9314	21.7919
  81	1	6	-0.129089	38.3658	-15.5342	22.7186
  82	1	6	-0.119089	37.9061	-13.7795	23.8657
  83	1	6	-0.103894	34.8178	-13.2644	23.1037
  84	1	6	-0.097852	35.4956	-13.7565	25.0919
  85	1	6	-0.104555	33.8226	-14.7533	24.3067
  86	1	3	0.521254	32.5178	-16.3718	19.5975
  87	1	3	0.53569	33.7748	-18.088	18.7489
  88	1	4	0.027822	32.5582	-17.4052	18.6539
  89	1	2	-0.468874	31.5881	-15.6458	19.8825
  90	1	2	-0.477974	34.0876	-19.1076	18.1707
  91	1	1	-0.359831	31.4187	-17.8162	17.8508
  92	1	1	0.131035	30.3534	-18.539	18.4589
  93	1	1	-0.120983	29.2893	-19.0396	17.691
  94	1	1	0.127261	31.3862	-17.5526	16.447
  95	1	1	-0.127195	30.3202	-18.0651	15.6682
  96	1	1	0.144798	29.3004	-18.8285	16.2929
  97	1	5	-0.020676	32.5896	-16.8723	15.7613
  98	1	5	-0.019785	30.3036	-18.8158	19.9622
  99	1	7	0.164889	34.39	-17.5851	23.715
 100	1	7	0.175264	37.9935	-15.7258	25.2848
 101	1	7	0.1582	38.3925	-17.7065	26.7179
 102	1	7	0.150763	36.3666	-18.61	20.0037
 103	1	7	0.144868	37.143	-17.4058	22.0002
 104	1	7	0.134072	33.5918	-14.8976	21.8355
 105	1	5	-0.300668	28.1598	-19.8684	18.3396
 106	1	5	-0.243237	30.3456	-17.8491	14.1422
 107	1	9	0.021835	33.1713	-17.6334	15.2226
 108	1	9	0.012312	33.2733	-16.3651	16.457
 109	1	9	0.041777	32.2633	-16.1241	15.0223
 110	1	9	0.110598	30.1829	-16.7906	13.8834
 111	1	9	0.08293	31.3015	-18.1651	13.6978
 112	1	9	0.082252	29.5861	-18.4217	13.5989
 113	1	9	0.027698	29.4972	-18.2485	20.448
 114	1	9	0.017051	31.2333	-18.5686	20.4837
 115	1	9	0.037874	30.1333	-19.8833	20.1586
 116	1	9	0.095908	28.3383	-20.9389	18.1564
 117	1	9	0.127068	28.0355	-19.7306	19.4228
 118	1	9	0.099095	27.1773	-19.5777	17.9295
 119	1	1	-0.024347	32.5125	-32.9388	30.0039
 120	1	1	-0.071478	33.6871	-32.1611	30.1912
 121	1	1	-0.180016	34.7349	-32.3155	29.2575
 122	1	2	-0.370097	30.1908	-34.6843	28.8675
 123	1	1	0.010306	32.4128	-33.7493	28.8548
 124	1	1	-0.071748	34.6301	-33.1536	28.1328
 125	1	2	-0.403598	33.7353	-35.1181	25.9386
 126	1	1	0.055994	33.4285	-33.8239	27.925
 127	1	3	0.021521	31.3083	-34.6295	28.3905
 128	1	4	0.466017	31.7625	-35.224	27.2189
 129	1	3	0.096621	33.0231	-34.7571	26.8542
 130	1	1	-0.099438	36.1274	-28.0084	31.2239
 131	1	5	-0.089685	33.9398	-31.2163	31.4013
 132	1	1	-0.037281	34.558	-29.8774	30.8751
 133	1	1	-0.08188	35.6266	-29.265	31.5712
 134	1	1	-0.106561	35.5331	-27.352	30.1415
 135	1	1	-0.037628	33.9678	-29.1657	29.7924
 136	1	1	-0.12234	34.4684	-27.8954	29.4571
 137	1	5	0.388954	34.8704	-32.0057	32.399
 138	1	5	0.307788	32.6369	-30.8137	32.2117
 139	1	6	-0.129718	34.9217	-31.4488	33.634
 140	1	6	-0.129089	36.1533	-32.1444	31.9656
 141	1	6	-0.119089	34.4158	-33.2566	32.5815
 142	1	6	-0.103894	31.6565	-30.4375	31.384
 143	1	6	-0.097852	32.8488	-29.7506	33.0236
 144	1	6	-0.104555	32.1301	-31.8215	32.9626
 145	1	3	0.521254	33.9813	-26.8839	28.4598
 146	1	3	0.53569	35.719	-25.9631	29.6469
 147	1	4	0.027822	34.7881	-25.7616	28.6394
 148	1	2	-0.468874	33.1066	-27.0677	27.6361
 149	1	2	-0.477974	36.5362	-25.1599	30.0566
 150	1	1	-0.359831	34.7171	-24.5149	27.918
 151	1	1	0.131035	34.2486	-23.3582	28.5783
 152	1	1	-0.120983	34.4236	-22.0948	27.9726
 153	1	1	0.127261	35.3648	-24.3977	26.6531
 154	1	1	-0.127195	35.5794	-23.1299	26.0646
 155	1	1	0.144798	35.096	-21.9837	26.7314
 156	1	5	-0.020676	35.9712	-25.645	25.9698
 157	1	5	-0.019785	33.685	-23.4513	29.9872
 158	1	7	0.164889	31.6894	-32.9113	30.7141
 159	1	7	0.175264	35.6542	-31.7453	29.3659
 160	1	7	0.1582	35.452	-33.2451	27.4277
 161	1	7	0.150763	36.9224	-27.553	31.801
 162	1	7	0.144868	36.0853	-29.7358	32.4272
 163	1	7	0.134072	33.1268	-29.5917	29.2434
 164	1	5	-0.300668	33.9291	-20.808	28.6372
 165	1	5	-0.243237	36.4689	-22.9509	24.8239
 166	1	9	0.021835	35.7918	-25.6317	24.8909
 167	1	9	0.012312	35.5269	-26.5759	26.336
 168	1	9	0.041777	37.0503	-25.7062	26.1492
 169	1	9	0.110598	36.2439	-22.0512	24.2418
 170	1	9	0.08293	37.5239	-22.9038	25.101
 171	1	9	0.082252	36.3653	-23.7832	24.1134
 172	1	9	0.027698	33.6376	-24.4571	30.4042
 173	1	9	0.017051	32.6544	-23.0758	29.9781
 174	1	9	0.037874	34.2948	-22.8408	30.6778
 175	1	9	0.095908	33.2263	-21.0004	29.4555
 176	1	9	0.127068	34.7865	-20.2391	29.0442
 177	1	9	0.099095	33.3996	-20.1589	27.9252
 178	1	4	0.492035	21.1777	-28.0517	18.9607
 179	1	3	0.039235	21.6892	-29.1509	18.2595
 180	1	1	-0.015324	22.2379	-30.0535	19.2996
 181	1	3	0.029964	21.3467	-28.1749	20.3558
 182	1	1	0.070931	22.0547	-29.4714	20.5356
 183	1	2	-0.376136	21.8778	-29.2578	17.0576
 184	1	2	-0.378673	21.1554	-27.3131	21.2123
 185	1	1	-0.008856	22.9981	-31.212	19.1045
 186	1	1	-0.050254	22.7719	-29.9615	21.6234
 187	1	1	-0.199808	23.5949	-31.1004	21.4514
 188	1	1	-0.056025	23.6986	-31.7879	20.1961
 189	1	7	0.163004	23.0947	-31.5974	18.0898
 190	1	7	0.15778	22.7255	-29.4382	22.5708
 191	1	7	0.172843	24.1894	-31.4091	22.3085
 192	1	5	-0.082157	24.574	-33.0934	20.0046
 193	1	5	0.321766	23.6607	-34.2387	19.4298
 194	1	6	-0.115532	24.2456	-35.4618	19.5378
 195	1	6	-0.098544	23.3217	-34.0509	18.1526
 196	1	6	-0.116522	22.4658	-34.314	20.0539
 197	1	5	0.409577	25.7602	-32.8206	18.9926
 198	1	6	-0.127323	26.4837	-33.9454	18.7816
 199	1	6	-0.131234	25.3205	-32.3931	17.7854
 200	1	6	-0.12834	26.6289	-31.8906	19.4266
 201	1	1	-0.054598	25.0931	-33.6129	21.3713
 202	1	1	-0.114682	26.4549	-33.9375	21.6663
 203	1	1	-0.027292	26.8101	-34.382	22.9416
 204	1	1	-0.053307	24.1241	-33.8359	22.3846
 205	1	1	-0.12014	24.4857	-34.2517	23.6656
 206	1	1	-0.108895	25.8419	-34.4962	23.9247
 207	1	3	0.53745	26.4632	-35.0298	25.1512
 208	1	4	-0.142145	27.7765	-35.311	24.7846
 209	1	3	0.571477	28.0937	-34.9106	23.4676
 210	1	1	-0.002566	28.6797	-35.9679	25.6623
 211	1	1	-0.337427	28.2567	-36.987	26.5343
 212	1	1	0.463101	29.1611	-37.7014	27.3366
 213	1	1	-0.077757	30.0231	-35.5745	25.6681
 214	1	1	-0.17221	30.9791	-36.2021	26.4919
 215	1	1	-0.341697	30.5225	-37.2922	27.2937
 216	1	3	0.246259	28.6667	-38.8605	28.1949
 217	1	7	0.163123	23.7189	-34.3931	24.4185
 218	1	7	0.140059	23.0719	-33.6456	22.2118
 219	1	7	0.184664	27.2557	-33.8577	20.9462
 220	1	2	-0.57014	29.1425	-34.9967	22.8479
 221	1	2	-0.478504	25.8872	-35.2379	26.2115
 222	1	7	0.172599	31.7954	-36.5523	25.8683
 223	1	7	0.35044	27.21	-37.2991	26.5995
 224	1	7	0.154366	30.3325	-34.748	25.0415
 225	1	7	0.237262	31.2226	-37.7886	27.9717
 226	1	2	-0.49166	27.5289	-39.3186	28.1204
 227	1	10	-0.100187	29.5945	-39.4327	29.002
 228	1	1	-0.024347	16.1685	-15.4311	15.674
 229	1	1	-0.071478	16.6889	-16.508	16.4611
 230	1	1	-0.180016	17.9185	-16.2687	17.1473
 231	1	2	-0.370097	15.4458	-12.7522	14.3253
 232	1	1	0.010306	16.8913	-14.2235	15.5539
 233	1	1	-0.071748	18.6095	-15.0421	17.0343
 234	1	2	-0.403598	19.5086	-12.058	16.5151
 235	1	1	0.055994	18.0941	-14.0213	16.2113
 236	1	3	0.021521	16.5012	-12.9381	14.9101
 237	1	4	0.466017	17.5201	-12.0255	15.2116
 238	1	3	0.096621	18.5418	-12.6003	15.9832
 239	1	1	-0.099438	18.8076	-19.9143	15.0678
 240	1	5	-0.089685	15.9406	-17.8784	16.6981
 241	1	1	-0.037281	16.9555	-19.0529	16.4807
 242	1	1	-0.08188	17.8501	-18.9331	15.3791
 243	1	1	-0.106561	18.9111	-21.0077	15.9361
 244	1	1	-0.037628	17.0196	-20.2394	17.2732
 245	1	1	-0.12234	18.0558	-21.1539	17.0122
 246	1	5	0.388954	15.3801	-17.7694	18.1584
 247	1	5	0.307788	14.7176	-18.1353	15.7466
 248	1	6	-0.129718	14.4689	-18.7275	18.488
 249	1	6	-0.129089	14.7922	-16.566	18.3329
 250	1	6	-0.119089	16.3604	-17.8243	19.0808
 251	1	6	-0.103894	14.2235	-19.4004	15.8923
 252	1	6	-0.097852	15.0378	-17.9313	14.4381
 253	1	6	-0.104555	13.6699	-17.3178	15.9822
 254	1	3	0.521254	18.4547	-22.3979	17.7366
 255	1	3	0.53569	19.8007	-22.2034	15.889
 256	1	4	0.027822	19.4873	-22.9866	17.0037
 257	1	2	-0.468874	17.9365	-22.8515	18.7439
 258	1	2	-0.477974	20.6832	-22.3691	15.0752
 259	1	1	-0.359831	19.9704	-24.3253	17.3126
 260	1	1	0.131035	19.0668	-25.42	17.3577
 261	1	1	-0.120983	19.4554	-26.6891	17.848
 262	1	1	0.127261	21.3144	-24.524	17.6664
 263	1	1	-0.127195	21.724	-25.7933	18.1416
 264	1	1	0.144798	20.7796	-26.8519	18.3097
 265	1	5	-0.020676	22.3075	-23.3572	17.6708
 266	1	5	-0.019785	17.6833	-25.279	16.7382
 267	1	7	0.164889	15.2246	-15.504	15.1466
 268	1	7	0.175264	18.328	-17.0282	17.8169
 269	1	7	0.1582	19.515	-14.8815	17.6245
 270	1	7	0.150763	19.4855	-19.796	14.2215
 271	1	7	0.144868	17.7756	-18.0697	14.7182
 272	1	7	0.134072	16.3535	-20.4098	18.1126
 273	1	5	-0.300668	18.4369	-27.8477	17.8695
 274	1	5	-0.243237	23.2083	-25.9915	18.4992
 275	1	9	0.021835	23.0406	-23.4553	16.8671
 276	1	9	0.012312	22.8416	-23.3321	18.6319
 277	1	9	0.041777	21.8594	-22.3531	17.5753
 278	1	9	0.110598	23.9016	-25.3152	17.979
 279	1	9	0.08293	23.361	-25.8383	19.5796
 280	1	9	0.082252	23.5705	-27.0036	18.2459
 281	1	9	0.027698	16.9564	-25.012	17.5114
 282	1	9	0.017051	17.3236	-26.175	16.2221
 283	1	9	0.037874	17.6664	-24.4787	15.9851
 284	1	9	0.095908	17.4744	-27.5342	18.3034
 285	1	9	0.127068	18.2414	-28.1964	16.8534
 286	1	9	0.099095	18.7478	-28.7202	18.4497
 287	1	4	0.492035	4.44159	-8.31983	19.9133
 288	1	3	0.039235	5.74784	-7.87812	19.8673
 289	1	1	-0.015324	6.53893	-9.04015	20.2836
 290	1	3	0.029964	4.32574	-9.63298	20.3294
 291	1	1	0.070931	5.70712	-10.0922	20.5678
 292	1	2	-0.376136	6.16337	-6.76677	19.6291
 293	1	2	-0.378673	3.29809	-10.2635	20.5347
 294	1	1	-0.008856	7.90211	-9.1354	20.4945
 295	1	1	-0.050254	6.18865	-11.3345	20.9812
 296	1	1	-0.199808	7.57297	-11.4646	21.175
 297	1	1	-0.056025	8.44802	-10.3449	21.0077
 298	1	7	0.163004	8.49442	-8.25791	20.2644
 299	1	7	0.15778	5.50153	-12.1548	21.1765
 300	1	7	0.172843	7.91871	-12.4294	21.5362
 301	1	5	-0.082157	9.98965	-10.4395	21.2879
 302	1	5	0.321766	10.3861	-11.7096	22.1643
 303	1	6	-0.115532	11.6947	-11.7898	22.4897
 304	1	6	-0.098544	10.1731	-12.8455	21.4821
 305	1	6	-0.116522	9.70334	-11.7907	23.3309
 306	1	5	0.409577	10.4088	-9.11189	22.0707
 307	1	6	-0.127323	9.43422	-8.75963	22.9682
 308	1	6	-0.131234	11.5565	-9.22494	22.7677
 309	1	6	-0.12834	10.5961	-8.05757	21.2236
 310	1	1	-0.054598	10.688	-10.5349	19.8759
 311	1	1	-0.114682	12.004	-10.0382	19.6276
 312	1	1	-0.027292	12.5217	-10.0466	18.3232
 313	1	1	-0.053307	10.0527	-11.18	18.779
 314	1	1	-0.12014	10.6209	-11.2455	17.4841
 315	1	1	-0.108895	11.8462	-10.6288	17.2809
 316	1	3	0.53745	12.6809	-10.5355	16.0743
 317	1	4	-0.142145	13.8312	-9.85253	16.44
 318	1	3	0.571477	13.809	-9.49591	17.7917
 319	1	1	-0.002566	14.9776	-9.78034	15.589
 320	1	1	-0.337427	14.8886	-9.25698	14.2936
 321	1	1	0.463101	15.9633	-9.40595	13.3944
 322	1	1	-0.077757	16.2206	-10.2875	16.0227
 323	1	1	-0.17221	17.2646	-10.6163	15.1264
 324	1	1	-0.341697	17.1195	-10.13	13.8093
 325	1	3	0.246259	15.8031	-8.90553	11.9742
 326	1	7	0.163123	10.0963	-11.7265	16.6619
 327	1	7	0.140059	9.09246	-11.6521	18.9239
 328	1	7	0.184664	12.5997	-9.60217	20.4214
 329	1	2	-0.57014	14.6635	-8.91384	18.4482
 330	1	2	-0.478504	12.4504	-11.0771	15.0201
 331	1	7	0.172599	18.2261	-10.3063	15.5203
 332	1	7	0.35044	13.9554	-8.83011	13.9271
 333	1	7	0.154366	16.2946	-10.6684	17.0403
 334	1	7	0.237262	17.9097	-10.3306	13.0817
 335	1	2	-0.49166	14.7801	-8.37899	11.56
 336	1	10	-0.100187	16.9041	-9.09535	11.191
 337	1	1	-0.024347	-9.17691	-7.49285	18.4487
 338	1	1	-0.071478	-7.84828	-7.48469	18.9485
 339	1	1	-0.180016	-7.54998	-6.64342	20.0576
 340	1	2	-0.370097	-12.1031	-6.91791	17.7529
 341	1	1	0.010306	-10.0651	-6.55098	18.9753
 342	1	1	-0.071748	-8.46438	-5.69236	20.5669
 343	1	2	-0.403598	-10.9919	-3.824	20.9235
 344	1	1	0.055994	-9.71606	-5.6431	19.9484
 345	1	3	0.021521	-11.4694	-6.28793	18.5769
 346	1	4	0.466017	-11.8698	-5.16248	19.2819
 347	1	3	0.096621	-10.9086	-4.77858	20.1881
 348	1	1	-0.099438	-4.15074	-5.70142	17.9487
 349	1	5	-0.089685	-6.75109	-8.46933	18.4513
 350	1	1	-0.037281	-5.3785	-7.76872	18.5021
 351	1	1	-0.08188	-5.34845	-6.4403	18.0082
 352	1	1	-0.106561	-2.98191	-6.37378	18.3242
 353	1	1	-0.037628	-4.16902	-8.40369	18.9014
 354	1	1	-0.12234	-2.98885	-7.66827	18.796
 355	1	5	0.388954	-6.92228	-8.96164	16.9558
 356	1	5	0.307788	-6.88371	-9.70325	19.4119
 357	1	6	-0.129718	-7.9887	-9.7534	16.8504
 358	1	6	-0.129089	-7.06702	-7.94878	16.0907
 359	1	6	-0.119089	-5.89251	-9.66531	16.4369
 360	1	6	-0.103894	-8.17143	-10.0311	19.7035
 361	1	6	-0.097852	-6.26166	-9.51051	20.5877
 362	1	6	-0.104555	-6.31589	-10.7981	18.8822
 363	1	3	0.521254	-1.60718	-8.05114	19.1035
 364	1	3	0.53569	-1.57721	-5.92289	18.2547
 365	1	4	0.027822	-0.804056	-6.97096	18.7824
 366	1	2	-0.468874	-1.25043	-9.11618	19.563
 367	1	2	-0.477974	-1.25731	-4.79458	17.9115
 368	1	1	-0.359831	0.607584	-6.99556	19.0445
 369	1	1	0.131035	1.05869	-6.87191	20.3921
 370	1	1	-0.120983	2.43265	-7.1485	20.6488
 371	1	1	0.127261	1.49314	-7.33427	17.9852
 372	1	1	-0.127195	2.85288	-7.60873	18.2272
 373	1	1	0.144798	3.27882	-7.5691	19.5866
 374	1	5	-0.020676	0.901288	-7.42533	16.5738
 375	1	5	-0.019785	0.0749507	-6.65436	21.5677
 376	1	7	0.164889	-9.54671	-8.17355	17.6842
 377	1	7	0.175264	-6.58252	-6.73256	20.5624
 378	1	7	0.1582	-8.21045	-5.04714	21.4018
 379	1	7	0.150763	-4.12433	-4.68531	17.5576
 380	1	7	0.144868	-6.25486	-5.96367	17.655
 381	1	7	0.134072	-4.13288	-9.42881	19.2395
 382	1	5	-0.300668	2.97071	-7.27221	22.0839
 383	1	5	-0.243237	3.81529	-8.078	17.0816
 384	1	9	0.021835	1.51834	-7.93727	15.8477
 385	1	9	0.012312	0.697339	-6.4181	16.2079
 386	1	9	0.041777	-0.0330392	-7.97619	16.5942
 387	1	9	0.110598	4.77545	-7.57356	17.1875
 388	1	9	0.08293	4.03224	-9.15848	17.1094
 389	1	9	0.082252	3.50836	-7.79261	16.0874
 390	1	9	0.027698	-0.839819	-6.11517	21.2666
 391	1	9	0.017051	0.500048	-6.12694	22.4284
 392	1	9	0.037874	-0.234624	-7.62282	21.9648
 393	1	9	0.095908	2.52869	-6.56628	22.7775
 394	1	9	0.127068	2.83147	-8.27002	22.5163
 395	1	9	0.099095	4.02889	-7.02819	22.1449
 396	1	4	0.492035	-24.0341	-3.29454	17.0792
 397	1	3	0.039235	-23.0304	-4.08212	17.6717
 398	1	1	-0.015324	-23.2488	-3.9876	19.1436
 399	1	3	0.029964	-24.8722	-2.71138	18.058
 400	1	1	0.070931	-24.3003	-3.14291	19.3678
 401	1	2	-0.376136	-22.0638	-4.63083	17.1783
 402	1	2	-0.378673	-25.7864	-1.88769	17.9405
 403	1	1	-0.008856	-22.5465	-4.5707	20.2083
 404	1	1	-0.050254	-24.6676	-2.75992	20.6643
 405	1	1	-0.199808	-23.9648	-3.32721	21.7467
 406	1	1	-0.056025	-22.9055	-4.25184	21.5479
 407	1	7	0.163004	-21.7647	-5.29068	19.9975
 408	1	7	0.15778	-25.4491	-2.02809	20.8623
 409	1	7	0.172843	-24.2867	-3.02577	22.7312
 410	1	5	-0.082157	-22.2277	-4.98988	22.7753
 411	1	5	0.321766	-22.5123	-4.2746	24.1573
 412	1	6	-0.115532	-23.8251	-4.38244	24.514
 413	1	6	-0.098544	-22.1837	-2.96419	24.074
 414	1	6	-0.116522	-21.8624	-4.79546	25.2255
 415	1	5	0.409577	-22.8835	-6.4501	22.7878
 416	1	6	-0.127323	-24.1869	-6.418	22.3746
 417	1	6	-0.131234	-22.881	-7.01455	23.9969
 418	1	6	-0.12834	-22.2378	-7.28141	21.9553
 419	1	1	-0.054598	-20.6695	-5.01686	22.66
 420	1	1	-0.114682	-19.977	-4.09081	21.8448
 421	1	1	-0.027292	-18.5845	-4.24031	21.6508
 422	1	1	-0.053307	-19.8961	-5.92351	23.4315
 423	1	1	-0.12014	-18.4984	-6.09782	23.2114
 424	1	1	-0.108895	-17.8865	-5.26039	22.2532
 425	1	3	0.53745	-16.5215	-5.34252	21.6375
 426	1	4	-0.142145	-16.497	-4.39087	20.6296
 427	1	3	0.571477	-17.6851	-3.63045	20.6182
 428	1	1	-0.002566	-15.4763	-4.31951	19.6207
 429	1	1	-0.337427	-15.809	-4.25076	18.2555
 430	1	1	0.463101	-14.8234	-4.38089	17.2587
 431	1	1	-0.077757	-14.0994	-4.37104	19.9471
 432	1	1	-0.17221	-13.0568	-4.36121	18.9967
 433	1	1	-0.341697	-13.4779	-4.4115	17.6488
 434	1	3	0.246259	-15.1998	-4.5411	15.8047
 435	1	7	0.163123	-17.9402	-6.90533	23.6692
 436	1	7	0.140059	-20.3843	-6.56437	24.1579
 437	1	7	0.184664	-20.5055	-3.30309	21.3146
 438	1	2	-0.57014	-18.0458	-2.75756	19.8509
 439	1	2	-0.478504	-15.7476	-6.26329	21.8283
 440	1	7	0.172599	-12.5631	-3.39685	19.1185
 441	1	7	0.35044	-16.8443	-4.21162	17.916
 442	1	7	0.154366	-13.8462	-4.50258	21.0021
 443	1	7	0.237262	-12.7131	-4.55006	16.886
 444	1	2	-0.49166	-16.3595	-4.6172	15.4706
 445	1	10	-0.100187	-14.1924	-4.60597	14.8833
 446	1	4	0.492035	-36.7982	1.91117	10.2154
 447	1	3	0.039235	-35.6056	2.32887	9.64461
 448	1	1	-0.015324	-34.5738	2.23281	10.7358
 449	1	3	0.029964	-36.66	1.57419	11.5793
 450	1	1	0.070931	-35.2137	1.83203	11.8897
 451	1	2	-0.376136	-35.4298	2.75455	8.5054
 452	1	2	-0.378673	-37.5037	1.11158	12.3274
 453	1	1	-0.008856	-33.1974	2.48303	10.658
 454	1	1	-0.050254	-34.5097	1.81603	13.0891
 455	1	1	-0.199808	-33.1079	2.0478	13.0653
 456	1	1	-0.056025	-32.4359	2.35714	11.8404
 457	1	7	0.163004	-32.7718	2.75063	9.70472
 458	1	7	0.15778	-34.9891	1.47746	14.005
 459	1	7	0.172843	-32.5443	1.94606	13.9941
 460	1	5	-0.082157	-30.8994	2.45599	11.8144
 461	1	5	0.321766	-30.2514	2.61893	10.3736
 462	1	6	-0.115532	-30.5459	3.81609	9.85022
 463	1	6	-0.098544	-30.6478	1.6562	9.48138
 464	1	6	-0.116522	-28.886	2.55652	10.3784
 465	1	5	0.409577	-30.5367	3.68947	12.762
 466	1	6	-0.127323	-30.5425	3.29985	14.0762
 467	1	6	-0.131234	-29.2947	4.1854	12.5736
 468	1	6	-0.12834	-31.3728	4.76419	12.5967
 469	1	1	-0.054598	-30.3444	1.12714	12.3461
 470	1	1	-0.114682	-29.0001	1.06354	12.7546
 471	1	1	-0.027292	-28.5087	-0.174407	13.1424
 472	1	1	-0.053307	-31.1141	-0.0937796	12.3452
 473	1	1	-0.12014	-30.5895	-1.31999	12.8284
 474	1	1	-0.108895	-29.256	-1.31716	13.2443
 475	1	3	0.53745	-28.3627	-2.41378	13.6758
 476	1	4	-0.142145	-27.1333	-1.82105	13.8015
 477	1	3	0.571477	-27.1145	-0.461322	13.5345
 478	1	1	-0.002566	-25.9653	-2.56203	14.0876
 479	1	1	-0.337427	-25.6027	-3.65847	13.2881
 480	1	1	0.463101	-24.4523	-4.39644	13.5666
 481	1	1	-0.077757	-25.239	-2.22744	15.2437
 482	1	1	-0.17221	-24.1165	-3.02354	15.6555
 483	1	1	-0.341697	-23.7617	-4.0914	14.7537
 484	1	3	0.246259	-24.0036	-5.51075	12.6037
 485	1	7	0.163123	-31.1909	-2.23295	12.8212
 486	1	7	0.140059	-32.1455	-0.120055	11.9592
 487	1	7	0.184664	-28.3387	1.93209	12.7618
 488	1	2	-0.57014	-26.159	0.290388	13.3777
 489	1	2	-0.478504	-28.6487	-3.59758	13.6854
 490	1	7	0.172599	-23.2413	-2.38389	15.7444
 491	1	7	0.35044	-26.1928	-3.92235	12.4272
 492	1	7	0.154366	-25.5174	-1.30149	15.7439
 493	1	7	0.237262	-22.921	-4.75256	14.9628
 494	1	2	-0.49166	-22.8641	-5.90873	12.5086
 495	1	10	-0.100187	-24.9453	-6.04106	11.7933
 496	1	1	-0.024347	-45.0535	5.34139	-0.124515
 497	1	1	-0.071478	-43.8824	5.21646	0.67317
 498	1	1	-0.180016	-43.7001	6.19431	1.70829
 499	1	2	-0.370097	-47.6095	6.23672	-1.64254
 500	1	1	0.010306	-45.9343	6.40144	0.110266
 501	1	1	-0.071748	-44.5865	7.28102	1.88531
 502	1	2	-0.403598	-46.7442	9.50332	1.61842
 503	1	1	0.055994	-45.7215	7.36995	1.08878
 504	1	3	0.021521	-47.0957	6.84867	-0.692215
 505	1	4	0.466017	-47.4991	8.09263	-0.143702
 506	1	3	0.096621	-46.7378	8.46825	0.978754
 507	1	1	-0.099438	-43.6505	2.77274	4.0646
 508	1	5	-0.089685	-42.8653	4.01917	0.541785
 509	1	1	-0.037281	-42.5751	3.53185	1.98367
 510	1	1	-0.08188	-43.7295	3.21149	2.73049
 511	1	1	-0.106561	-42.3867	2.61762	4.64159
 512	1	1	-0.037628	-41.2954	3.35302	2.58757
 513	1	1	-0.12234	-41.2256	2.87023	3.91804
 514	1	5	0.388954	-41.5869	4.56738	-0.199265
 515	1	5	0.307788	-43.4228	2.76831	-0.262457
 516	1	6	-0.129718	-40.9398	5.48888	0.539809
 517	1	6	-0.129089	-41.9153	5.12465	-1.39686
 518	1	6	-0.119089	-40.6709	3.62101	-0.477218
 519	1	6	-0.103894	-42.7935	1.56727	-0.0483814
 520	1	6	-0.097852	-43.3558	2.9762	-1.58209
 521	1	6	-0.104555	-44.708	2.50481	0.00941515
 522	1	3	0.521254	-40.073	2.69197	4.81282
 523	1	3	0.53569	-42.0254	2.27742	6.04054
 524	1	4	0.027822	-40.6196	2.33922	6.05606
 525	1	2	-0.468874	-38.9222	2.99831	4.56495
 526	1	2	-0.477974	-42.7659	1.94718	6.95573
 527	1	1	-0.359831	-39.8198	2.18526	7.24813
 528	1	1	0.131035	-39.401	3.30538	8.00138
 529	1	1	-0.120983	-38.5791	3.15974	9.15038
 530	1	1	0.127261	-39.3733	0.888423	7.5956
 531	1	1	-0.127195	-38.3608	0.764224	8.59493
 532	1	1	0.144798	-37.9992	1.88072	9.40851
 533	1	5	-0.020676	-40.0151	-0.346125	6.90071
 534	1	5	-0.019785	-39.6663	4.73152	7.51316
 535	1	7	0.164889	-45.2715	4.66345	-0.946966
 536	1	7	0.175264	-42.8427	6.15176	2.37854
 537	1	7	0.1582	-44.3678	8.05554	2.61993
 538	1	7	0.150763	-44.5352	2.55049	4.64902
 539	1	7	0.144868	-44.7183	3.29908	2.31286
 540	1	7	0.134072	-40.3709	3.59102	2.06777
 541	1	5	-0.300668	-38.2108	4.44375	9.93148
 542	1	5	-0.243237	-37.5874	-0.591401	8.69286
 543	1	9	0.021835	-39.6421	-0.459924	5.87245
 544	1	9	0.012312	-41.1121	-0.27939	6.86197
 545	1	9	0.041777	-39.8169	-1.27937	7.46024
 546	1	9	0.110598	-37.7166	-1.24031	7.81919
 547	1	9	0.08293	-36.5048	-0.428724	8.7929
 548	1	9	0.082252	-37.8833	-1.19167	9.5676
 549	1	9	0.027698	-40.4317	4.78545	6.74925
 550	1	9	0.017051	-38.7198	5.1432	7.10304
 551	1	9	0.037874	-40.0164	5.41942	8.30916
 552	1	9	0.095908	-37.8116	5.20839	9.23884
 553	1	9	0.127068	-39.0923	4.82579	10.4754
 554	1	9	0.099095	-37.4654	4.25896	10.7059
 555	1	4	0.492035	-47.6853	19.4625	-10.4466
 556	1	3	0.039235	-47.8732	20.125	-9.21552
 557	1	1	-0.015324	-48.1174	19.0314	-8.20643
 558	1	3	0.029964	-47.7335	18.0793	-10.2723
 559	1	1	0.070931	-47.9994	17.8049	-8.83806
 560	1	2	-0.376136	-47.7809	21.3169	-8.99813
 561	1	2	-0.378673	-47.6959	17.2771	-11.1826
 562	1	1	-0.008856	-48.4206	19.1112	-6.83602
 563	1	1	-0.050254	-48.3191	16.6023	-8.17179
 564	1	1	-0.199808	-48.6594	16.6619	-6.78722
 565	1	1	-0.056025	-48.6517	17.9227	-6.06376
 566	1	7	0.163004	-48.4783	20.1065	-6.38654
 567	1	7	0.15778	-48.3121	15.641	-8.69269
 568	1	7	0.172843	-48.795	15.7194	-6.2699
 569	1	5	-0.082157	-48.8697	18.0241	-4.47959
 570	1	5	0.321766	-50.3868	18.4055	-4.07203
 571	1	6	-0.115532	-51.2411	17.5138	-4.56448
 572	1	6	-0.098544	-50.8666	19.555	-4.58569
 573	1	6	-0.116522	-50.599	18.427	-2.74309
 574	1	5	0.409577	-47.948	19.1481	-3.81876
 575	1	6	-0.127323	-48.4363	20.4056	-3.98116
 576	1	6	-0.131234	-46.7338	19.2323	-4.38998
 577	1	6	-0.12834	-47.7256	18.928	-2.48296
 578	1	1	-0.054598	-48.4463	16.6036	-3.90631
 579	1	1	-0.114682	-49.3794	15.6124	-3.4035
 580	1	1	-0.027292	-48.9603	14.2915	-3.15348
 581	1	1	-0.053307	-47.0834	16.1831	-4.0549
 582	1	1	-0.12014	-46.6961	14.8413	-3.77468
 583	1	1	-0.108895	-47.6558	13.9049	-3.36668
 584	1	3	0.53745	-47.551	12.4306	-3.12162
 585	1	4	-0.142145	-48.8081	11.9886	-2.77622
 586	1	3	0.571477	-49.704	13.0413	-2.79193
 587	1	1	-0.002566	-49.079	10.6735	-2.30984
 588	1	1	-0.337427	-50.1963	9.95864	-2.77101
 589	1	1	0.463101	-50.6008	8.74293	-2.14024
 590	1	1	-0.077757	-48.2619	10.0764	-1.30931
 591	1	1	-0.17221	-48.6195	8.87549	-0.638663
 592	1	1	-0.341697	-49.7681	8.21115	-1.12441
 593	1	3	0.246259	-51.8835	7.99767	-2.5232
 594	1	7	0.163123	-45.6721	14.5146	-3.94188
 595	1	7	0.140059	-46.3347	16.828	-4.49561
 596	1	7	0.184664	-50.4176	15.8068	-3.27502
 597	1	2	-0.57014	-50.8729	12.9531	-2.52679
 598	1	2	-0.478504	-46.5652	11.7398	-3.29576
 599	1	7	0.172599	-48.9259	9.21906	0.351609
 600	1	7	0.35044	-50.817	10.3978	-3.53578
 601	1	7	0.154366	-47.3523	10.5672	-0.988221
 602	1	7	0.237262	-50.0573	7.24982	-0.731259
 603	1	2	-0.49166	-52.1757	6.86949	-2.10299
 604	1	10	-0.100187	-52.6802	8.59871	-3.44806
 605	1	1	-0.024347	-46.905	22.6005	-22.1855
 606	1	1	-0.071478	-48.0199	23.3697	-21.7773
 607	1	1	-0.180016	-48.0137	24.76	-22.1632
 608	1	2	-0.370097	-44.3445	21.3189	-23.5818
 609	1	1	0.010306	-45.8634	23.1417	-22.9891
 610	1	1	-0.071748	-46.9757	25.3131	-22.9676
 611	1	2	-0.403598	-44.3753	25.7938	-24.6975
 612	1	1	0.055994	-45.9187	24.4747	-23.3811
 613	1	3	0.021521	-44.7458	22.453	-23.7245
 614	1	4	0.466017	-44.2843	23.451	-24.5718
 615	1	3	0.096621	-44.7747	24.7242	-24.2857
 616	1	1	-0.099438	-49.0515	19.4542	-18.8714
 617	1	5	-0.089685	-49.2725	22.6769	-21.1259
 618	1	1	-0.037281	-48.819	21.6277	-20.0722
 619	1	1	-0.08188	-49.4228	20.3424	-19.9262
 620	1	1	-0.106561	-48.0844	19.8978	-17.9637
 621	1	1	-0.037628	-47.8555	22.0062	-19.0995
 622	1	1	-0.12234	-47.5022	21.1332	-18.0479
 623	1	5	0.388954	-50.1028	22.1229	-22.3562
 624	1	5	0.307788	-50.214	23.6718	-20.3372
 625	1	6	-0.129718	-49.5182	21.0298	-22.8836
 626	1	6	-0.129089	-51.3785	21.7526	-22.0308
 627	1	6	-0.119089	-50.1717	23.0498	-23.3607
 628	1	6	-0.103894	-49.5943	24.4441	-19.4223
 629	1	6	-0.097852	-51.1026	23.0101	-19.5565
 630	1	6	-0.104555	-50.9224	24.507	-21.1385
 631	1	3	0.521254	-46.7438	21.3737	-16.7854
 632	1	3	0.53569	-47.7483	19.3262	-16.6518
 633	1	4	0.027822	-47.0941	20.318	-15.9433
 634	1	2	-0.468874	-46.151	22.381	-16.4754
 635	1	2	-0.477974	-48.2058	18.2845	-16.2381
 636	1	1	-0.359831	-47.1122	20.3471	-14.5017
 637	1	1	0.131035	-48.323	20.7427	-13.902
 638	1	1	-0.120983	-48.5213	20.5556	-12.5157