pySIMM System Object

595 atoms
649 bonds
1141 angles
1728 dihedrals
182 impropers

11 atom types
13 bond types
22 angle types
9 dihedral types
4 improper types

-108.573652 108.573652 xlo xhi
-108.573652 108.573652 ylo yhi
-108.573652 108.573652 zlo zhi

Masses

   1	14.01	# n
   2	12.01	# c
   3	12.01	# ca
   4	1.008	# hn
   5	16.0	# o
   6	1.008	# ha
   7	12.01	# c3
   8	19.0	# f
   9	16.0	# oh
  10	1.008	# ho
  11	1.008	# hc

Pair Coeffs

   1	0.17	3.249998523775958	# n
   2	0.086	3.3996695084235347	# c
   3	0.086	3.3996695084235347	# ca
   4	0.0157	1.069078461768407	# hn
   5	0.21	2.959921901149463	# o
   6	0.015	2.59964245953351	# ha
   7	0.1094	3.3996695084235347	# c3
   8	0.061	3.1181455134911875	# f
   9	0.2104	3.0664733878390478	# oh
  10	0.0047	0.5379246460131368	# ho
  11	0.0157	2.649532787749369	# hc

Bond Coeffs

   1	345.9	1.4906	# c,ca
   2	400.1	1.3513	# c,oh
   3	345.8	1.086	# ca,ha
   4	637.7	1.2183	# c,o
   5	321.0	1.5156	# c3,ca
   6	300.9	1.5375	# c3,c3
   7	384.2	1.4121	# ca,n
   8	403.2	1.0129	# hn,n
   9	356.9	1.3497	# c3,f
  10	371.4	0.973	# ho,oh
  11	427.6	1.3789	# c,n
  12	461.1	1.3984	# ca,ca
  13	330.6	1.0969	# c3,hc

Angle Coeffs

   1	48.33	117.55	# c,n,hn
   2	64.28	120.33	# c,ca,ca
   3	67.68	115.25	# ca,c,n
   4	63.53	120.77	# c3,ca,ca
   5	67.87	120.19	# ca,ca,n
   6	70.89	107.36	# f,c3,f
   7	66.11	109.24	# c3,c3,f
   8	49.88	106.55	# c,oh,ho
   9	62.86	111.51	# c3,c3,c3
  10	63.15	112.07	# c3,c3,ca
  11	63.56	112.24	# ca,c3,ca
  12	63.82	123.71	# c,n,ca
  13	69.15	113.45	# ca,c,oh
  14	63.74	127.08	# c,n,c
  15	48.18	119.88	# ca,ca,ha
  16	74.22	123.05	# n,c,o
  17	75.92	122.1	# o,c,oh
  18	66.62	120.02	# ca,ca,ca
  19	68.72	122.6	# ca,c,o
  20	39.4	107.58	# hc,c3,hc
  21	46.8	110.47	# ca,c3,hc
  22	49.75	116.02	# ha,ca,n

Dihedral Coeffs

   1	1	2.3	2	180	# X,c,oh,X
   2	2	2.5	2	180	2.0	1	0	# hn,n,c,o
   3	1	3.625	2	180	# X,ca,ca,X
   4	2	2.3	2	180	1.9	1	0	# ho,oh,c,o
   5	1	0.15555555555555556	3	0	# X,c3,c3,X
   6	1	0.0	2	0	# X,c3,ca,X
   7	1	1.0	2	180	# X,c,ca,X
   8	1	2.5	2	180	# X,c,n,X
   9	1	0.45	2	180	# X,ca,n,X

Improper Coeffs

   1	1.1	-1	2	# ca,X,X,ha
   2	1.1	-1	2	# n,X,X,hn
   3	1.1	-1	2	# ca,ca,ca,c3
   4	10.5	-1	2	# c,X,X,o

Atoms

   1	1	1	0.492035	-9.55709	-10.9068	23.3345
   2	1	2	0.039235	-10.7996	-11.4459	23.6404
   3	1	3	-0.015324	-10.5873	-12.9018	23.7944
   4	1	2	0.029964	-8.63561	-11.8602	22.9698
   5	1	3	0.070931	-9.28136	-13.1544	23.3709
   6	1	5	-0.376136	-11.7755	-10.8434	24.037
   7	1	5	-0.378673	-7.48504	-11.7355	22.6198
   8	1	3	-0.008856	-11.3278	-13.8785	24.4833
   9	1	3	-0.050254	-8.67132	-14.4172	23.6153
  10	1	3	-0.199808	-9.42756	-15.3737	24.3053
  11	1	3	-0.056025	-10.7516	-15.127	24.7448
  12	1	6	0.163004	-12.2694	-13.6067	24.9455
  13	1	6	0.15778	-7.61746	-14.6041	23.3391
  14	1	6	0.172843	-8.9113	-16.3273	24.4729
  15	1	7	-0.082157	-11.535	-16.2655	25.4829
  16	1	7	0.321766	-12.2221	-17.1464	24.3504
  17	1	8	-0.115532	-12.906	-18.3143	24.6896
  18	1	8	-0.098544	-12.9991	-16.4678	23.4559
  19	1	8	-0.116522	-11.1695	-17.6264	23.6141
  20	1	7	0.409577	-10.6209	-17.2255	26.3788
  21	1	8	-0.127323	-11.4478	-18.0611	27.038
  22	1	8	-0.131234	-10.0048	-16.608	27.367
  23	1	8	-0.12834	-9.71299	-18.0079	25.7437
  24	1	3	-0.054598	-12.5447	-15.6305	26.522
  25	1	3	-0.114682	-12.002	-14.6973	27.413
  26	1	3	-0.027292	-12.6581	-14.5228	28.6201
  27	1	3	-0.053307	-13.864	-16.1611	26.7983
  28	1	3	-0.12014	-14.543	-15.9127	28.0198
  29	1	3	-0.108895	-13.8375	-15.1459	28.9742
  30	1	2	0.53745	-14.207	-14.7255	30.3673
  31	1	1	-0.142145	-13.2054	-13.8184	30.7756
  32	1	2	0.571477	-12.3214	-13.6207	29.7252
  33	1	3	-0.002566	-12.8231	-13.5194	32.1208
  34	1	3	-0.337427	-13.5146	-12.5734	32.9101
  35	1	3	0.463101	-13.0873	-12.2679	34.209
  36	1	3	-0.077757	-11.7124	-14.2	32.6703
  37	1	3	-0.17221	-11.3394	-13.9793	33.988
  38	1	3	-0.341697	-11.9622	-12.9617	34.7078
  39	1	2	0.246259	-13.689	-11.1148	34.9612
  40	1	6	0.163123	-15.4751	-16.4172	28.2433
  41	1	6	0.140059	-14.3685	-16.861	26.098
  42	1	6	0.184664	-11.0008	-14.2441	27.3008
  43	1	5	-0.57014	-11.2984	-12.9804	29.73
  44	1	5	-0.478504	-15.1399	-15.2686	30.9581
  45	1	6	0.172599	-10.4198	-14.4461	34.3754
  46	1	6	0.35044	-14.3894	-12.0755	32.5083
  47	1	6	0.154366	-11.187	-14.9063	32.0882
  48	1	6	0.237262	-11.6821	-12.8204	35.7462
  49	1	5	-0.49166	-14.6513	-10.5653	34.4785
  50	1	9	-0.100187	-13.0012	-10.6832	36.0434
  51	1	3	-0.024347	-11.2798	0.680419	28.0411
  52	1	3	-0.071478	-10.7264	0.0195899	29.1787
  53	1	3	-0.180016	-11.1084	0.470105	30.4871
  54	1	5	-0.370097	-13.0213	2.30131	26.1667
  55	1	3	0.010306	-12.1966	1.65516	28.3228
  56	1	3	-0.071748	-12.0165	1.5111	30.7387
  57	1	5	-0.403598	-13.5793	4.11975	30.4524
  58	1	3	0.055994	-12.5296	2.11336	29.6134
  59	1	2	0.021521	-12.873	2.52197	27.3665
  60	1	1	0.466017	-13.424	3.53111	28.1449
  61	1	2	0.096621	-13.2607	3.38616	29.5358
  62	1	3	-0.099438	-11.8494	-3.24639	26.573
  63	1	7	-0.089685	-9.6858	-1.14488	28.9726
  64	1	3	-0.037281	-10.0613	-1.98719	27.7347
  65	1	3	-0.08188	-11.4275	-2.34113	27.5519
  66	1	3	-0.106561	-10.8985	-3.95432	25.8471
  67	1	3	-0.037628	-9.11826	-2.60744	26.868
  68	1	3	-0.12234	-9.57601	-3.57799	25.8918
  69	1	7	0.388954	-8.22909	-0.467558	28.9245
  70	1	7	0.307788	-9.7617	-2.14475	30.2291
  71	1	8	-0.129718	-7.21886	-1.36058	28.978
  72	1	8	-0.129089	-8.09608	0.373859	29.9516
  73	1	8	-0.119089	-8.03617	0.316433	27.8696
  74	1	8	-0.103894	-9.20928	-1.61276	31.3669
  75	1	8	-0.097852	-9.14745	-3.33496	29.9134
  76	1	8	-0.104555	-11.053	-2.52178	30.5025
  77	1	2	0.521254	-8.78791	-4.54653	25.0972
  78	1	2	0.53569	-11.0066	-5.18375	24.9667
  79	1	1	0.027822	-9.68537	-5.54187	24.6593
  80	1	5	-0.468874	-7.5631	-4.58602	25.1171
  81	1	5	-0.477974	-12.0391	-5.78198	24.7959
  82	1	3	-0.359831	-9.27763	-6.83857	24.2378
  83	1	3	0.131035	-9.57381	-7.23401	22.9302
  84	1	3	-0.120983	-9.6511	-8.58991	22.5738
  85	1	3	0.127261	-8.89107	-7.79959	25.2402
  86	1	3	-0.127195	-8.79963	-9.17462	24.8563
  87	1	3	0.144798	-9.23451	-9.5225	23.5347
  88	1	7	-0.020676	-8.60861	-7.37682	26.6768
  89	1	7	-0.019785	-9.85541	-6.10024	21.9755
  90	1	6	0.164889	-11.0357	0.383196	27.0247
  91	1	6	0.175264	-10.7084	0.120381	31.4317
  92	1	6	0.1582	-12.2423	1.91112	31.7292
  93	1	6	0.150763	-12.887	-3.52757	26.5012
  94	1	6	0.144868	-12.2062	-1.94877	28.1717
  95	1	6	0.134072	-8.06743	-2.32063	26.8838
  96	1	7	-0.300668	-9.90259	-9.06802	21.1364
  97	1	7	-0.243237	-8.18938	-10.2204	25.8279
  98	1	11	0.021835	-7.64583	-7.70962	27.107
  99	1	11	0.012312	-9.42865	-7.61151	27.3366
 100	1	11	0.041777	-8.53444	-6.30564	26.8111
 101	1	11	0.110598	-7.70658	-9.8303	26.7666
 102	1	11	0.08293	-8.84267	-11.0501	26.1444
 103	1	11	0.082252	-7.36458	-10.6516	25.2722
 104	1	11	0.027698	-9.98178	-6.44767	20.9587
 105	1	11	0.017051	-9.07101	-5.32881	21.8789
 106	1	11	0.037874	-10.7579	-5.51862	22.2152
 107	1	11	0.095908	-9.61326	-8.36634	20.3406
 108	1	11	0.127068	-9.40743	-10.002	20.8179
 109	1	11	0.099095	-10.9899	-9.1547	21.0579
 110	1	3	-0.024347	-15.8405	11.7999	19.9448
 111	1	3	-0.071478	-17.1823	11.3852	19.8678
 112	1	3	-0.180016	-17.6763	11.0094	18.5866
 113	1	5	-0.370097	-13.0467	12.9307	19.3339
 114	1	3	0.010306	-15.0812	11.7684	18.7472
 115	1	3	-0.071748	-16.842	10.9512	17.4345
 116	1	5	-0.403598	-14.7428	11.6493	15.2562
 117	1	3	0.055994	-15.5392	11.3575	17.5237
 118	1	2	0.021521	-13.7468	12.4011	18.504
 119	1	1	0.466017	-13.4928	12.3865	17.153
 120	1	2	0.096621	-14.5474	11.7448	16.4586
 121	1	3	-0.099438	-17.2001	11.2034	24.8512
 122	1	7	-0.089685	-18.1699	11.738	21.0605
 123	1	3	-0.037281	-17.567	11.1877	22.4112
 124	1	3	-0.08188	-17.674	11.8229	23.6794
 125	1	3	-0.106561	-16.646	9.92748	24.8223
 126	1	3	-0.037628	-16.9458	9.88798	22.4002
 127	1	3	-0.12234	-16.5369	9.28251	23.597
 128	1	7	0.388954	-19.6003	11.0498	20.8897
 129	1	7	0.307788	-18.3484	13.3113	21.1689
 130	1	8	-0.129718	-20.4214	11.6638	20.0662
 131	1	8	-0.129089	-20.245	10.9899	22.0678
 132	1	8	-0.119089	-19.4688	9.78964	20.4471
 133	1	8	-0.103894	-19.4412	13.7978	21.7982
 134	1	8	-0.097852	-18.4581	13.8772	19.9715
 135	1	8	-0.104555	-17.2646	13.8711	21.7047
 136	1	2	0.521254	-15.9156	7.96637	23.854
 137	1	2	0.53569	-16.2696	8.94871	25.9146
 138	1	1	0.027822	-15.8379	7.78072	25.262
 139	1	5	-0.468874	-15.6569	7.10136	23.0166
 140	1	5	-0.477974	-16.2862	9.13048	27.1195
 141	1	3	-0.359831	-15.2388	6.70528	26.013
 142	1	3	0.131035	-16.0689	5.67469	26.559
 143	1	3	-0.120983	-15.4653	4.56071	27.2131
 144	1	3	0.127261	-13.9171	6.78374	26.3723
 145	1	3	-0.127195	-13.3127	5.718	27.0808
 146	1	3	0.144798	-14.0963	4.63384	27.5059
 147	1	7	-0.020676	-13.0344	7.91509	25.855
 148	1	7	-0.019785	-17.5878	5.60352	26.4072
 149	1	6	0.164889	-15.366	12.1413	20.8702
 150	1	6	0.175264	-18.7571	10.7772	18.4101
 151	1	6	0.1582	-17.1866	10.7591	16.4171
 152	1	6	0.150763	-17.3496	11.6699	25.8582
 153	1	6	0.144868	-18.1781	12.7951	23.8315
 154	1	6	0.134072	-16.7675	9.38222	21.4197
 155	1	7	-0.300668	-16.2291	3.28629	27.5462
 156	1	7	-0.243237	-11.8153	5.72232	27.478
 157	1	11	0.021835	-13.5663	8.76322	25.4083
 158	1	11	0.012312	-12.4568	7.51378	24.9802
 159	1	11	0.041777	-12.2893	8.26579	26.5093
 160	1	11	0.110598	-11.4641	4.96809	28.1969
 161	1	11	0.08293	-11.1515	5.63758	26.6256
 162	1	11	0.082252	-11.5885	6.59894	28.0079
 163	1	11	0.027698	-18.031	5.24862	27.3384
 164	1	11	0.017051	-17.8594	4.82764	25.6207
 165	1	11	0.037874	-18.0545	6.59552	26.1851
 166	1	11	0.095908	-17.2661	3.17319	27.2107
 167	1	11	0.127068	-15.7471	2.48939	27.0029
 168	1	11	0.099095	-16.1881	3.08999	28.6266
 169	1	3	-0.024347	-5.50485	19.7458	10.8306
 170	1	3	-0.071478	-5.73711	20.7307	11.8629
 171	1	3	-0.180016	-5.81989	22.0678	11.4498
 172	1	5	-0.370097	-5.65379	17.9342	8.41842
 173	1	3	0.010306	-5.59901	20.0985	9.51851
 174	1	3	-0.071748	-5.77063	22.4608	10.0785
 175	1	5	-0.403598	-5.79684	22.421	6.9352
 176	1	3	0.055994	-5.77765	21.4111	9.14963
 177	1	2	0.021521	-5.67627	19.1657	8.36251
 178	1	1	0.466017	-5.8458	20.0465	7.29506
 179	1	2	0.096621	-5.84069	21.4133	7.65957
 180	1	3	-0.099438	-8.47788	17.519	11.8814
 181	1	7	-0.089685	-6.0818	20.2393	13.3447
 182	1	3	-0.037281	-7.02943	18.9854	13.2861
 183	1	3	-0.08188	-7.83049	18.7455	12.1207
 184	1	3	-0.106561	-8.34126	16.5121	12.8259
 185	1	3	-0.037628	-7.12058	18.0586	14.3242
 186	1	3	-0.12234	-7.78279	16.8295	14.0793
 187	1	7	0.388954	-6.98998	21.2381	14.1664
 188	1	7	0.307788	-4.72083	19.9523	14.1121
 189	1	8	-0.129718	-8.15841	21.5224	13.519
 190	1	8	-0.129089	-6.3228	22.363	14.3853
 191	1	8	-0.119089	-7.28943	20.8143	15.4122
 192	1	8	-0.103894	-4.78845	19.5605	15.4207
 193	1	8	-0.097852	-3.87124	21.0042	14.0168
 194	1	8	-0.104555	-4.19457	18.9707	13.3203
 195	1	2	0.521254	-8.33892	15.8334	15.0129
 196	1	2	0.53569	-9.11412	15.2279	12.9284
 197	1	1	0.027822	-9.21463	15.0209	14.3239
 198	1	5	-0.468874	-7.96452	15.8233	16.1781
 199	1	5	-0.477974	-9.84894	14.771	12.0892
 200	1	3	-0.359831	-10.346	14.3748	14.9633
 201	1	3	0.131035	-11.5874	15.0656	15.231
 202	1	3	-0.120983	-12.6169	14.4289	16.0372
 203	1	3	0.127261	-10.2818	12.9914	15.2503
 204	1	3	-0.127195	-11.3089	12.3502	15.954
 205	1	3	0.144798	-12.4701	13.0845	16.3926
 206	1	7	-0.020676	-9.01051	12.2114	14.9255
 207	1	7	-0.019785	-11.6603	16.5576	14.8152
 208	1	6	0.164889	-5.36156	18.689	11.0948
 209	1	6	0.175264	-5.9296	22.8777	12.1907
 210	1	6	0.1582	-5.87819	23.482	9.81195
 211	1	6	0.150763	-9.03761	17.3817	10.958
 212	1	6	0.144868	-7.89002	19.4754	11.3231
 213	1	6	0.134072	-6.72945	18.2838	15.2984
 214	1	7	-0.300668	-13.8701	15.1807	16.4928
 215	1	7	-0.243237	-11.2821	10.8765	16.2364
 216	1	11	0.021835	-9.16546	11.2202	14.5971
 217	1	11	0.012312	-8.34871	12.2068	15.8492
 218	1	11	0.041777	-8.42023	12.6913	14.1411
 219	1	11	0.110598	-10.6045	10.7072	17.0304
 220	1	11	0.08293	-12.242	10.3778	16.5121
 221	1	11	0.082252	-11.023	10.3174	15.3537
 222	1	11	0.027698	-11.0527	17.2007	15.4848
 223	1	11	0.017051	-12.6679	16.9764	14.9139
 224	1	11	0.037874	-11.3776	16.7325	13.7617
 225	1	11	0.095908	-14.7403	14.5753	16.2903
 226	1	11	0.127068	-13.8565	15.2769	17.5833
 227	1	11	0.099095	-14.0211	16.2004	16.12
 228	1	1	0.492035	1.60408	10.9743	4.74909
 229	1	2	0.039235	1.62258	11.3563	3.39152
 230	1	3	-0.015324	1.53168	12.8557	3.34807
 231	1	2	0.029964	1.29174	12.0711	5.58326
 232	1	3	0.070931	1.3701	13.2811	4.68073
 233	1	5	-0.376136	1.55216	10.6856	2.39265
 234	1	5	-0.378673	0.982262	12.0325	6.75646
 235	1	3	-0.008856	1.64896	13.7608	2.2988
 236	1	3	-0.050254	1.43712	14.6526	4.98964
 237	1	3	-0.199808	1.43469	15.5655	3.91945
 238	1	3	-0.056025	1.52635	15.1531	2.54463
 239	1	6	0.163004	1.76954	13.4163	1.28565
 240	1	6	0.15778	1.37683	14.9892	6.01992
 241	1	6	0.172843	1.51348	16.6406	4.08707
 242	1	7	-0.082157	1.62887	16.1885	1.40027
 243	1	7	0.321766	1.42238	15.5538	-0.0643502
 244	1	8	-0.115532	1.30704	16.4893	-1.08154
 245	1	8	-0.098544	0.276407	14.8014	-0.18281
 246	1	8	-0.116522	2.47354	14.776	-0.421527
 247	1	7	0.409577	3.0859	16.7875	1.59615
 248	1	8	-0.127323	3.53167	17.4925	0.526436
 249	1	8	-0.131234	3.1446	17.6122	2.68417
 250	1	8	-0.12834	4.01514	15.8156	1.86916
 251	1	3	-0.054598	0.560361	17.3159	1.60174
 252	1	3	-0.114682	-0.714409	16.9768	2.1199
 253	1	3	-0.027292	-1.70285	17.9632	2.27157
 254	1	3	-0.053307	0.723628	18.6896	1.20558
 255	1	3	-0.12014	-0.334965	19.5888	1.21557
 256	1	3	-0.108895	-1.53751	19.2778	1.82617
 257	1	2	0.53745	-2.6823	20.1332	2.38721
 258	1	1	-0.142145	-3.36115	19.244	3.23522
 259	1	2	0.571477	-2.85898	17.9496	3.16878
 260	1	3	-0.002566	-4.62334	19.6215	3.8754
 261	1	3	-0.337427	-5.65796	20.3119	3.15629
 262	1	3	0.463101	-6.83702	20.7336	3.79117
 263	1	3	-0.077757	-4.79317	19.3793	5.27928
 264	1	3	-0.17221	-6.02905	19.7138	5.92692
 265	1	3	-0.341697	-6.9692	20.4838	5.21249
 266	1	2	0.246259	-7.94408	21.316	2.95772
 267	1	6	0.163123	-0.166969	20.5743	0.837819
 268	1	6	0.140059	1.64419	19.0345	0.769997
 269	1	6	0.184664	-0.898249	15.9746	2.53469
 270	1	5	-0.57014	-3.22523	17.0402	3.878
 271	1	5	-0.478504	-2.72322	21.3668	2.45276
 272	1	6	0.172599	-6.5444	18.7515	6.08051
 273	1	6	0.35044	-5.56199	20.5068	2.06639
 274	1	6	0.154366	-4.02914	18.8119	5.82808
 275	1	6	0.237262	-7.95068	20.7553	5.6216
 276	1	5	-0.49166	-7.87119	21.3445	1.75841
 277	1	9	-0.100187	-8.9952	21.8782	3.52799
 278	1	1	0.492035	13.0381	2.00582	2.2353
 279	1	2	0.039235	12.9202	2.03021	3.61438
 280	1	3	-0.015324	12.1717	3.26684	3.95376
 281	1	2	0.029964	12.6395	3.23191	1.64277
 282	1	3	0.070931	11.9704	3.97593	2.75682
 283	1	5	-0.376136	13.2091	1.1649	4.40562
 284	1	5	-0.378673	12.4679	3.40622	0.435854
 285	1	3	-0.008856	11.9192	3.88905	5.19392
 286	1	3	-0.050254	11.2628	5.2052	2.74728
 287	1	3	-0.199808	10.8968	5.74812	3.97054
 288	1	3	-0.056025	11.1825	5.09199	5.21196
 289	1	6	0.163004	12.1922	3.35297	6.10752
 290	1	6	0.15778	11.0147	5.64975	1.76876
 291	1	6	0.172843	10.3463	6.67306	3.99603
 292	1	7	-0.082157	10.8388	5.85784	6.53182
 293	1	7	0.321766	12.191	6.6991	6.72533
 294	1	8	-0.115532	12.1236	7.56232	7.78516
 295	1	8	-0.098544	12.3929	7.44412	5.61201
 296	1	8	-0.116522	13.3283	5.96168	6.83412
 297	1	7	0.409577	10.6774	4.95308	7.82802
 298	1	8	-0.127323	10.2333	5.6878	8.8735
 299	1	8	-0.131234	11.8038	4.41885	8.16579
 300	1	8	-0.12834	9.76043	3.97112	7.56072
 301	1	3	-0.054598	9.52657	6.77637	6.45757
 302	1	3	-0.114682	8.22594	6.18969	6.45592
 303	1	3	-0.027292	7.08457	7.03409	6.37783
 304	1	3	-0.053307	9.65099	8.2119	6.49559
 305	1	3	-0.12014	8.4815	9.00578	6.39326
 306	1	3	-0.108895	7.19659	8.40624	6.31467
 307	1	2	0.53745	5.8884	8.92417	5.81242
 308	1	1	-0.142145	4.98349	7.84277	5.73685
 309	1	2	0.571477	5.66494	6.68313	6.02728
 310	1	3	-0.002566	3.62968	8.00104	5.31801
 311	1	3	-0.337427	3.01021	7.14508	4.40874
 312	1	3	0.463101	1.69399	7.41895	3.92168
 313	1	3	-0.077757	2.9111	9.16033	5.74608
 314	1	3	-0.17221	1.69283	9.55264	5.1818
 315	1	3	-0.341697	1.10287	8.67483	4.24485
 316	1	2	0.246259	1.02257	6.41434	2.99601
 317	1	6	0.163123	8.55594	10.0972	6.20676
 318	1	6	0.140059	10.5726	8.76908	6.43762
 319	1	6	0.184664	8.05515	5.09791	6.54265
 320	1	5	-0.57014	5.24901	5.51854	5.84892
 321	1	5	-0.478504	5.71868	10.081	5.57354
 322	1	6	0.172599	1.05062	9.65665	6.02524
 323	1	6	0.35044	3.51768	6.25798	4.00491
 324	1	6	0.154366	3.49537	9.83392	6.36137
 325	1	6	0.237262	0.202127	8.92957	3.75485
 326	1	5	-0.49166	1.49728	5.30223	2.79634
 327	1	9	-0.100187	-0.295083	6.7441	2.70197
 328	1	1	0.492035	9.6437	-8.6583	-4.6529
 329	1	2	0.039235	9.53385	-9.30487	-3.38646
 330	1	3	-0.015324	8.71822	-8.42812	-2.55351
 331	1	2	0.029964	8.83008	-7.51921	-4.72247
 332	1	3	0.070931	8.30556	-7.33743	-3.29271
 333	1	5	-0.376136	9.98442	-10.3848	-3.04053
 334	1	5	-0.378673	8.82823	-6.65553	-5.6105
 335	1	3	-0.008856	8.64618	-8.49652	-1.1666
 336	1	3	-0.050254	7.75934	-6.2378	-2.63502
 337	1	3	-0.199808	7.6462	-6.31667	-1.2167
 338	1	3	-0.056025	8.07351	-7.42644	-0.454453
 339	1	6	0.163004	9.09218	-9.36819	-0.695242
 340	1	6	0.15778	7.47685	-5.33812	-3.14078
 341	1	6	0.172843	7.18552	-5.4841	-0.706471
 342	1	7	-0.082157	7.90275	-7.38419	1.10227
 343	1	7	0.321766	6.35609	-7.6246	1.39133
 344	1	8	-0.115532	5.8571	-8.53015	0.502045
 345	1	8	-0.098544	5.62098	-6.52834	1.24984
 346	1	8	-0.116522	6.13345	-8.08721	2.66193
 347	1	7	0.409577	8.78255	-8.45201	1.8702
 348	1	8	-0.127323	10.058	-8.51894	1.40001
 349	1	8	-0.131234	8.27469	-9.68381	1.77563
 350	1	8	-0.12834	8.93462	-8.26221	3.21416
 351	1	3	-0.054598	8.35872	-5.96297	1.62261
 352	1	3	-0.114682	9.56701	-5.44065	1.06963
 353	1	3	-0.027292	9.98961	-4.14356	1.49658
 354	1	3	-0.053307	7.72876	-5.22346	2.64731
 355	1	3	-0.12014	8.07535	-3.87616	2.9086
 356	1	3	-0.108895	9.26837	-3.39873	2.37799
 357	1	2	0.53745	10.0413	-2.14658	2.65858
 358	1	1	-0.142145	11.2748	-2.2135	1.96399
 359	1	2	0.571477	11.2885	-3.37272	1.23753
 360	1	3	-0.002566	12.4239	-1.36451	2.06634
 361	1	3	-0.337427	13.6852	-1.86989	2.35196
 362	1	3	0.463101	14.8479	-1.07485	2.26092
 363	1	3	-0.077757	12.2977	-0.030877	1.66922
 364	1	3	-0.17221	13.3878	0.764337	1.55006
 365	1	3	-0.341697	14.6303	0.281916	1.8877
 366	1	2	0.246259	16.213	-1.57355	2.43841
 367	1	6	0.163123	7.54041	-3.36147	3.68738
 368	1	6	0.140059	6.93703	-5.67898	3.30756
 369	1	6	0.184664	10.2139	-5.98857	0.351425
 370	1	5	-0.57014	12.2432	-3.83191	0.659031
 371	1	5	-0.478504	9.66785	-1.17605	3.30061
 372	1	6	0.172599	13.4371	1.20468	0.560769
 373	1	6	0.35044	13.7522	-2.90673	2.61681
 374	1	6	0.154366	11.3077	0.325005	1.40335
 375	1	6	0.237262	15.5583	0.885926	1.73307
 376	1	5	-0.49166	17.1405	-0.832926	2.71641
 377	1	9	-0.100187	16.4036	-2.81001	1.81872
 378	1	3	-0.024347	18.8511	-10.1111	-12.982
 379	1	3	-0.071478	19.5352	-9.07648	-12.2928
 380	1	3	-0.180016	20.4705	-8.31069	-13.006
 381	1	5	-0.370097	17.859	-12.3132	-15.0179
 382	1	3	0.010306	19.107	-10.3787	-14.3519
 383	1	3	-0.071748	20.8073	-8.62884	-14.3522
 384	1	5	-0.403598	20.3543	-9.36512	-17.3886
 385	1	3	0.055994	19.986	-9.53319	-15.0077
 386	1	2	0.021521	18.5834	-11.4005	-15.3417
 387	1	1	0.466017	19.1113	-11.069	-16.5811
 388	1	2	0.096621	19.8738	-9.9575	-16.4587
 389	1	3	-0.099438	15.4496	-8.52081	-11.4591
 390	1	7	-0.089685	19.2204	-8.86295	-10.7648
 391	1	3	-0.037281	17.7169	-8.99098	-10.5323
 392	1	3	-0.08188	16.8573	-8.42374	-11.5142
 393	1	3	-0.106561	14.9096	-9.18652	-10.2942
 394	1	3	-0.037628	17.161	-9.57574	-9.36924
 395	1	3	-0.12234	15.7582	-9.6794	-9.35638
 396	1	7	0.388954	19.5411	-7.37104	-10.4066
 397	1	7	0.307788	20.22	-9.90478	-10.0924
 398	1	8	-0.129718	20.9338	-7.19924	-10.3138
 399	1	8	-0.129089	18.8958	-7.07681	-9.22986
 400	1	8	-0.119089	19.0276	-6.53699	-11.2847
 401	1	8	-0.103894	19.6983	-11.1275	-10.2935
 402	1	8	-0.097852	20.3857	-9.71045	-8.78235
 403	1	8	-0.104555	21.4969	-10.0004	-10.5604
 404	1	2	0.521254	14.9506	-10.1661	-8.19918
 405	1	2	0.53569	13.5058	-9.14828	-9.82004
 406	1	1	0.027822	13.6727	-9.67282	-8.513
 407	1	5	-0.468874	15.3671	-10.7467	-7.18519
 408	1	5	-0.477974	12.5898	-8.47959	-10.2424
 409	1	3	-0.359831	12.7646	-9.54183	-7.44457
 410	1	3	0.131035	11.6402	-10.411	-7.39851
 411	1	3	-0.120983	10.636	-10.1307	-6.41974
 412	1	3	0.127261	12.8413	-8.40747	-6.5708
 413	1	3	-0.127195	11.8333	-8.12425	-5.61274
 414	1	3	0.144798	10.7012	-8.96862	-5.62513
 415	1	7	-0.020676	13.912	-7.33731	-6.87221
 416	1	7	-0.019785	11.5603	-11.6223	-8.32489
 417	1	6	0.164889	18.167	-10.7314	-12.3997
 418	1	6	0.175264	21.0783	-7.52638	-12.548
 419	1	6	0.1582	21.6281	-8.1139	-14.9086
 420	1	6	0.150763	14.802	-8.04234	-12.2185
 421	1	6	0.144868	17.255	-8.03672	-12.3965
 422	1	6	0.134072	17.6891	-10.0951	-8.63858
 423	1	7	-0.300668	9.33652	-10.9904	-6.45914
 424	1	7	-0.243237	11.8588	-6.7768	-4.83932
 425	1	11	0.021835	14.3769	-6.8933	-5.95082
 426	1	11	0.012312	13.4553	-6.479	-7.40304
 427	1	11	0.041777	14.6919	-7.67457	-7.56703
 428	1	11	0.110598	11.6366	-5.91504	-5.49424
 429	1	11	0.08293	11.127	-6.72118	-4.02478
 430	1	11	0.082252	12.7926	-6.65229	-4.29527
 431	1	11	0.027698	11.1635	-12.5814	-7.84713
 432	1	11	0.017051	12.5437	-11.9279	-8.70887
 433	1	11	0.037874	10.799	-11.4455	-9.14028
 434	1	11	0.095908	9.40783	-11.926	-5.89473
 435	1	11	0.127068	8.45521	-10.4967	-6.03264
 436	1	11	0.099095	8.98458	-11.1073	-7.52976
 437	1	1	0.492035	9.26915	-5.37904	-27.5895
 438	1	2	0.039235	9.14825	-5.74171	-26.2726
 439	1	3	-0.015324	10.5043	-5.88499	-25.809
 440	1	2	0.029964	10.5984	-5.29906	-28.0736
 441	1	3	0.070931	11.3685	-5.64064	-26.8299
 442	1	5	-0.376136	8.15205	-5.82986	-25.6161
 443	1	5	-0.378673	10.9876	-5.02045	-29.1845
 444	1	3	-0.008856	11.0173	-6.13553	-24.4975
 445	1	3	-0.050254	12.7394	-5.8187	-26.6782
 446	1	3	-0.199808	13.215	-6.14764	-25.3769
 447	1	3	-0.056025	12.3703	-6.22589	-24.24
 448	1	6	0.163004	10.2363	-6.12655	-23.7686
 449	1	6	0.15778	13.4738	-5.82226	-27.5482
 450	1	6	0.172843	14.2659	-6.31266	-25.2478
 451	1	7	-0.082157	12.8191	-6.23049	-22.7382
 452	1	7	0.321766	13.6646	-4.86089	-22.5084
 453	1	8	-0.115532	12.9319	-3.76985	-22.6164
 454	1	8	-0.098544	14.6451	-4.60313	-23.3835
 455	1	8	-0.116522	14.3788	-4.84818	-21.3032
 456	1	7	0.409577	11.6571	-6.33035	-21.6842
 457	1	8	-0.127323	12.2301	-6.13177	-20.4736
 458	1	8	-0.131234	11.1135	-7.59618	-21.4763
 459	1	8	-0.12834	10.7804	-5.32274	-21.6848
 460	1	3	-0.054598	13.7994	-7.47162	-22.6044
 461	1	3	-0.114682	14.5855	-7.74711	-21.4235
 462	1	3	-0.027292	15.4046	-8.90089	-21.3278
 463	1	3	-0.053307	13.771	-8.57308	-23.5056
 464	1	3	-0.12014	14.6288	-9.68424	-23.469
 465	1	3	-0.108895	15.4592	-9.83715	-22.3838
 466	1	2	0.53745	16.3717	-10.8812	-21.9964
 467	1	1	-0.142145	16.6936	-10.6898	-20.672
 468	1	2	0.571477	16.2025	-9.48286	-20.2271
 469	1	3	-0.002566	17.5231	-11.5672	-19.879
 470	1	3	-0.337427	17.3071	-12.957	-19.7741
 471	1	3	0.463101	17.7315	-13.7134	-18.702
 472	1	3	-0.077757	18.4741	-11.0536	-18.9887
 473	1	3	-0.17221	19.0061	-11.7993	-17.8502
 474	1	3	-0.341697	18.5499	-13.1245	-17.7152
 475	1	2	0.246259	17.2884	-15.1729	-18.5366
 476	1	6	0.163123	14.6821	-10.3469	-24.2377
 477	1	6	0.140059	13.0428	-8.57305	-24.3512
 478	1	6	0.184664	14.5683	-7.20297	-20.4665
 479	1	5	-0.57014	16.2179	-9.09741	-19.085
 480	1	5	-0.478504	16.4989	-11.8988	-22.661
 481	1	6	0.172599	20.0947	-11.827	-17.8698
 482	1	6	0.35044	16.5697	-13.439	-20.3804
 483	1	6	0.154366	18.7555	-10.0566	-19.1469
 484	1	6	0.237262	18.6597	-13.6824	-16.7473
 485	1	5	-0.49166	16.8581	-15.8246	-19.5141
 486	1	9	-0.100187	17.7282	-15.7335	-17.3774
 487	1	1	0.492035	-2.65924	-4.01676	-31.1545
 488	1	2	0.039235	-1.55164	-4.85774	-31.1032
 489	1	3	-0.015324	-1.88129	-5.90889	-30.1278
 490	1	2	0.029964	-3.71173	-4.4234	-30.2798
 491	1	3	0.070931	-3.12403	-5.67039	-29.6109
 492	1	5	-0.376136	-0.491737	-4.83613	-31.6698
 493	1	5	-0.378673	-4.84636	-3.8654	-30.2111
 494	1	3	-0.008856	-1.09596	-6.96288	-29.7315
 495	1	3	-0.050254	-3.63455	-6.45727	-28.5806
 496	1	3	-0.199808	-2.80136	-7.54618	-28.0677
 497	1	3	-0.056025	-1.53584	-7.82384	-28.6966
 498	1	6	0.163004	-0.154466	-7.13006	-30.2856
 499	1	6	0.15778	-4.65188	-6.12968	-28.1643
 500	1	6	0.172843	-3.14736	-8.21028	-27.2788
 501	1	7	-0.082157	-0.650926	-9.04283	-28.2124
 502	1	7	0.321766	-0.801745	-9.22858	-26.6896
 503	1	8	-0.115532	0.244705	-9.9642	-26.1896
 504	1	8	-0.098544	-1.84307	-9.97725	-26.2137
 505	1	8	-0.116522	-0.714486	-7.99925	-26.1119
 506	1	7	0.409577	-1.19152	-10.2893	-29.0076
 507	1	8	-0.127323	-2.45389	-10.5978	-28.6055
 508	1	8	-0.131234	-0.576338	-11.4077	-28.693
 509	1	8	-0.12834	-1.22801	-10.1621	-30.3234
 510	1	3	-0.054598	0.859736	-8.6872	-28.5875
 511	1	3	-0.114682	1.45763	-7.42436	-28.1969
 512	1	3	-0.027292	2.74822	-7.12461	-28.5499
 513	1	3	-0.053307	1.5983	-9.46881	-29.5135
 514	1	3	-0.12014	2.94801	-9.23057	-29.7568
 515	1	3	-0.108895	3.47797	-8.05672	-29.2589
 516	1	2	0.53745	4.83907	-7.52285	-29.5112
 517	1	1	-0.142145	4.81917	-6.24464	-28.8632
 518	1	2	0.571477	3.60723	-5.94399	-28.2577
 519	1	3	-0.002566	5.88651	-5.36618	-28.947
 520	1	3	-0.337427	5.92045	-4.25145	-29.8442
 521	1	3	0.463101	7.12672	-3.50934	-30.0842
 522	1	3	-0.077757	7.09522	-5.81531	-28.3956
 523	1	3	-0.17221	8.15551	-4.88342	-28.2712
 524	1	3	-0.341697	8.23371	-3.9143	-29.3032
 525	1	2	0.246259	7.16074	-2.47849	-31.1698
 526	1	6	0.163123	3.55705	-9.95524	-30.3799
 527	1	6	0.140059	1.23147	-10.4514	-29.7692
 528	1	6	0.184664	0.918676	-6.70897	-27.6192
 529	1	5	-0.57014	3.33567	-4.98485	-27.4494
 530	1	5	-0.478504	5.62547	-7.95984	-30.3387
 531	1	6	0.172599	7.82568	-4.14487	-27.5567
 532	1	6	0.35044	4.97531	-3.96548	-30.39
 533	1	6	0.154366	7.18415	-6.83424	-27.9204
 534	1	6	0.237262	9.14538	-3.37086	-29.4215
 535	1	5	-0.49166	6.20673	-2.31609	-31.9333
 536	1	9	-0.100187	8.21153	-1.61285	-31.1208
 537	1	3	-0.024347	-0.132135	5.07348	-41.0439
 538	1	3	-0.071478	-0.859135	4.68395	-39.8604
 539	1	3	-0.180016	-1.00042	5.69765	-38.8127
 540	1	5	-0.370097	1.50017	6.48491	-43.2102
 541	1	3	0.010306	0.602108	6.30015	-41.0152
 542	1	3	-0.071748	-0.413563	6.99459	-38.8965
 543	1	5	-0.403598	1.0929	9.47617	-39.6465
 544	1	3	0.055994	0.446249	7.21639	-39.9576
 545	1	2	0.021521	1.22184	7.00874	-42.1473
 546	1	1	0.466017	1.46098	8.29243	-41.693
 547	1	2	0.096621	0.976197	8.495	-40.3889
 548	1	3	-0.099438	0.577785	2.32087	-36.5754
 549	1	7	-0.089685	-1.63584	3.24099	-39.6919
 550	1	3	-0.037281	-1.21018	2.80405	-38.2649
 551	1	3	-0.08188	0.170479	2.7528	-37.8793
 552	1	3	-0.106561	-0.416425	2.0211	-35.6747
 553	1	3	-0.037628	-2.18267	2.27092	-37.3644
 554	1	3	-0.12234	-1.75862	1.95887	-36.0334
 555	1	7	0.388954	-3.16909	3.52094	-39.6921
 556	1	7	0.307788	-1.13337	2.14446	-40.688
 557	1	8	-0.129718	-3.48416	4.13994	-40.8141
 558	1	8	-0.129089	-3.95646	2.45821	-39.6215
 559	1	8	-0.119089	-3.59088	4.4558	-38.8172
 560	1	8	-0.103894	0.226857	1.96434	-40.6935
 561	1	8	-0.097852	-1.5396	2.39952	-42.0064
 562	1	8	-0.104555	-1.6875	1.00445	-40.3343
 563	1	2	0.521254	-2.46827	1.17321	-35.0789
 564	1	2	0.53569	-0.282019	1.13611	-34.4983
 565	1	1	0.027822	-1.5599	0.636409	-34.2319
 566	1	5	-0.468874	-3.63977	0.849701	-35.1504
 567	1	5	-0.477974	0.75924	0.852608	-33.9319
 568	1	3	-0.359831	-1.95798	-0.49331	-33.4221
 569	1	3	0.131035	-1.92245	-0.434544	-31.9913
 570	1	3	-0.120983	-2.39153	-1.56575	-31.2699
 571	1	3	0.127261	-2.27674	-1.72169	-34.1062
 572	1	3	-0.127195	-2.6837	-2.83167	-33.3103
 573	1	3	0.144798	-2.65059	-2.7835	-31.9137
 574	1	7	-0.020676	-2.15966	-1.91623	-35.6107
 575	1	7	-0.019785	-1.29312	0.824058	-31.257
 576	1	6	0.164889	0.0744587	4.34957	-41.8557
 577	1	6	0.175264	-1.57262	5.3885	-37.9114
 578	1	6	0.1582	-0.511042	7.71875	-38.1083
 579	1	6	0.150763	1.61394	2.22173	-36.3074
 580	1	6	0.144868	1.04193	3.0133	-38.5442
 581	1	6	0.134072	-3.27866	2.09701	-37.6296
 582	1	7	-0.300668	-2.54963	-1.55629	-29.7682
 583	1	7	-0.243237	-3.38197	-4.12393	-33.8788
 584	1	11	0.021835	-2.76143	-2.67018	-36.0916
 585	1	11	0.012312	-1.15558	-2.29142	-35.7424
 586	1	11	0.041777	-2.22533	-0.992469	-36.2545
 587	1	11	0.110598	-4.16163	-4.51367	-33.2407
 588	1	11	0.08293	-3.88296	-3.94262	-34.8433
 589	1	11	0.082252	-2.66052	-4.91348	-34.2377
 590	1	11	0.027698	-1.1519	1.74007	-31.8251
 591	1	11	0.017051	-0.303945	0.498185	-30.8887
 592	1	11	0.037874	-1.87105	1.14699	-30.3813
 593	1	11	0.095908	-2.36705	-0.666756	-29.162
 594	1	11	0.127068	-3.61603	-1.72642	-29.5128
 595	1	11	0.099095	-2.09166	-2.35058	-29.1687

Velocities

   1	-0.00309177	-0.000254352	-0.00587055
   2	-0.00263045	0.00020078	-0.000553253
   3	-0.00373984	0.000658371	0.00155078
   4	0.00198019	0.00582621	0.00267078
   5	0.00360348	-0.000354095	0.003096
   6	0.000523778	0.00121967	-0.000847576
   7	0.00187891	0.00409754	-0.00586281
   8	0.00356217	0.002917	0.00882308
   9	-0.00187639	0.000913452	-0.0023514
  10	0.00410482	-0.00362209	-0.00388161
  11	0.00549421	0.00171392	0.00208199
  12	-0.0199723	-0.00916036	0.00259719
  13	-0.00951453	0.00172996	0.00141267
  14	-0.00469638	0.00012547	-0.0139079
  15	-0.000442983	0.00358056	0.00233216
  16	-0.0018717	0.00366318	0.00173775
  17	0.00655069	0.00693447	0.00035274
  18	-0.000884252	-0.00251544	-0.0038011
  19	0.00274505	0.00100122	0.00183814
  20	-0.00231047	0.000235631	0.00060377
  21	0.0065329	0.0022196	-0.00786953
  22	0.00140998	0.00214725	0.00164721
  23	0.00158374	-0.00312813	-0.00578044
  24	-0.000518301	0.00464694	-0.00160715
  25	0.000203983	8.46299e-05	-0.00057733
  26	0.000482784	0.00691817	0.000810654
  27	-0.00661016	-7.08201e-05	-0.00275863
  28	0.000510143	0.00146708	0.00584792
  29	0.00371287	0.00450341	0.00287793
  30	0.0030648	-0.00235925	0.00354754
  31	0.00501196	-0.00417054	0.00605473
  32	0.00216604	0.00231851	0.00224818
  33	0.00905944	-0.00739429	0.0011418
  34	0.00573346	-0.00546201	-0.00174665
  35	0.00430574	-0.00802825	-0.00161492
  36	-0.0025186	-0.0144245	0.0112756
  37	-0.00352867	-0.00588544	0.00454804
  38	0.00239706	-0.00773843	-0.00245591
  39	-0.0042427	0.00417762	-0.00802644
  40	0.00656921	-0.00940063	0.00797854
  41	-0.0115869	-0.0161435	-0.000897953
  42	-0.0073459	-0.0028514	-0.00823753
  43	0.00750993	-0.0104807	0.00333889
  44	-0.0011074	-0.00584423	-0.000333326