pySIMM System Object

913 atoms
997 bonds
1753 angles
2668 dihedrals
282 impropers

11 atom types
13 bond types
22 angle types
9 dihedral types
4 improper types

-125.528746 125.528746 xlo xhi
-125.528746 125.528746 ylo yhi
-125.528746 125.528746 zlo zhi

Masses

   1	14.01	# n
   2	12.01	# c
   3	12.01	# ca
   4	1.008	# hn
   5	16.0	# o
   6	1.008	# ha
   7	12.01	# c3
   8	19.0	# f
   9	16.0	# oh
  10	1.008	# ho
  11	1.008	# hc

Pair Coeffs

   1	0.17	3.249998523775958	# n
   2	0.086	3.3996695084235347	# c
   3	0.086	3.3996695084235347	# ca
   4	0.0157	1.069078461768407	# hn
   5	0.21	2.959921901149463	# o
   6	0.015	2.59964245953351	# ha
   7	0.1094	3.3996695084235347	# c3
   8	0.061	3.1181455134911875	# f
   9	0.2104	3.0664733878390478	# oh
  10	0.0047	0.5379246460131368	# ho
  11	0.0157	2.649532787749369	# hc

Bond Coeffs

   1	345.9	1.4906	# c,ca
   2	400.1	1.3513	# c,oh
   3	345.8	1.086	# ca,ha
   4	637.7	1.2183	# c,o
   5	321.0	1.5156	# c3,ca
   6	300.9	1.5375	# c3,c3
   7	384.2	1.4121	# ca,n
   8	403.2	1.0129	# hn,n
   9	356.9	1.3497	# c3,f
  10	371.4	0.973	# ho,oh
  11	427.6	1.3789	# c,n
  12	461.1	1.3984	# ca,ca
  13	330.6	1.0969	# c3,hc

Angle Coeffs

   1	48.33	117.55	# c,n,hn
   2	64.28	120.33	# c,ca,ca
   3	67.68	115.25	# ca,c,n
   4	63.53	120.77	# c3,ca,ca
   5	67.87	120.19	# ca,ca,n
   6	70.89	107.36	# f,c3,f
   7	66.11	109.24	# c3,c3,f
   8	49.88	106.55	# c,oh,ho
   9	62.86	111.51	# c3,c3,c3
  10	63.15	112.07	# c3,c3,ca
  11	63.56	112.24	# ca,c3,ca
  12	63.82	123.71	# c,n,ca
  13	69.15	113.45	# ca,c,oh
  14	63.74	127.08	# c,n,c
  15	48.18	119.88	# ca,ca,ha
  16	74.22	123.05	# n,c,o
  17	75.92	122.1	# o,c,oh
  18	66.62	120.02	# ca,ca,ca
  19	68.72	122.6	# ca,c,o
  20	39.4	107.58	# hc,c3,hc
  21	46.8	110.47	# ca,c3,hc
  22	49.75	116.02	# ha,ca,n

Dihedral Coeffs

   1	1	2.3	2	180	# X,c,oh,X
   2	2	2.5	2	180	2.0	1	0	# hn,n,c,o
   3	1	3.625	2	180	# X,ca,ca,X
   4	2	2.3	2	180	1.9	1	0	# ho,oh,c,o
   5	1	0.15555555555555556	3	0	# X,c3,c3,X
   6	1	0.0	2	0	# X,c3,ca,X
   7	1	1.0	2	180	# X,c,ca,X
   8	1	2.5	2	180	# X,c,n,X
   9	1	0.45	2	180	# X,ca,n,X

Improper Coeffs

   1	1.1	-1	2	# ca,X,X,ha
   2	1.1	-1	2	# n,X,X,hn
   3	1.1	-1	2	# ca,ca,ca,c3
   4	10.5	-1	2	# c,X,X,o

Atoms

   1	1	1	0.492035	34.0425	-7.13304	-10.8519
   2	1	2	0.039235	33.2555	-7.84655	-9.94524
   3	1	3	-0.015324	32.2522	-6.86978	-9.4664
   4	1	2	0.029964	33.7025	-5.77856	-10.9382
   5	1	3	0.070931	32.5194	-5.64673	-10.0481
   6	1	5	-0.376136	33.2752	-9.04254	-9.6936
   7	1	5	-0.378673	34.1505	-4.91313	-11.6825
   8	1	3	-0.008856	31.102	-7.09916	-8.70411
   9	1	3	-0.050254	31.6276	-4.58611	-9.9061
  10	1	3	-0.199808	30.4397	-4.80587	-9.17397
  11	1	3	-0.056025	30.1405	-6.06075	-8.5658
  12	1	6	0.163004	30.9361	-8.10515	-8.33669
  13	1	6	0.15778	31.8276	-3.65105	-10.4147
  14	1	6	0.172843	29.7144	-4.00592	-9.13764
  15	1	7	-0.082157	28.7359	-6.30999	-7.91114
  16	1	7	0.321766	27.7676	-6.75283	-9.08348
  17	1	8	-0.115532	28.3774	-7.54722	-9.99469
  18	1	8	-0.098544	27.3299	-5.68877	-9.77836
  19	1	8	-0.116522	26.6611	-7.41948	-8.66412
  20	1	7	0.409577	28.7617	-7.42217	-6.7993
  21	1	8	-0.127323	29.7756	-7.229	-5.93499
  22	1	8	-0.131234	28.9094	-8.65696	-7.30764
  23	1	8	-0.12834	27.6256	-7.4482	-6.06097
  24	1	3	-0.054598	28.2331	-5.02395	-7.19143
  25	1	3	-0.114682	26.8455	-4.74418	-7.09513
  26	1	3	-0.027292	26.4314	-3.63679	-6.35698
  27	1	3	-0.053307	29.146	-4.19295	-6.48106
  28	1	3	-0.12014	28.7033	-3.09912	-5.70524
  29	1	3	-0.108895	27.3232	-2.84162	-5.66493
  30	1	2	0.53745	26.5245	-1.87402	-4.85838
  31	1	1	-0.142145	25.1968	-2.18091	-5.10699
  32	1	2	0.571477	25.0516	-3.23507	-5.99017
  33	1	3	-0.002566	24.1015	-1.62347	-4.4012
  34	1	3	-0.337427	23.2161	-2.48589	-3.73719
  35	1	3	0.463101	22.068	-2.00844	-3.08984
  36	1	3	-0.077757	23.8461	-0.24489	-4.425
  37	1	3	-0.17221	22.686	0.246845	-3.80994
  38	1	3	-0.341697	21.8089	-0.629255	-3.14697
  39	1	2	0.246259	21.1103	-2.94427	-2.39403
  40	1	6	0.163123	29.4022	-2.50895	-5.11619
  41	1	6	0.140059	30.2102	-4.41791	-6.49813
  42	1	6	0.184664	26.0799	-5.38318	-7.53003
  43	1	5	-0.57014	24.0299	-3.85534	-6.23976
  44	1	5	-0.478504	26.9388	-1.07745	-4.03825
  45	1	6	0.172599	22.4763	1.31295	-3.83708
  46	1	6	0.35044	23.3916	-3.55861	-3.76921
  47	1	6	0.154366	24.5207	0.435729	-4.93793
  48	1	6	0.237262	20.9111	-0.252375	-2.65401
  49	1	5	-0.49166	20.1115	-2.56039	-1.80447
  50	1	9	-0.100187	21.4781	-4.24937	-2.39032
  51	1	3	-0.024347	43.2277	-12.0346	-19.6859
  52	1	3	-0.071478	42.1998	-12.5472	-18.8531
  53	1	3	-0.180016	42.58	-13.3242	-17.7155
  54	1	5	-0.370097	45.7402	-10.6792	-20.7236
  55	1	3	0.010306	44.5527	-12.1625	-19.2678
  56	1	3	-0.071748	43.934	-13.5072	-17.3632
  57	1	5	-0.403598	46.9036	-12.9165	-16.822
  58	1	3	0.055994	44.8959	-12.8508	-18.1287
  59	1	2	0.021521	45.7322	-11.4203	-19.755
  60	1	1	0.466017	46.7481	-11.6743	-18.8289
  61	1	2	0.096621	46.3217	-12.5714	-17.8357
  62	1	3	-0.099438	40.8357	-9.40857	-16.3763
  63	1	7	-0.089685	40.6979	-12.1807	-19.0685
  64	1	3	-0.037281	40.2905	-11.328	-17.8483
  65	1	3	-0.08188	41.1747	-10.2891	-17.4185
  66	1	3	-0.106561	39.6134	-9.6239	-15.7472
  67	1	3	-0.037628	39.0388	-11.4813	-17.2058
  68	1	3	-0.12234	38.7592	-10.6404	-16.1289
  69	1	7	0.388954	39.8926	-13.532	-19.2498
  70	1	7	0.307788	40.3785	-11.2663	-20.3114
  71	1	8	-0.129718	38.631	-13.3577	-19.7177
  72	1	8	-0.129089	39.7605	-14.2149	-18.0861
  73	1	8	-0.119089	40.5391	-14.3394	-20.1293
  74	1	8	-0.103894	40.5934	-11.9014	-21.4813
  75	1	8	-0.097852	41.0802	-10.1148	-20.3492
  76	1	8	-0.104555	39.0918	-10.8408	-20.2908
  77	1	2	0.521254	37.55	-10.5689	-15.2839
  78	1	2	0.53569	38.9732	-8.8554	-14.6631
  79	1	1	0.027822	37.7589	-9.48822	-14.426
  80	1	5	-0.468874	36.5853	-11.306	-15.38
  81	1	5	-0.477974	39.4132	-7.83607	-14.1599
  82	1	3	-0.359831	36.7919	-8.97398	-13.5039
  83	1	3	0.131035	35.6094	-8.39425	-14.0004
  84	1	3	-0.120983	34.6412	-7.90498	-13.0962
  85	1	3	0.127261	37.0577	-8.96215	-12.1171
  86	1	3	-0.127195	36.1899	-8.26471	-11.2405
  87	1	3	0.144798	34.9687	-7.75933	-11.731
  88	1	7	-0.020676	38.3055	-9.67226	-11.5943
  89	1	7	-0.019785	35.377	-8.29235	-15.509
  90	1	6	0.164889	43.0286	-11.4378	-20.5683
  91	1	6	0.175264	41.8297	-13.7184	-17.037
  92	1	6	0.1582	44.2166	-14.0325	-16.4531
  93	1	6	0.150763	41.4959	-8.60147	-16.0649
  94	1	6	0.144868	42.121	-10.1305	-17.9298
  95	1	6	0.134072	38.304	-12.2207	-17.5107
  96	1	7	-0.300668	33.2465	-7.52934	-13.6044
  97	1	7	-0.243237	36.5336	-8.04586	-9.76271
  98	1	11	0.021835	38.5509	-10.5521	-12.1946
  99	1	11	0.012312	38.1748	-10.0361	-10.569
 100	1	11	0.041777	39.1722	-9.00566	-11.6139
 101	1	11	0.110598	36.0703	-8.81197	-9.1276
 102	1	11	0.08293	37.6129	-8.05738	-9.57192
 103	1	11	0.082252	36.195	-7.06557	-9.41026
 104	1	11	0.027698	35.037	-9.25747	-15.9128
 105	1	11	0.017051	36.2966	-8.00248	-16.0379
 106	1	11	0.037874	34.623	-7.54014	-15.7742
 107	1	11	0.095908	32.9236	-8.18953	-14.414
 108	1	11	0.127068	32.4638	-7.62621	-12.8408
 109	1	11	0.099095	33.2234	-6.49667	-13.9759
 110	1	1	0.492035	41.8387	-6.17094	-9.74367
 111	1	2	0.039235	43.1317	-5.63228	-9.75781
 112	1	3	-0.015324	43.373	-5.23118	-11.1549
 113	1	2	0.029964	41.2352	-6.12532	-11.0094
 114	1	3	0.070931	42.2609	-5.52151	-11.9061
 115	1	5	-0.376136	43.9429	-5.51443	-8.85453
 116	1	5	-0.378673	40.0796	-6.39266	-11.3033
 117	1	3	-0.008856	44.4651	-4.55666	-11.6935
 118	1	3	-0.050254	42.2092	-5.17696	-13.2607
 119	1	3	-0.199808	43.3111	-4.50059	-13.8312
 120	1	3	-0.056025	44.4532	-4.16535	-13.0611
 121	1	6	0.163004	45.2719	-4.32287	-11.0114
 122	1	6	0.15778	41.3123	-5.39196	-13.833
 123	1	6	0.172843	43.255	-4.19712	-14.8742
 124	1	7	-0.082157	45.5896	-3.31924	-13.7199
 125	1	7	0.321766	46.8969	-3.35367	-12.8406
 126	1	8	-0.115532	46.7469	-2.69259	-11.67
 127	1	8	-0.098544	47.9653	-2.79665	-13.4533
 128	1	8	-0.116522	47.2731	-4.62935	-12.5732
 129	1	7	0.409577	45.0489	-1.84569	-13.855
 130	1	8	-0.127323	44.4089	-1.47437	-12.732
 131	1	8	-0.131234	44.1628	-1.68929	-14.8785
 132	1	8	-0.12834	46.0437	-0.952793	-14.0479
 133	1	3	-0.054598	46.0	-3.90534	-15.0967
 134	1	3	-0.114682	46.031	-5.30813	-15.2567
 135	1	3	-0.027292	46.5407	-5.84935	-16.4358
 136	1	3	-0.053307	46.4772	-3.10001	-16.1757
 137	1	3	-0.12014	46.9721	-3.67207	-17.3709
 138	1	3	-0.108895	47.0294	-5.06813	-17.4471
 139	1	2	0.53745	47.6419	-5.97173	-18.455
 140	1	1	-0.142145	47.4541	-7.28792	-18.0036
 141	1	2	0.571477	46.7391	-7.27057	-16.7964
 142	1	3	-0.002566	47.8902	-8.48103	-18.6947
 143	1	3	-0.337427	48.3874	-8.42439	-20.0096
 144	1	3	0.463101	48.7801	-9.56629	-20.7122
 145	1	3	-0.077757	47.8222	-9.76528	-18.0996
 146	1	3	-0.17221	48.0059	-10.964	-18.8224
 147	1	3	-0.341697	48.5851	-10.8298	-20.1103
 148	1	2	0.246259	49.3743	-9.39556	-22.0907
 149	1	6	0.163123	47.3567	-3.05522	-18.1811
 150	1	6	0.140059	46.5003	-2.01834	-16.107
 151	1	6	0.184664	45.7115	-5.98296	-14.4645
 152	1	5	-0.57014	46.2998	-8.19415	-16.1372
 153	1	5	-0.478504	48.2783	-5.57271	-19.412
 154	1	6	0.172599	48.5306	-11.7149	-18.2378
 155	1	6	0.35044	48.5091	-7.49694	-20.5568
 156	1	6	0.154366	47.533	-9.87699	-17.059
 157	1	6	0.237262	48.8284	-11.7194	-20.6902
 158	1	5	-0.49166	49.6922	-8.30698	-22.5473
 159	1	9	-0.100187	49.4822	-10.5282	-22.8226
 160	1	1	0.492035	32.5571	-0.282448	-9.54585
 161	1	2	0.039235	33.2549	-1.0416	-8.59934
 162	1	3	-0.015324	34.1616	-0.0824925	-7.92246
 163	1	2	0.029964	32.9448	1.05694	-9.58493
 164	1	3	0.070931	33.9658	1.15822	-8.50335
 165	1	5	-0.376136	33.0279	-2.18019	-8.2183
 166	1	5	-0.378673	32.3851	1.98856	-10.1458
 167	1	3	-0.008856	34.965	-0.243735	-6.78294
 168	1	3	-0.050254	34.6125	2.29489	-8.00638
 169	1	3	-0.199808	35.4423	2.14814	-6.87778
 170	1	3	-0.056025	35.6277	0.888948	-6.24295
 171	1	6	0.163004	35.0126	-1.21885	-6.30813
 172	1	6	0.15778	34.4509	3.26945	-8.45882
 173	1	6	0.172843	35.8929	3.05011	-6.47232
 174	1	7	-0.082157	36.4499	0.772495	-4.93075
 175	1	7	0.321766	37.683	1.78052	-4.92627
 176	1	8	-0.115532	37.3459	3.04841	-4.59108
 177	1	8	-0.098544	38.6319	1.40208	-4.04878
 178	1	8	-0.116522	38.2954	1.85813	-6.13261
 179	1	7	0.409577	35.458	1.15695	-3.77005
 180	1	8	-0.127323	34.8472	2.35278	-3.95162
 181	1	8	-0.131234	36.0682	1.20077	-2.56487
 182	1	8	-0.12834	34.4591	0.245486	-3.70465
 183	1	3	-0.054598	37.0185	-0.679109	-4.78484
 184	1	3	-0.114682	37.8873	-1.1738	-5.78648
 185	1	3	-0.027292	38.4294	-2.46309	-5.6576
 186	1	3	-0.053307	36.7472	-1.53456	-3.67253
 187	1	3	-0.12014	37.2629	-2.84273	-3.58334
 188	1	3	-0.108895	38.1089	-3.28731	-4.60133
 189	1	2	0.53745	38.8135	-4.58142	-4.79436
 190	1	1	-0.142145	39.5671	-4.44598	-5.95041
 191	1	2	0.571477	39.3782	-3.19716	-6.53016
 192	1	3	-0.002566	40.372	-5.48073	-6.52573
 193	1	3	-0.337427	41.0838	-6.38961	-5.72204
 194	1	3	0.463101	41.865	-7.40885	-6.28951
 195	1	3	-0.077757	40.4387	-5.6274	-7.92592
 196	1	3	-0.17221	41.1766	-6.64807	-8.55205
 197	1	3	-0.341697	41.9194	-7.50553	-7.69838
 198	1	2	0.246259	42.6212	-8.35894	-5.37555
 199	1	6	0.163123	37.0293	-3.4884	-2.73858
 200	1	6	0.140059	36.1295	-1.21367	-2.84335
 201	1	6	0.184664	38.1505	-0.567988	-6.65073
 202	1	5	-0.57014	39.8789	-2.76001	-7.55084
 203	1	5	-0.478504	38.7186	-5.56843	-4.09135
 204	1	6	0.172599	40.4779	-7.28256	-9.08708
 205	1	6	0.35044	41.0578	-6.33008	-4.63634
 206	1	6	0.154366	39.8559	-4.95731	-8.56074
 207	1	6	0.237262	42.5717	-8.2562	-8.14207
 208	1	5	-0.49166	42.6335	-8.2612	-4.1599
 209	1	9	-0.100187	43.2869	-9.35688	-5.99669
 210	1	3	-0.024347	22.1456	-6.09094	-11.5413
 211	1	3	-0.071478	21.6598	-5.68055	-12.8126
 212	1	3	-0.180016	20.4351	-6.23436	-13.2758
 213	1	5	-0.370097	22.5301	-7.31582	-8.67033
 214	1	3	0.010306	21.4236	-7.05869	-10.8244
 215	1	3	-0.071748	19.7466	-7.22343	-12.5443
 216	1	5	-0.403598	18.5843	-9.05588	-10.3163
 217	1	3	0.055994	20.2723	-7.63431	-11.3232
 218	1	2	0.021521	21.6267	-7.58207	-9.44652
 219	1	1	0.466017	20.504	-8.34617	-9.18216
 220	1	2	0.096621	19.6669	-8.4935	-10.2795
 221	1	3	-0.099438	26.0506	-5.69484	-12.9638
 222	1	7	-0.089685	22.3962	-4.57382	-13.636
 223	1	3	-0.037281	23.8935	-4.49381	-13.1921
 224	1	3	-0.08188	24.6697	-5.683	-13.263
 225	1	3	-0.106561	26.6388	-4.485	-12.5759
 226	1	3	-0.037628	24.5246	-3.30408	-12.7532
 227	1	3	-0.12234	25.8852	-3.33992	-12.4581
 228	1	7	0.388954	21.6099	-3.2395	-13.3538
 229	1	7	0.307788	22.405	-4.9086	-15.1942
 230	1	8	-0.129718	21.6502	-2.91615	-12.0441
 231	1	8	-0.129089	20.292	-3.31345	-13.6372
 232	1	8	-0.119089	22.0961	-2.20052	-14.0801
 233	1	8	-0.103894	21.2169	-4.6597	-15.8069
 234	1	8	-0.097852	22.7172	-6.20189	-15.4406
 235	1	8	-0.104555	23.3293	-4.17098	-15.8504
 236	1	2	0.521254	26.775	-2.22653	-12.0382
 237	1	2	0.53569	28.0458	-4.14971	-12.2374
 238	1	1	0.027822	28.039	-2.80199	-11.8802
 239	1	5	-0.468874	26.4399	-1.06284	-11.878
 240	1	5	-0.477974	28.9626	-4.94582	-12.1468
 241	1	3	-0.359831	29.1759	-2.10333	-11.3347
 242	1	3	0.131035	29.1128	-1.58215	-10.0152
 243	1	3	-0.120983	30.2098	-0.877773	-9.46918
 244	1	3	0.127261	30.3449	-1.91578	-12.1166
 245	1	3	-0.127195	31.4759	-1.28154	-11.5343
 246	1	3	0.144798	31.4018	-0.775698	-10.2178
 247	1	7	-0.020676	30.4318	-2.46827	-13.5527
 248	1	7	-0.019785	27.862	-1.8043	-9.16446
 249	1	6	0.164889	23.0257	-5.63878	-11.0973
 250	1	6	0.175264	19.9797	-5.90234	-14.2049
 251	1	6	0.1582	18.7923	-7.61217	-12.9016
 252	1	6	0.150763	26.64	-6.60018	-13.0628
 253	1	6	0.144868	24.2045	-6.61071	-13.5847
 254	1	6	0.134072	24.0081	-2.3515	-12.6592
 255	1	7	-0.300668	30.1491	-0.311547	-8.03456
 256	1	7	-0.243237	32.8074	-1.27231	-12.3052
 257	1	11	0.021835	31.0986	-1.87522	-14.1898
 258	1	11	0.012312	29.453	-2.47857	-14.0505
 259	1	11	0.041777	30.8032	-3.49629	-13.5393
 260	1	11	0.110598	33.0307	-2.26729	-12.7167
 261	1	11	0.08293	32.7757	-0.562349	-13.1352
 262	1	11	0.082252	33.6765	-1.01967	-11.6883
 263	1	11	0.027698	28.0996	-1.89134	-8.10169
 264	1	11	0.017051	27.3371	-2.72726	-9.40445
 265	1	11	0.037874	27.1585	-0.972506	-9.28053
 266	1	11	0.095908	30.6955	0.638877	-7.93894
 267	1	11	0.127068	29.1268	-0.0533568	-7.73149
 268	1	11	0.099095	30.5676	-1.01337	-7.30105
 269	1	3	-0.024347	14.5496	-11.9915	0.204515
 270	1	3	-0.071478	14.3585	-10.5857	0.324226
 271	1	3	-0.180016	13.1203	-10.0417	-0.130117
 272	1	5	-0.370097	14.274	-15.0811	-0.0817287
 273	1	3	0.010306	13.5338	-12.7892	-0.324556
 274	1	3	-0.071748	12.1176	-10.8659	-0.702138
 275	1	5	-0.403598	10.3197	-13.235	-1.66493
 276	1	3	0.055994	12.3607	-12.2362	-0.793117
 277	1	2	0.021521	13.4538	-14.2722	-0.479271
 278	1	1	0.466017	12.1861	-14.5097	-1.02609
 279	1	2	0.096621	11.4722	-13.3365	-1.27239
 280	1	3	-0.099438	19.2085	-10.3108	-0.34861
 281	1	7	-0.089685	15.5466	-9.72057	0.883969
 282	1	3	-0.037281	16.778	-10.0506	0.0109153
 283	1	3	-0.08188	18.1024	-10.1627	0.513884
 284	1	3	-0.106561	18.9617	-10.3066	-1.72826
 285	1	3	-0.037628	16.5765	-10.1123	-1.38433
 286	1	3	-0.12234	17.6813	-10.2348	-2.22641
 287	1	7	0.388954	15.7028	-10.0562	2.41662
 288	1	7	0.307788	15.3561	-8.16376	0.747437
 289	1	8	-0.129718	16.5745	-9.27688	3.08983
 290	1	8	-0.129089	16.1375	-11.3207	2.59471
 291	1	8	-0.119089	14.5246	-9.9822	3.06701
 292	1	8	-0.103894	14.4483	-7.65105	1.62689
 293	1	8	-0.097852	14.9649	-7.79297	-0.496581
 294	1	8	-0.104555	16.5188	-7.52024	1.01801
 295	1	2	0.521254	17.7405	-10.0455	-3.68879
 296	1	2	0.53569	19.9006	-10.1943	-2.88119
 297	1	1	0.027822	19.0945	-9.97255	-3.98781
 298	1	5	-0.468874	16.7871	-9.85772	-4.43061
 299	1	5	-0.477974	21.1185	-10.218	-2.84592
 300	1	3	-0.359831	19.5703	-9.55796	-5.26109
 301	1	3	0.131035	20.0031	-10.5284	-6.19268
 302	1	3	-0.120983	20.3384	-10.1155	-7.50503
 303	1	3	0.127261	19.4873	-8.17659	-5.59766
 304	1	3	-0.127195	19.7287	-7.78447	-6.92734
 305	1	3	0.144798	20.1737	-8.75348	-7.86169
 306	1	7	-0.020676	19.0227	-7.12109	-4.56461
 307	1	7	-0.019785	20.056	-12.0382	-5.85002
 308	1	6	0.164889	15.4966	-12.4538	0.480357
 309	1	6	0.175264	12.8904	-8.98082	-0.037905
 310	1	6	0.1582	11.1664	-10.4551	-1.04305
 311	1	6	0.150763	20.2292	-10.3507	0.0375116
 312	1	6	0.144868	18.2797	-10.09	1.57972
 313	1	6	0.134072	15.593	-9.96813	-1.8399
 314	1	7	-0.300668	20.8051	-11.1153	-8.58058
 315	1	7	-0.243237	19.4567	-6.32188	-7.3658
 316	1	11	0.021835	19.4062	-6.11818	-4.75938
 317	1	11	0.012312	19.3673	-7.36369	-3.55321
 318	1	11	0.041777	17.9296	-7.06537	-4.54629
 319	1	11	0.110598	18.5893	-5.88597	-6.86311
 320	1	11	0.08293	20.3023	-5.65573	-7.1365
 321	1	11	0.082252	19.2612	-6.19889	-8.44594
 322	1	11	0.027698	19.4371	-12.6163	-6.5597
 323	1	11	0.017051	19.6661	-12.2841	-4.85951
 324	1	11	0.037874	21.0883	-12.4142	-5.90146
 325	1	11	0.095908	21.7365	-10.8039	-9.0639
 326	1	11	0.127068	20.9939	-12.1254	-8.19624
 327	1	11	0.099095	20.0439	-11.2233	-9.36671
 328	1	3	-0.024347	3.21758	-25.1206	-1.35101
 329	1	3	-0.071478	4.14729	-24.0451	-1.40372
 330	1	3	-0.180016	4.07743	-23.0853	-0.34752
 331	1	5	-0.370097	0.916304	-27.123	-0.778325
 332	1	3	0.010306	2.35019	-25.2447	-0.262137
 333	1	3	-0.071748	3.16326	-23.2074	0.729935
 334	1	5	-0.403598	0.795525	-23.8765	2.57618
 335	1	3	0.055994	2.31041	-24.315	0.760339
 336	1	2	0.021521	1.21975	-26.1989	-0.0417291
 337	1	1	0.466017	0.516689	-25.7046	1.08699
 338	1	2	0.096621	1.14127	-24.5778	1.64444
 339	1	3	-0.099438	8.14339	-22.7997	-0.376287
 340	1	7	-0.089685	5.12462	-23.7674	-2.60709
 341	1	3	-0.037281	6.3411	-22.966	-2.06742
 342	1	3	-0.08188	7.05945	-23.4816	-0.952884
 343	1	3	-0.106561	8.4515	-21.5372	-0.874731
 344	1	3	-0.037628	6.72395	-21.6879	-2.57074
 345	1	3	-0.12234	7.74633	-20.9784	-1.92543
 346	1	7	0.388954	5.70034	-25.0837	-3.25417
 347	1	7	0.307788	4.34488	-22.9571	-3.71881
 348	1	8	-0.129718	6.70233	-24.8682	-4.14201
 349	1	8	-0.129089	4.731	-25.7876	-3.9102
 350	1	8	-0.119089	6.22207	-25.9104	-2.32207
 351	1	8	-0.103894	3.16815	-23.5292	-4.071
 352	1	8	-0.097852	5.04931	-22.8334	-4.8757
 353	1	8	-0.104555	3.97267	-21.7264	-3.27246
 354	1	2	0.521254	8.24882	-19.5752	-2.12286
 355	1	2	0.53569	9.45378	-20.5374	-0.394095
 356	1	1	0.027822	9.2725	-19.4026	-1.19726
 357	1	5	-0.468874	7.80534	-18.7496	-2.90218
 358	1	5	-0.477974	10.2462	-20.7062	0.518587
 359	1	3	-0.359831	10.0591	-18.1919	-1.12753
 360	1	3	0.131035	10.9774	-17.8979	-2.16939
 361	1	3	-0.120983	11.692	-16.6674	-2.15849
 362	1	3	0.127261	9.82581	-17.2647	-0.084993
 363	1	3	-0.127195	10.6395	-16.1035	-0.00561144
 364	1	3	0.144798	11.5427	-15.7884	-1.05772
 365	1	7	-0.020676	8.76349	-17.566	0.985575
 366	1	7	-0.019785	11.2179	-18.8934	-3.32123
 367	1	6	0.164889	3.1049	-25.8268	-2.16819
 368	1	6	0.175264	4.65335	-22.1694	-0.394466
 369	1	6	0.1582	3.08603	-22.4477	1.50022
 370	1	6	0.150763	8.69382	-23.2263	0.456
 371	1	6	0.144868	6.78775	-24.4277	-0.519688
 372	1	6	0.134072	6.23326	-21.2061	-3.41382
 373	1	7	-0.300668	12.6519	-16.3255	-3.3059
 374	1	7	-0.243237	10.565	-15.1632	1.21887
 375	1	11	0.021835	9.20296	-18.1337	1.81408
 376	1	11	0.012312	7.92665	-18.1381	0.587535
 377	1	11	0.041777	8.30228	-16.6558	1.39073
 378	1	11	0.110598	9.77743	-14.4114	1.08541
 379	1	11	0.08293	10.321	-15.7357	2.12272
 380	1	11	0.082252	11.5158	-14.6626	1.45161
 381	1	11	0.027698	10.6786	-19.8396	-3.2482
 382	1	11	0.017051	12.2818	-19.1629	-3.38622
 383	1	11	0.037874	10.9226	-18.4467	-4.28342
 384	1	11	0.095908	13.3734	-17.1299	-3.49507
 385	1	11	0.127068	12.124	-16.1687	-4.24789
 386	1	11	0.099095	13.2643	-15.4313	-3.11406
 387	1	1	0.492035	-8.4104	-15.5055	4.80836
 388	1	2	0.039235	-8.92364	-16.7463	5.18489
 389	1	3	-0.015324	-8.72239	-17.6081	3.97519
 390	1	2	0.029964	-7.82207	-15.52	3.55533
 391	1	3	0.070931	-8.0121	-16.9081	3.01955
 392	1	5	-0.376136	-9.26878	-17.0958	6.29938
 393	1	5	-0.378673	-7.17495	-14.6169	3.04032
 394	1	3	-0.008856	-9.11739	-18.9331	3.7472
 395	1	3	-0.050254	-7.62611	-17.5536	1.81666
 396	1	3	-0.199808	-8.01871	-18.898	1.59661
 397	1	3	-0.056025	-8.76658	-19.6223	2.54529
 398	1	6	0.163004	-9.60636	-19.409	4.58325
 399	1	6	0.15778	-7.01922	-17.0068	1.10239
 400	1	6	0.172843	-7.72319	-19.3906	0.679282
 401	1	7	-0.082157	-9.20886	-21.0846	2.17816
 402	1	7	0.321766	-9.85845	-21.9162	3.38167
 403	1	8	-0.115532	-11.0757	-21.4797	3.76639
 404	1	8	-0.098544	-9.07786	-21.7512	4.48059
 405	1	8	-0.116522	-9.9891	-23.2847	3.11744
 406	1	7	0.409577	-10.3126	-21.0138	1.06986
 407	1	8	-0.127323	-11.482	-20.5768	1.54006
 408	1	8	-0.131234	-10.5948	-22.2557	0.578854
 409	1	8	-0.12834	-9.98114	-20.2108	0.0127801
 410	1	3	-0.054598	-7.95033	-21.9002	1.70552
 411	1	3	-0.114682	-7.01077	-22.398	2.65668
 412	1	3	-0.027292	-5.95778	-23.2131	2.23421
 413	1	3	-0.053307	-7.70698	-22.2342	0.333232
 414	1	3	-0.12014	-6.66307	-23.1063	-0.0565932
 415	1	3	-0.108895	-5.81678	-23.598	0.930219
 416	1	2	0.53745	-4.71755	-24.5943	0.813663
 417	1	1	-0.142145	-4.20667	-24.7291	2.09577
 418	1	2	0.571477	-4.92089	-23.9356	3.01684
 419	1	3	-0.002566	-3.00263	-25.4924	2.31981
 420	1	3	-0.337427	-2.89413	-26.2759	3.46069
 421	1	3	0.463101	-1.73316	-26.98	3.75312
 422	1	3	-0.077757	-1.89944	-25.4406	1.43904
 423	1	3	-0.17221	-0.735395	-26.2405	1.59728
 424	1	3	-0.341697	-0.66418	-26.9238	2.83019
 425	1	2	0.246259	-1.61606	-27.7231	5.04437
 426	1	6	0.163123	-6.51061	-23.3962	-1.0968
 427	1	6	0.140059	-8.34794	-21.865	-0.471729
 428	1	6	0.184664	-7.06252	-22.1652	3.70782
 429	1	5	-0.57014	-4.75421	-23.882	4.22333
 430	1	5	-0.478504	-4.34402	-25.1153	-0.223519
 431	1	6	0.172599	-0.862477	-27.0196	0.853987
 432	1	6	0.35044	-3.72477	-26.3006	4.16303
 433	1	6	0.154366	-1.94274	-24.7646	0.58922
 434	1	6	0.237262	0.262794	-27.4339	3.10306
 435	1	5	-0.49166	-0.586941	-28.2975	5.34849
 436	1	9	-0.100187	-2.72367	-27.7223	5.84174
 437	1	1	0.492035	-15.946	-0.896703	4.66145
 438	1	2	0.039235	-15.8836	-1.69882	5.84609
 439	1	3	-0.015324	-15.163	-2.92197	5.33536
 440	1	2	0.029964	-15.3951	-1.50608	3.53134
 441	1	3	0.070931	-14.8724	-2.80564	3.94745
 442	1	5	-0.376136	-16.4972	-1.59018	6.91425
 443	1	5	-0.378673	-15.528	-1.18825	2.35648
 444	1	3	-0.008856	-15.0123	-4.11859	6.03016
 445	1	3	-0.050254	-14.3825	-3.87819	3.18984
 446	1	3	-0.199808	-14.1968	-5.09548	3.92739
 447	1	3	-0.056025	-14.5265	-5.2542	5.33333
 448	1	6	0.163004	-15.4001	-4.19261	7.03189
 449	1	6	0.15778	-14.2519	-3.82873	2.09168
 450	1	6	0.172843	-13.9056	-6.01364	3.39501
 451	1	7	-0.082157	-14.4224	-6.64282	6.08092
 452	1	7	0.321766	-15.7141	-7.45083	5.72551
 453	1	8	-0.115532	-15.8406	-8.55577	6.46783
 454	1	8	-0.098544	-15.6613	-7.85653	4.43333
 455	1	8	-0.116522	-16.8658	-6.71457	5.91915
 456	1	7	0.409577	-14.3709	-6.57722	7.69441
 457	1	8	-0.127323	-13.8167	-7.6024	8.34653
 458	1	8	-0.131234	-15.5156	-6.43063	8.38076
 459	1	8	-0.12834	-13.5739	-5.58793	8.05756
 460	1	3	-0.054598	-13.0987	-7.39313	5.65986
 461	1	3	-0.114682	-12.9731	-8.81895	5.6944
 462	1	3	-0.027292	-11.7412	-9.46275	5.46078
 463	1	3	-0.053307	-11.9337	-6.61757	5.34185
 464	1	3	-0.12014	-10.6919	-7.27144	5.19052
 465	1	3	-0.108895	-10.6203	-8.68495	5.33549
 466	1	2	0.53745	-9.41731	-9.53714	5.58471
 467	1	1	-0.142145	-9.89417	-10.8235	5.73224
 468	1	2	0.571477	-11.2838	-10.8787	5.67198
 469	1	3	-0.002566	-8.98416	-11.9401	5.87355
 470	1	3	-0.337427	-7.77639	-11.7713	6.57211
 471	1	3	0.463101	-6.85358	-12.7765	6.77663
 472	1	3	-0.077757	-9.21206	-13.226	5.3102
 473	1	3	-0.17221	-8.37449	-14.3404	5.65629
 474	1	3	-0.341697	-7.13986	-14.0318	6.25616
 475	1	2	0.246259	-5.55278	-12.4572	7.42914
 476	1	6	0.163123	-9.79033	-6.71626	5.13028
 477	1	6	0.140059	-11.9306	-5.51188	5.44941
 478	1	6	0.184664	-13.7945	-9.43625	6.02489
 479	1	5	-0.57014	-12.0123	-11.8282	5.8905
 480	1	5	-0.478504	-8.26826	-9.1129	5.62704
 481	1	6	0.172599	-8.92756	-14.7555	6.48075
 482	1	6	0.35044	-7.50292	-10.8257	7.01264
 483	1	6	0.154366	-10.1565	-13.3898	4.78995
 484	1	6	0.237262	-6.37433	-14.8019	6.33838
 485	1	5	-0.49166	-5.4466	-11.5865	8.27799
 486	1	9	-0.100187	-4.55533	-13.3016	7.07576
 487	1	1	0.492035	-13.7542	13.8653	8.92403
 488	1	2	0.039235	-12.6383	13.0274	8.7668
 489	1	3	-0.015324	-13.1144	11.971	7.87432
 490	1	2	0.029964	-14.8751	13.4681	8.18428
 491	1	3	0.070931	-14.4375	12.2219	7.53493
 492	1	5	-0.376136	-11.5159	13.0994	9.24954
 493	1	5	-0.378673	-15.9963	13.9573	8.18785
 494	1	3	-0.008856	-12.2892	11.0189	7.30438
 495	1	3	-0.050254	-15.0866	11.2985	6.79169
 496	1	3	-0.199808	-14.326	10.2068	6.31888
 497	1	3	-0.056025	-12.9327	10.0557	6.51364
 498	1	6	0.163004	-11.2513	11.0416	7.62145
 499	1	6	0.15778	-16.1364	11.3607	6.65673
 500	1	6	0.172843	-14.8479	9.42198	5.75602
 501	1	7	-0.082157	-12.2335	8.76408	5.93926
 502	1	7	0.321766	-12.2482	8.97343	4.40972
 503	1	8	-0.115532	-11.511	8.0932	3.76133
 504	1	8	-0.098544	-11.8454	10.1795	4.02314
 505	1	8	-0.116522	-13.5181	8.9438	3.91888
 506	1	7	0.409577	-10.7802	8.52415	6.50109
 507	1	8	-0.127323	-10.1587	7.35263	6.1013
 508	1	8	-0.131234	-10.8323	8.60171	7.88216
 509	1	8	-0.12834	-9.96455	9.51502	6.02067
 510	1	3	-0.054598	-13.1126	7.56163	6.37822
 511	1	3	-0.114682	-13.619	6.53981	5.48906
 512	1	3	-0.027292	-14.4995	5.56623	5.97224
 513	1	3	-0.053307	-13.4899	7.52396	7.75709
 514	1	3	-0.12014	-14.304	6.46477	8.24422
 515	1	3	-0.108895	-14.7956	5.4847	7.34386
 516	1	2	0.53745	-15.6341	4.26816	7.52283
 517	1	1	-0.142145	-15.7964	3.73316	6.24099
 518	1	2	0.571477	-15.1319	4.4592	5.28248
 519	1	3	-0.002566	-16.4892	2.55175	5.81006
 520	1	3	-0.337427	-17.9094	2.64807	5.79287
 521	1	3	0.463101	-18.6883	1.56388	5.39823
 522	1	3	-0.077757	-15.8457	1.36969	5.30567
 523	1	3	-0.17221	-16.5977	0.390494	4.62272
 524	1	3	-0.341697	-18.0277	0.498996	4.71888
 525	1	2	0.246259	-20.1766	1.59729	5.36029
 526	1	6	0.163123	-14.5603	6.43264	9.30233
 527	1	6	0.140059	-13.1092	8.28555	8.4699
 528	1	6	0.184664	-13.3914	6.47733	4.4348
 529	1	5	-0.57014	-15.1782	4.22431	4.0752
 530	1	5	-0.478504	-16.2016	3.85021	8.52605
 531	1	6	0.172599	-16.4022	0.560462	3.56931
 532	1	6	0.35044	-18.4368	3.55867	6.10391
 533	1	6	0.154366	-14.7695	1.34653	5.24535
 534	1	6	0.237262	-18.6439	-0.266157	4.2318
 535	1	5	-0.49166	-20.8779	1.04639	4.53682
 536	1	9	-0.100187	-20.7015	2.00114	6.49336
 537	1	3	-0.024347	-13.6519	27.0607	9.50536
 538	1	3	-0.071478	-13.474	25.7402	9.93338
 539	1	3	-0.180016	-12.7703	24.8448	9.05925
 540	1	5	-0.370097	-13.8331	29.7992	8.04225
 541	1	3	0.010306	-13.3108	27.4269	8.24409
 542	1	3	-0.071748	-12.336	25.2331	7.8256
 543	1	5	-0.403598	-11.4351	26.902	5.39098
 544	1	3	0.055994	-12.6405	26.5191	7.45381
 545	1	2	0.021521	-13.3545	28.7641	7.61645
 546	1	1	0.466017	-12.6072	28.5967	6.41873
 547	1	2	0.096621	-12.0968	27.2962	6.31101
 548	1	3	-0.099438	-11.8005	22.21	12.0754
 549	1	7	-0.089685	-14.2167	25.1824	11.2612
 550	1	3	-0.037281	-13.7643	23.7155	11.654
 551	1	3	-0.08188	-12.37	23.4714	11.8654
 552	1	3	-0.106561	-12.6789	21.1294	11.8793
 553	1	3	-0.037628	-14.6019	22.5836	11.4944
 554	1	3	-0.12234	-14.0387	21.2941	11.6421
 555	1	7	0.388954	-15.8143	25.2859	11.121
 556	1	7	0.307788	-13.9075	26.0843	12.5657
 557	1	8	-0.129718	-16.1991	26.6177	10.9185
 558	1	8	-0.129089	-16.5651	24.6635	12.1697
 559	1	8	-0.119089	-16.2108	24.7467	9.96904
 560	1	8	-0.103894	-14.6234	27.2214	12.65
 561	1	8	-0.097852	-12.6326	26.5181	12.6967
 562	1	8	-0.104555	-14.1427	25.4281	13.7213
 563	1	2	0.521254	-14.6195	19.91	11.49
 564	1	2	0.53569	-12.3781	19.7041	11.904
 565	1	1	0.027822	-13.5469	19.0293	11.5475
 566	1	5	-0.468874	-15.8103	19.6466	11.4854
 567	1	5	-0.477974	-11.2813	19.2341	12.0176
 568	1	3	-0.359831	-13.7244	17.7315	10.9033
 569	1	3	0.131035	-14.2005	16.5707	11.5973
 570	1	3	-0.120983	-14.2911	15.2975	10.897
 571	1	3	0.127261	-13.2541	17.5518	9.54845
 572	1	3	-0.127195	-13.1329	16.2399	8.97303
 573	1	3	0.144798	-13.6372	15.1291	9.65576
 574	1	7	-0.020676	-12.7087	18.7471	8.68559
 575	1	7	-0.019785	-14.6109	16.7156	13.0565
 576	1	6	0.164889	-14.1575	27.7359	10.2068
 577	1	6	0.175264	-12.5798	23.7795	9.35932
 578	1	6	0.1582	-11.8387	24.549	7.14692
 579	1	6	0.150763	-10.7531	22.0546	12.366
 580	1	6	0.144868	-11.6656	24.3375	11.8481
 581	1	6	0.134072	-15.6657	22.6376	11.259
 582	1	7	-0.300668	-15.0981	14.0875	11.428
 583	1	7	-0.243237	-12.5364	15.9831	7.56722
 584	1	11	0.021835	-13.362	18.912	7.7838
 585	1	11	0.012312	-11.752	18.4635	8.26299
 586	1	11	0.041777	-12.515	19.6818	9.2068
 587	1	11	0.110598	-12.7412	16.804	6.85634
 588	1	11	0.08293	-11.423	15.7738	7.6436
 589	1	11	0.082252	-12.9558	15.1261	7.08628
 590	1	11	0.027698	-13.8535	16.3118	13.7204
 591	1	11	0.017051	-15.5092	16.1639	13.3777
 592	1	11	0.037874	-14.8426	17.7574	13.3773
 593	1	11	0.095908	-15.9454	13.9966	10.7603
 594	1	11	0.127068	-14.5545	13.0996	11.5305
 595	1	11	0.099095	-15.6111	14.3533	12.3618
 596	1	3	-0.024347	-11.2036	40.3468	1.0855
 597	1	3	-0.071478	-11.0161	38.9969	1.4656
 598	1	3	-0.180016	-12.1385	38.1154	1.51848
 599	1	5	-0.370097	-11.7084	42.793	-0.725295
 600	1	3	0.010306	-12.3243	40.6855	0.345105
 601	1	3	-0.071748	-13.2284	38.4628	0.710295
 602	1	5	-0.403598	-14.8874	39.49	-1.61593
 603	1	3	0.055994	-13.2447	39.7091	0.0757756
 604	1	2	0.021521	-12.4351	41.7899	-0.653179
 605	1	1	0.466017	-13.4725	41.4469	-1.49545
 606	1	2	0.096621	-14.0185	40.1894	-1.08467
 607	1	3	-0.099438	-9.64976	34.8878	0.392285
 608	1	7	-0.089685	-9.5812	38.5084	1.96184
 609	1	3	-0.037281	-9.47631	36.9353	1.86204
 610	1	3	-0.08188	-9.51677	36.3079	0.574557
 611	1	3	-0.106561	-9.63953	34.1829	1.61512
 612	1	3	-0.037628	-9.1918	36.0698	2.97387
 613	1	3	-0.12234	-9.31853	34.719	2.85335
 614	1	7	0.388954	-8.36929	39.1047	1.14852
 615	1	7	0.307788	-9.46795	39.1078	3.47954
 616	1	8	-0.129718	-7.14136	38.5386	1.52545
 617	1	8	-0.129089	-8.1644	40.4169	1.30958
 618	1	8	-0.119089	-8.43284	38.9273	-0.158998
 619	1	8	-0.103894	-10.4123	38.4642	4.27996
 620	1	8	-0.097852	-9.79278	40.4209	3.56441
 621	1	8	-0.104555	-8.22608	38.9517	4.02893
 622	1	2	0.521254	-9.69451	33.7075	3.90565
 623	1	2	0.53569	-9.90571	32.7685	1.80714
 624	1	1	0.027822	-10.0868	32.5563	3.22845
 625	1	5	-0.468874	-9.93219	33.9319	5.10266
 626	1	5	-0.477974	-9.964	32.021	0.846583
 627	1	3	-0.359831	-10.6665	31.424	3.9125
 628	1	3	0.131035	-10.0207	30.7805	4.97557
 629	1	3	-0.120983	-10.7313	29.952	5.86496
 630	1	3	0.127261	-12.0806	31.1455	3.77899
 631	1	3	-0.127195	-12.7664	30.1956	4.5464