pySIMM System Object

1857 atoms
2021 bonds
3578 angles
5326 dihedrals
538 impropers

11 atom types
13 bond types
22 angle types
9 dihedral types
4 improper types

-157.708833 157.708833 xlo xhi
-157.708833 157.708833 ylo yhi
-157.708833 157.708833 zlo zhi

Masses

   1	12.01	# ca
   2	16.0	# o
   3	12.01	# c
   4	14.01	# n
   5	12.01	# c3
   6	19.0	# f
   7	1.008	# ha
   8	1.008	# hn
   9	1.008	# hc
  10	16.0	# oh
  11	1.008	# ho

Pair Coeffs

   1	0.086	3.3996695084235347	# ca
   2	0.21	2.959921901149463	# o
   3	0.086	3.3996695084235347	# c
   4	0.17	3.249998523775958	# n
   5	0.1094	3.3996695084235347	# c3
   6	0.061	3.1181455134911875	# f
   7	0.015	2.59964245953351	# ha
   8	0.0157	1.069078461768407	# hn
   9	0.0157	2.649532787749369	# hc
  10	0.2104	3.0664733878390478	# oh
  11	0.0047	0.5379246460131368	# ho

Bond Coeffs

   1	345.9	1.4906	# c,ca
   2	330.6	1.0969	# c3,hc
   3	384.2	1.4121	# ca,n
   4	321.0	1.5156	# c3,ca
   5	403.2	1.0129	# hn,n
   6	461.1	1.3984	# ca,ca
   7	345.8	1.086	# ca,ha
   8	300.9	1.5375	# c3,c3
   9	637.7	1.2183	# c,o
  10	356.9	1.3497	# c3,f
  11	427.6	1.3789	# c,n
  12	400.1	1.3513	# c,oh
  13	371.4	0.973	# ho,oh

Angle Coeffs

   1	63.56	112.24	# ca,c3,ca
   2	63.74	127.08	# c,n,c
   3	48.18	119.88	# ca,ca,ha
   4	64.28	120.33	# c,ca,ca
   5	70.89	107.36	# f,c3,f
   6	39.4	107.58	# hc,c3,hc
   7	74.22	123.05	# n,c,o
   8	66.11	109.24	# c3,c3,f
   9	46.8	110.47	# ca,c3,hc
  10	66.62	120.02	# ca,ca,ca
  11	67.87	120.19	# ca,ca,n
  12	62.86	111.51	# c3,c3,c3
  13	63.15	112.07	# c3,c3,ca
  14	68.72	122.6	# ca,c,o
  15	48.33	117.55	# c,n,hn
  16	67.68	115.25	# ca,c,n
  17	63.82	123.71	# c,n,ca
  18	63.53	120.77	# c3,ca,ca
  19	49.88	106.55	# c,oh,ho
  20	69.15	113.45	# ca,c,oh
  21	75.92	122.1	# o,c,oh
  22	49.75	116.02	# ha,ca,n

Dihedral Coeffs

   1	1	1.0	2	180	# X,c,ca,X
   2	1	0.15555555555555556	3	0	# X,c3,c3,X
   3	1	0.0	2	0	# X,c3,ca,X
   4	1	2.5	2	180	# X,c,n,X
   5	1	0.45	2	180	# X,ca,n,X
   6	2	2.5	2	180	2.0	1	0	# hn,n,c,o
   7	1	3.625	2	180	# X,ca,ca,X
   8	1	2.3	2	180	# X,c,oh,X
   9	2	2.3	2	180	1.9	1	0	# ho,oh,c,o

Improper Coeffs

   1	10.5	-1	2	# c,X,X,o
   2	1.1	-1	2	# ca,ca,ca,c3
   3	1.1	-1	2	# ca,X,X,ha
   4	1.1	-1	2	# n,X,X,hn

Atoms

   1	1	1	-0.024347	14.4819	-35.7559	9.60407
   2	1	1	-0.071478	13.5933	-34.8075	10.1848
   3	1	1	-0.180016	12.7022	-35.2575	11.2006
   4	1	2	-0.370097	15.9934	-38.3189	8.67526
   5	1	1	0.010306	14.4723	-37.0737	10.0817
   6	1	1	-0.071748	12.7365	-36.5782	11.6929
   7	1	2	-0.403598	13.2847	-39.5853	12.2187
   8	1	1	0.055994	13.6394	-37.4663	11.1096
   9	1	3	0.021521	15.2434	-38.2658	9.63558
  10	1	4	0.466017	14.8548	-39.3018	10.4943
  11	1	3	0.096621	13.8698	-38.9042	11.3923
  12	1	1	-0.099438	14.1188	-31.9765	13.3601
  13	1	5	-0.089685	13.5438	-33.3062	9.75125
  14	1	1	-0.037281	13.4359	-32.4061	11.0189
  15	1	1	-0.08188	14.16	-32.7628	12.1904
  16	1	1	-0.106561	13.3422	-30.8126	13.3489
  17	1	1	-0.037628	12.694	-31.1925	11.0377
  18	1	1	-0.12234	12.6582	-30.4294	12.2136
  19	1	5	0.388954	14.854	-32.8228	9.01568
  20	1	5	0.307788	12.2954	-33.1521	8.79448
  21	1	6	-0.129718	14.9705	-33.3378	7.77281
  22	1	6	-0.129089	15.9735	-33.1419	9.7093
  23	1	6	-0.119089	14.8927	-31.4793	8.86984
  24	1	6	-0.103894	11.1251	-33.1743	9.47837
  25	1	6	-0.097852	12.2356	-34.1501	7.87925
  26	1	6	-0.104555	12.3031	-31.9949	8.09658
  27	1	3	0.521254	11.9777	-29.1346	12.5
  28	1	3	0.53569	13.0904	-29.797	14.4135
  29	1	4	0.027822	12.2762	-28.834	13.8273
  30	1	2	-0.468874	11.3173	-28.4759	11.7135
  31	1	2	-0.477974	13.5348	-29.8029	15.5495
  32	1	1	-0.359831	11.8324	-27.6517	14.5052
  33	1	1	0.131035	10.456	-27.4817	14.819
  34	1	1	-0.120983	10.0455	-26.2881	15.4496
  35	1	1	0.127261	12.7764	-26.6412	14.8395
  36	1	1	-0.127195	12.3425	-25.4972	15.5368
  37	1	1	0.144798	10.9884	-25.3291	15.8177
  38	1	5	-0.020676	14.2598	-26.7514	14.461
  39	1	5	-0.019785	9.39144	-28.5327	14.4816
  40	1	7	0.164889	15.1655	-35.5072	8.79919
  41	1	7	0.175264	11.9871	-34.563	11.6379
  42	1	7	0.1582	12.0693	-36.9105	12.4865
  43	1	7	0.150763	14.6749	-32.2628	14.2514
  44	1	7	0.144868	14.775	-33.6601	12.1975
  45	1	7	0.134072	12.1526	-30.826	10.1728
  46	1	5	-0.300668	8.58936	-25.9645	15.7449
  47	1	5	-0.243237	13.304	-24.4308	16.0373
  48	1	9	0.021835	14.3988	-27.2918	13.5163
  49	1	9	0.012312	14.8245	-27.2788	15.2382
  50	1	9	0.041777	14.7329	-25.775	14.3117
  51	1	9	0.110598	14.0937	-24.8737	16.6584
  52	1	9	0.08293	13.7758	-23.8956	15.2036
  53	1	9	0.082252	12.7885	-23.6804	16.6527
  54	1	9	0.027698	9.80911	-29.5347	14.3308
  55	1	9	0.017051	8.85074	-28.2533	13.5699
  56	1	9	0.037874	8.65442	-28.6309	15.2893
  57	1	9	0.095908	8.16463	-26.6624	16.474
  58	1	9	0.127068	8.48082	-24.9541	16.1624
  59	1	9	0.099095	7.98322	-26.0052	14.8321
  60	1	1	-0.024347	19.275	-50.2764	12.9735
  61	1	1	-0.071478	20.489	-49.7481	12.4364
  62	1	1	-0.180016	21.5833	-49.5692	13.3316
  63	1	2	-0.370097	17.0076	-51.5279	14.7423
  64	1	1	0.010306	19.2073	-50.6035	14.3427
  65	1	1	-0.071748	21.4901	-49.8865	14.6988
  66	1	2	-0.403598	20.687	-50.8312	17.5132
  67	1	1	0.055994	20.287	-50.4022	15.1753
  68	1	3	0.021521	18.1085	-51.2044	15.1619
  69	1	4	0.466017	18.6302	-51.323	16.4641
  70	1	3	0.096621	19.9431	-50.8522	16.5435
  71	1	1	-0.099438	18.2776	-47.5467	8.49657
  72	1	5	-0.089685	20.6402	-49.5008	10.894
  73	1	1	-0.037281	19.5382	-48.5246	10.3896
  74	1	1	-0.08188	19.092	-48.5601	9.03629
  75	1	1	-0.106561	17.9281	-46.4783	9.3214
  76	1	1	-0.037628	19.095	-47.4533	11.213
  77	1	1	-0.12234	18.2933	-46.448	10.6488
  78	1	5	0.388954	20.5657	-50.9333	10.2302
  79	1	5	0.307788	22.0194	-48.8289	10.4748
  80	1	6	-0.129718	21.3146	-51.8203	10.9186
  81	1	6	-0.129089	21.0174	-50.9909	8.95959
  82	1	6	-0.119089	19.3085	-51.4247	10.211
  83	1	6	-0.103894	23.097	-49.6069	10.7314
  84	1	6	-0.097852	22.2106	-47.6422	11.0969
  85	1	6	-0.104555	22.0961	-48.5399	9.15435
  86	1	3	0.521254	17.7426	-45.1974	11.2395
  87	1	3	0.53569	17.1941	-45.2295	9.00248
  88	1	4	0.027822	17.1084	-44.5208	10.1966
  89	1	2	-0.468874	17.8485	-44.8504	12.4032
  90	1	2	-0.477974	16.7622	-44.921	7.90568
  91	1	1	-0.359831	16.5173	-43.2152	10.3168
  92	1	1	0.131035	17.3386	-42.1072	10.6346
  93	1	1	-0.120983	16.7524	-40.8326	10.8141
  94	1	1	0.127261	15.1292	-43.0397	10.0989
  95	1	1	-0.127195	14.5812	-41.7327	10.0956
  96	1	1	0.144798	15.394	-40.6284	10.4657
  97	1	5	-0.020676	14.2339	-44.2512	9.8025
  98	1	5	-0.019785	18.8639	-42.2599	10.7759
  99	1	7	0.164889	18.4069	-50.4545	12.3438
 100	1	7	0.175264	22.5419	-49.1917	12.9954
 101	1	7	0.1582	22.3355	-49.7507	15.371
 102	1	7	0.150763	17.9811	-47.559	7.45003
 103	1	7	0.144868	19.4223	-49.3369	8.35754
 104	1	7	0.134072	19.4297	-47.3541	12.2448
 105	1	5	-0.300668	17.6112	-39.6605	11.3207
 106	1	5	-0.243237	13.1082	-41.5228	9.70376
 107	1	9	0.021835	13.2216	-44.1235	10.202
 108	1	9	0.012312	14.6125	-45.1736	10.2563
 109	1	9	0.041777	14.1514	-44.4158	8.72157
 110	1	9	0.110598	12.4494	-41.6425	10.5744
 111	1	9	0.08293	12.9165	-40.5318	9.2774
 112	1	9	0.082252	12.7775	-42.2314	8.93464
 113	1	9	0.027698	19.393	-41.4125	10.3247
 114	1	9	0.017051	19.2649	-43.1499	10.2776
 115	1	9	0.037874	19.1522	-42.3144	11.8332
 116	1	9	0.095908	18.3902	-39.9897	12.019
 117	1	9	0.127068	18.1084	-39.1514	10.482
 118	1	9	0.099095	17.0317	-38.9111	11.8725
 119	1	4	0.492035	13.9657	-58.8341	12.2548
 120	1	3	0.039235	13.5171	-58.7295	13.5763
 121	1	1	-0.015324	14.3145	-59.7057	14.3491
 122	1	3	0.029964	14.9505	-59.8257	12.1173
 123	1	1	0.070931	15.1767	-60.3488	13.4919
 124	1	2	-0.376136	12.6808	-57.9696	14.0371
 125	1	2	-0.378673	15.5275	-60.2026	11.1088
 126	1	1	-0.008856	14.3205	-59.9523	15.7224
 127	1	1	-0.050254	16.0995	-61.2833	13.9765
 128	1	1	-0.199808	16.1449	-61.527	15.3707
 129	1	1	-0.056025	15.2707	-60.8531	16.2717
 130	1	7	0.163004	13.6149	-59.4097	16.347
 131	1	7	0.15778	16.7768	-61.7865	13.2887
 132	1	7	0.172843	16.8772	-62.2425	15.7312
 133	1	5	-0.082157	15.3201	-61.0146	17.8224
 134	1	5	0.321766	14.1484	-62.0009	18.2123
 135	1	6	-0.115532	12.9391	-61.4813	17.9092
 136	1	6	-0.098544	14.1261	-62.3246	19.5263
 137	1	6	-0.116522	14.2192	-63.1624	17.5241
 138	1	5	0.409577	16.6803	-61.6054	18.3699
 139	1	6	-0.127323	16.7692	-61.4962	19.7142
 140	1	6	-0.131234	17.7576	-60.9611	17.8701
 141	1	6	-0.12834	16.8548	-62.9128	18.0742
 142	1	1	-0.054598	15.1604	-59.5619	18.3782
 143	1	1	-0.114682	16.0309	-58.5527	17.8829
 144	1	1	-0.027292	15.7907	-57.2124	18.205
 145	1	1	-0.053307	14.0895	-59.1571	19.2278
 146	1	1	-0.12014	13.8494	-57.7955	19.5176
 147	1	1	-0.108895	14.7167	-56.8385	18.976
 148	1	3	0.53745	14.7324	-55.3551	19.0954
 149	1	4	-0.142145	15.887	-54.9181	18.4398
 150	1	3	0.571477	16.5549	-55.9888	17.8477
 151	1	1	-0.002566	16.3989	-53.5761	18.4709
 152	1	1	-0.337427	16.1344	-52.7416	19.5717
 153	1	1	0.463101	16.579	-51.4139	19.6148
 154	1	1	-0.077757	17.2167	-53.0661	17.4372
 155	1	1	-0.17221	17.9587	-51.8773	17.6167
 156	1	1	-0.341697	17.424	-50.9677	18.5721
 157	1	3	0.246259	16.1569	-50.5587	20.7924
 158	1	7	0.163123	13.0091	-57.4911	20.1411
 159	1	7	0.140059	13.4024	-59.8823	19.6496
 160	1	7	0.184664	16.8595	-58.787	17.2161
 161	1	2	-0.57014	17.6162	-55.9783	17.2475
 162	1	2	-0.478504	13.9025	-54.6922	19.6936
 163	1	7	0.172599	18.82	-52.2718	18.1535
 164	1	7	0.35044	15.516	-53.0716	20.4036
 165	1	7	0.154366	17.395	-53.6653	16.5451
 166	1	7	0.237262	17.7737	-49.9364	18.595
 167	1	2	-0.49166	15.5684	-51.0177	21.7604
 168	1	10	-0.100187	16.4904	-49.2486	20.7371
 169	1	4	0.492035	-0.939774	-61.1552	7.53667
 170	1	3	0.039235	-0.269597	-61.7173	8.62011
 171	1	1	-0.015324	1.1601	-61.3787	8.39955
 172	1	3	0.029964	-0.105553	-60.4176	6.69944
 173	1	1	0.070931	1.25038	-60.5871	7.27275
 174	1	2	-0.376136	-0.733014	-62.3987	9.51935
 175	1	2	-0.378673	-0.39235	-59.8327	5.66795
 176	1	1	-0.008856	2.30301	-61.8407	9.06134
 177	1	1	-0.050254	2.48307	-60.1482	6.78811
 178	1	1	-0.199808	3.64686	-60.5817	7.45704
 179	1	1	-0.056025	3.58427	-61.4652	8.57266
 180	1	7	0.163004	2.16698	-62.5291	9.88859
 181	1	7	0.15778	2.53318	-59.5281	5.89655
 182	1	7	0.172843	4.61208	-60.2774	7.05918
 183	1	5	-0.082157	4.90653	-62.0954	9.10666
 184	1	5	0.321766	5.32892	-63.1922	8.05027
 185	1	6	-0.115532	6.33202	-63.9878	8.48244
 186	1	6	-0.098544	5.74086	-62.6397	6.88628
 187	1	6	-0.116522	4.29541	-64.0084	7.73104
 188	1	5	0.409577	4.76123	-62.7923	10.5172
 189	1	6	-0.127323	4.04092	-63.9355	10.4842
 190	1	6	-0.131234	4.17296	-61.987	11.4289
 191	1	6	-0.12834	5.96646	-63.1149	11.0373
 192	1	1	-0.054598	5.96745	-60.9741	9.29892
 193	1	1	-0.114682	7.3169	-61.115	8.87698
 194	1	1	-0.027292	8.2357	-60.1112	9.20564
 195	1	1	-0.053307	5.60688	-59.8072	10.0301
 196	1	1	-0.12014	6.55244	-58.8197	10.3698
 197	1	1	-0.108895	7.86947	-59.0083	9.94483
 198	1	3	0.53745	9.08387	-58.194	10.1889
 199	1	4	-0.142145	10.1332	-58.8768	9.59057
 200	1	3	0.571477	9.70033	-60.0351	8.95982
 201	1	1	-0.002566	11.502	-58.5035	9.71583
 202	1	1	-0.337427	12.3324	-58.4223	8.59028
 203	1	1	0.463101	13.6956	-58.113	8.71961
 204	1	1	-0.077757	12.0496	-58.2803	10.9892
 205	1	1	-0.17221	13.4247	-58.0234	11.1884
 206	1	1	-0.341697	14.2176	-57.901	10.0154
 207	1	3	0.246259	14.5493	-58.0392	7.4714
 208	1	7	0.163123	6.2761	-57.9474	10.9599
 209	1	7	0.140059	4.58367	-59.6804	10.3766
 210	1	7	0.184664	7.68569	-61.9875	8.34582
 211	1	2	-0.57014	10.3706	-60.8423	8.3408
 212	1	2	-0.478504	9.13154	-57.1599	10.8276
 213	1	7	0.172599	13.5322	-57.1123	11.7748
 214	1	7	0.35044	11.9555	-58.6373	7.59392
 215	1	7	0.154366	11.3902	-58.3485	11.8518
 216	1	7	0.237262	15.2851	-57.706	10.1114
 217	1	2	-0.49166	14.0772	-58.109	6.3467
 218	1	10	-0.100187	15.8844	-57.9246	7.66428
 219	1	1	-0.024347	-13.2153	-61.3097	5.15003
 220	1	1	-0.071478	-13.1369	-62.3159	4.15521
 221	1	1	-0.180016	-14.3102	-63.0861	3.8932
 222	1	2	-0.370097	-13.9495	-59.4304	7.47825
 223	1	1	0.010306	-14.4173	-61.132	5.83961
 224	1	1	-0.071748	-15.5237	-62.864	4.57814
 225	1	2	-0.403598	-17.8146	-61.7896	6.4282
 226	1	1	0.055994	-15.5481	-61.8705	5.55548
 227	1	3	0.021521	-14.7267	-60.2066	6.94861
 228	1	4	0.466017	-16.0702	-60.4341	7.24219
 229	1	3	0.096621	-16.6518	-61.4154	6.44165
 230	1	1	-0.099438	-9.77275	-63.5	6.56434
 231	1	5	-0.089685	-11.7945	-62.5149	3.38497
 232	1	1	-0.037281	-10.6265	-62.6263	4.41202
 233	1	1	-0.08188	-10.8177	-63.3359	5.63147
 234	1	1	-0.106561	-8.52144	-62.9541	6.2577
 235	1	1	-0.037628	-9.33396	-62.0998	4.14119
 236	1	1	-0.12234	-8.3115	-62.2765	5.07797
 237	1	5	0.388954	-11.6438	-61.2641	2.43013
 238	1	5	0.307788	-11.7682	-63.8366	2.52228
 239	1	6	-0.129718	-11.3198	-60.153	3.1269
 240	1	6	-0.129089	-12.7933	-60.9711	1.77926
 241	1	6	-0.119089	-10.6934	-61.4177	1.48206
 242	1	6	-0.103894	-12.079	-64.9227	3.26883
 243	1	6	-0.097852	-10.5536	-64.0896	1.97734
 244	1	6	-0.104555	-12.6388	-63.7961	1.49018
 245	1	3	0.521254	-6.90358	-61.8053	5.05343
 246	1	3	0.53569	-7.25304	-62.9344	7.03447
 247	1	4	0.027822	-6.34545	-62.212	6.26015
 248	1	2	-0.468874	-6.37103	-61.1756	4.15704
 249	1	2	-0.477974	-7.06783	-63.4781	8.10944
 250	1	1	-0.359831	-4.98353	-61.9485	6.62055
 251	1	1	0.131035	-4.63565	-60.6889	7.16813
 252	1	1	-0.120983	-3.28635	-60.4317	7.50902
 253	1	1	0.127261	-3.99938	-62.9354	6.36982
 254	1	1	-0.127195	-2.64587	-62.6648	6.66833
 255	1	1	0.144798	-2.30403	-61.4167	7.24176
 256	1	5	-0.020676	-4.37668	-64.2934	5.76138
 257	1	5	-0.019785	-5.69822	-59.6029	7.40362
 258	1	7	0.164889	-12.3572	-60.6901	5.40652
 259	1	7	0.175264	-14.3238	-63.8657	3.13981
 260	1	7	0.1582	-16.4173	-63.4467	4.36202
 261	1	7	0.150763	-9.92726	-64.041	7.49547
 262	1	7	0.144868	-11.7838	-63.7798	5.85642
 263	1	7	0.134072	-9.09597	-61.568	3.22733
 264	1	5	-0.300668	-2.87824	-59.0998	8.16761
 265	1	5	-0.243237	-1.54477	-63.7215	6.42693
 266	1	9	0.021835	-3.98417	-64.3819	4.74068
 267	1	9	0.012312	-5.45214	-64.4791	5.69877
 268	1	9	0.041777	-3.96288	-65.1167	6.35649
 269	1	9	0.110598	-1.81676	-64.4712	5.67619
 270	1	9	0.08293	-0.612109	-63.2792	6.0555
 271	1	9	0.082252	-1.3136	-64.2608	7.35544
 272	1	9	0.027698	-5.86741	-59.4514	8.47696
 273	1	9	0.017051	-6.67506	-59.8208	6.95968
 274	1	9	0.037874	-5.37611	-58.6453	6.97501
 275	1	9	0.095908	-2.53061	-58.3799	7.41428
 276	1	9	0.127068	-3.69487	-58.6266	8.72423
 277	1	9	0.099095	-2.07482	-59.2315	8.90259
 278	1	1	-0.024347	-22.4547	-55.5642	16.4914
 279	1	1	-0.071478	-22.1286	-54.1823	16.4764
 280	1	1	-0.180016	-22.8599	-53.3145	17.338
 281	1	2	-0.370097	-23.8454	-58.3396	16.6739
 282	1	1	0.010306	-23.5581	-55.9997	17.2277
 283	1	1	-0.071748	-23.9275	-53.7886	18.1314
 284	1	2	-0.403598	-26.2371	-55.4447	19.4011
 285	1	1	0.055994	-24.2793	-55.1361	18.022
 286	1	3	0.021521	-24.1861	-57.3457	17.2947
 287	1	4	0.466017	-25.2728	-57.1921	18.1548
 288	1	3	0.096621	-25.3856	-55.8955	18.6537
 289	1	1	-0.099438	-21.9093	-55.7582	12.44
 290	1	5	-0.089685	-20.9569	-53.679	15.5821
 291	1	1	-0.037281	-20.8096	-54.6414	14.3605
 292	1	1	-0.08188	-21.9641	-54.928	13.577
 293	1	1	-0.106561	-20.6756	-56.3124	12.091
 294	1	1	-0.037628	-19.5711	-55.2149	13.9549
 295	1	1	-0.12234	-19.5354	-56.0375	12.8178
 296	1	5	0.388954	-19.6859	-53.6368	16.5039
 297	1	5	0.307788	-21.1919	-52.2366	14.9802
 298	1	6	-0.129718	-19.9336	-52.9772	17.6567
 299	1	6	-0.129089	-19.2847	-54.8799	16.8547
 300	1	6	-0.119089	-18.6394	-53.0068	15.9266
 301	1	6	-0.103894	-20.2992	-51.9634	14.0005
 302	1	6	-0.097852	-21.0724	-51.243	15.8864
 303	1	6	-0.104555	-22.4197	-52.1059	14.4331
 304	1	3	0.521254	-18.3888	-56.7045	12.1337
 305	1	3	0.53569	-20.312	-57.1938	10.9493
 306	1	4	0.027822	-18.9364	-57.3778	11.045
 307	1	2	-0.468874	-17.2161	-56.6621	12.4647
 308	1	2	-0.477974	-21.0734	-57.6451	10.1102
 309	1	1	-0.359831	-18.1801	-58.1555	10.1101
 310	1	1	0.131035	-17.967	-59.5308	10.3448
 311	1	1	-0.120983	-17.211	-60.2835	9.41677
 312	1	1	0.127261	-17.6965	-57.5387	8.93799
 313	1	1	-0.127195	-17.0602	-58.318	7.95031
 314	1	1	0.144798	-16.7882	-59.68	8.20878
 315	1	5	-0.020676	-17.8724	-56.0307	8.73397
 316	1	5	-0.019785	-18.5093	-60.198	11.6151
 317	1	7	0.164889	-21.901	-56.2988	15.9108
 318	1	7	0.175264	-22.6096	-52.2619	17.4074
 319	1	7	0.1582	-24.4929	-53.1262	18.7826
 320	1	7	0.150763	-22.7959	-55.9678	11.8496
 321	1	7	0.144868	-22.9232	-54.5023	13.8527
 322	1	7	0.134072	-18.64	-55.0171	14.4706
 323	1	5	-0.300668	-16.862	-61.7505	9.70865
 324	1	5	-0.243237	-16.634	-57.6891	6.61499
 325	1	9	0.021835	-18.7917	-55.8189	8.18059
 326	1	9	0.012312	-17.0301	-55.5889	8.18756
 327	1	9	0.041777	-17.9164	-55.4764	9.67936
 328	1	9	0.110598	-15.5915	-57.3407	6.66135
 329	1	9	0.08293	-16.715	-58.3894	5.77616
 330	1	9	0.082252	-17.2593	-56.8359	6.32989
 331	1	9	0.027698	-18.9007	-61.202	11.4023
 332	1	9	0.017051	-19.3381	-59.6515	12.0785
 333	1	9	0.037874	-17.7178	-60.2979	12.367
 334	1	9	0.095908	-15.9034	-62.0518	9.27248
 335	1	9	0.127068	-16.7633	-61.9546	10.7831
 336	1	9	0.099095	-17.6369	-62.419	9.3103
 337	1	1	-0.024347	-34.5318	-65.4034	21.5695
 338	1	1	-0.071478	-33.7353	-65.6554	22.7153
 339	1	1	-0.180016	-34.3968	-66.0864	23.9053
 340	1	2	-0.370097	-36.7752	-65.0575	19.4527
 341	1	1	0.010306	-35.9192	-65.5768	21.648
 342	1	1	-0.071748	-35.7996	-66.2185	23.9715
 343	1	2	-0.403598	-38.8635	-66.3506	23.3921
 344	1	1	0.055994	-36.5411	-65.9589	22.8188
 345	1	3	0.021521	-36.9622	-65.4	20.6069
 346	1	4	0.466017	-38.1709	-65.6856	21.2464
 347	1	3	0.096621	-38.0047	-66.0532	22.578
 348	1	1	-0.099438	-32.1697	-61.7322	21.7837
 349	1	5	-0.089685	-32.182	-65.5424	22.5871
 350	1	1	-0.037281	-31.7906	-64.1721	21.9552
 351	1	1	-0.08188	-32.5379	-63.0031	22.2715
 352	1	1	-0.106561	-31.0193	-61.6395	20.9935
 353	1	1	-0.037628	-30.6293	-64.0266	21.1481
 354	1	1	-0.12234	-30.2748	-62.7565	20.6824
 355	1	5	0.388954	-31.7264	-66.7622	21.6974
 356	1	5	0.307788	-31.4444	-65.6025	23.973
 357	1	6	-0.129718	-32.0348	-66.5565	20.3961
 358	1	6	-0.129089	-32.3575	-67.8994	22.0691
 359	1	6	-0.119089	-30.4006	-67.0296	21.7535
 360	1	6	-0.103894	-31.9596	-64.6964	24.8349
 361	1	6	-0.097852	-30.1246	-65.3207	23.8595
 362	1	6	-0.104555	-31.5328	-66.8171	24.5586
 363	1	3	0.521254	-29.0992	-62.3307	19.8774
 364	1	3	0.53569	-30.3346	-60.4521	20.4184
 365	1	4	0.027822	-29.178	-60.9408	19.8106
 366	1	2	-0.468874	-28.2041	-63.0582	19.4794
 367	1	2	-0.477974	-30.6863	-59.2902	20.5404
 368	1	1	-0.359831	-28.1389	-60.0918	19.2989
 369	1	1	0.131035	-26.9283	-59.9756	20.0199
 370	1	1	-0.120983	-25.928	-59.0817	19.5714
 371	1	1	0.127261	-28.3598	-59.3225	18.1343
 372	1	1	-0.127195	-27.4128	-58.3359	17.7595
 373	1	1	0.144798	-26.1998	-58.2253	18.4809
 374	1	5	-0.020676	-29.6289	-59.5381	17.3063
 375	1	5	-0.019785	-26.7313	-60.782	21.3091
 376	1	7	0.164889	-34.0893	-65.0938	20.6258
 377	1	7	0.175264	-33.8448	-66.3333	24.8049
 378	1	7	0.1582	-36.2975	-66.5415	24.8834
 379	1	7	0.150763	-32.7372	-60.8408	22.0459
 380	1	7	0.144868	-33.4056	-63.0734	22.9247
 381	1	7	0.134072	-29.9818	-64.8588	20.8979
 382	1	5	-0.300668	-24.5912	-58.9505	20.3187
 383	1	5	-0.243237	-27.6581	-57.3895	16.5716
 384	1	9	0.021835	-30.1148	-60.4995	17.5058
 385	1	9	0.012312	-29.406	-59.5428	16.2317
 386	1	9	0.041777	-30.3606	-58.7452	17.5027
 387	1	9	0.110598	-28.6913	-57.3992	16.2085
 388	1	9	0.08293	-27.4585	-56.3433	16.8382
 389	1	9	0.082252	-27.01	-57.6515	15.7243
 390	1	9	0.027698	-26.3455	-61.7852	21.0884
 391	1	9	0.017051	-27.6634	-60.8945	21.8746
 392	1	9	0.037874	-26.0367	-60.303	22.007
 393	1	9	0.095908	-23.7675	-58.613	19.6786
 394	1	9	0.127068	-24.6803	-58.2477	21.1584
 395	1	9	0.099095	-24.2512	-59.9135	20.7207
 396	1	1	-0.024347	-50.5022	-63.0161	15.1529
 397	1	1	-0.071478	-49.6464	-63.9749	15.7692
 398	1	1	-0.180016	-49.4432	-65.2095	15.0905
 399	1	2	-0.370097	-52.4362	-61.3897	13.3336
 400	1	1	0.010306	-51.0846	-63.3089	13.9096
 401	1	1	-0.071748	-50.0501	-65.489	13.8456
 402	1	2	-0.403598	-51.6772	-65.4317	11.1817
 403	1	1	0.055994	-50.8746	-64.5149	13.2759
 404	1	3	0.021521	-52.0005	-62.4952	13.0614
 405	1	4	0.466017	-52.288	-63.2865	11.9446
 406	1	3	0.096621	-51.6435	-64.5247	11.9974
 407	1	1	-0.099438	-45.3371	-64.2158	15.8604
 408	1	5	-0.089685	-48.9773	-63.7654	17.1696
 409	1	1	-0.037281	-47.4722	-64.1667	17.1145
 410	1	1	-0.08188	-46.7208	-63.9472	15.9257
 411	1	1	-0.106561	-44.701	-64.6835	17.0139
 412	1	1	-0.037628	-46.7842	-64.6563	18.259
 413	1	1	-0.12234	-45.4091	-64.8959	18.1776
 414	1	5	0.388954	-49.7878	-64.6691	18.1787
 415	1	5	0.307788	-49.0018	-62.2637	17.6467
 416	1	6	-0.129718	-49.5102	-65.9808	18.0019
 417	1	6	-0.129089	-51.1209	-64.5315	18.007
 418	1	6	-0.119089	-49.5394	-64.3944	19.4772
 419	1	6	-0.103894	-48.5256	-61.4371	16.6888
 420	1	6	-0.097852	-48.22	-62.0517	18.7312
 421	1	6	-0.104555	-50.2415	-61.8442	17.9825
 422	1	3	0.521254	-44.448	-65.2817	19.2436
 423	1	3	0.53569	-43.2611	-64.9361	17.2891
 424	1	4	0.027822	-43.1892	-65.2474	18.6432
 425	1	2	-0.468874	-44.7257	-65.4917	20.4121
 426	1	2	-0.477974	-42.3419	-64.7923	16.4995
 427	1	1	-0.359831	-41.9488	-65.3838	19.3453
 428	1	1	0.131035	-41.2514	-66.6139	19.3188
 429	1	1	-0.120983	-39.9766	-66.7028	19.932
 430	1	1	0.127261	-41.4084	-64.2571	20.0097
 431	1	1	-0.127195	-40.1744	-64.3662	20.6897
 432	1	1	0.144798	-39.4497	-65.5837	20.6235
 433	1	5	-0.020676	-42.1234	-62.899	19.9978
 434	1	5	-0.019785	-41.8489	-67.8362	18.6042
 435	1	7	0.164889	-50.7327	-62.0587	15.606
 436	1	7	0.175264	-48.8084	-65.9714	15.5358
 437	1	7	0.1582	-49.8886	-66.4352	13.3377
 438	1	7	0.150763	-44.7673	-64.0243	14.9534
 439	1	7	0.144868	-47.2021	-63.5355	15.043
 440	1	7	0.134072	-47.2663	-64.7995	19.2184
 441	1	5	-0.300668	-39.1553	-68.0007	19.8178
 442	1	5	-0.243237	-39.6503	-63.1587	21.494
 443	1	9	0.021835	-43.105	-62.9075	19.526
 444	1	9	0.012312	-41.5219	-62.1538	19.458
 445	1	9	0.041777	-42.277	-62.5299	21.0196
 446	1	9	0.110598	-40.297	-62.9673	22.3617
 447	1	9	0.08293	-38.6345	-63.277	21.883
 448	1	9	0.082252	-39.6341	-62.2466	20.8829
 449	1	9	0.027698	-42.8947	-67.7124	18.3028
 450	1	9	0.017051	-41.8247	-68.7223	19.2494
 451	1	9	0.037874	-41.2772	-68.0671	17.6961
 452	1	9	0.095908	-38.1899	-67.9878	20.3342
 453	1	9	0.127068	-39.7071	-68.8554	20.2292
 454	1	9	0.099095	-38.9334	-68.2214	18.7661
 455	1	1	-0.024347	-60.8658	-59.2875	1.68326
 456	1	1	-0.071478	-59.5729	-59.8012	2.00517
 457	1	1	-0.180016	-58.4484	-58.9584	1.77862
 458	1	2	-0.370097	-63.356	-57.4962	1.21101
 459	1	1	0.010306	-60.9862	-57.9736	1.21838
 460	1	1	-0.071748	-58.5873	-57.6519	1.27476
 461	1	2	-0.403598	-59.6067	-54.8551	0.458955
 462	1	1	0.055994	-59.8765	-57.1792	1.02816
 463	1	3	0.021521	-62.2063	-57.1396	1.00896
 464	1	4	0.466017	-61.7198	-55.8635	0.699019
 465	1	3	0.096621	-60.3273	-55.8153	0.672905
 466	1	1	-0.099438	-58.3548	-59.6023	6.05984
 467	1	5	-0.089685	-59.336	-61.2061	2.65795
 468	1	1	-0.037281	-58.5974	-60.9909	4.02124
 469	1	1	-0.08188	-58.9749	-59.8806	4.82617
 470	1	1	-0.106561	-57.347	-60.4655	6.49919
 471	1	1	-0.037628	-57.5737	-61.8541	4.51638
 472	1	1	-0.12234	-56.9659	-61.5613	5.75202
 473	1	5	0.388954	-58.4817	-62.059	1.63719
 474	1	5	0.307788	-60.6947	-61.9685	2.94585
 475	1	6	-0.129718	-58.3872	-63.3682	1.95969
 476	1	6	-0.129089	-57.2093	-61.6148	1.51648
 477	1	6	-0.119089	-59.0188	-62.0111	0.39947
 478	1	6	-0.103894	-60.5216	-63.1133	3.6383
 479	1	6	-0.097852	-61.3663	-62.2949	1.81529
 480	1	6	-0.104555	-61.5368	-61.2337	3.70378
 481	1	3	0.521254	-55.917	-62.2951	6.52629
 482	1	3	0.53569	-56.573	-60.4684	7.76972
 483	1	4	0.027822	-55.7607	-61.599	7.72728
 484	1	2	-0.468874	-55.3261	-63.2996	6.16769
 485	1	2	-0.477974	-56.6501	-59.6291	8.64884
 486	1	1	-0.359831	-54.8881	-62.0113	8.80359
 487	1	1	0.131035	-55.4065	-62.7396	9.90154
 488	1	1	-0.120983	-54.5558	-63.1332	10.9677
 489	1	1	0.127261	-53.511	-61.7016	8.75132
 490	1	1	-0.127195	-52.6375	-62.1773	9.76359
 491	1	1	0.144798	-53.162	-62.8759	10.8825
 492	1	5	-0.020676	-52.9709	-60.8839	7.57185
 493	1	5	-0.019785	-56.8989	-63.081	9.95337
 494	1	7	0.164889	-61.7846	-59.8412	1.82685
 495	1	7	0.175264	-57.4455	-59.2956	2.04424
 496	1	7	0.1582	-57.7255	-56.9971	1.14757
 497	1	7	0.150763	-58.6629	-58.7528	6.66547
 498	1	7	0.144868	-59.7734	-59.2213	4.50074
 499	1	7	0.134072	-57.2457	-62.7359	3.97527
 500	1	5	-0.300668	-55.1464	-63.8321	12.2068
 501	1	5	-0.243237	-51.1273	-61.9106	9.65848
 502	1	9	0.021835	-52.7006	-61.5396	6.74055
 503	1	9	0.012312	-52.0858	-60.2918	7.8377
 504	1	9	0.041777	-53.7019	-60.1541	7.20036
 505	1	9	0.110598	-50.7696	-61.9943	8.61864
 506	1	9	0.08293	-50.8841	-60.9106	10.0151
 507	1	9	0.082252	-50.5139	-62.625	10.2223
 508	1	9	0.027698	-57.3703	-63.1114	8.96342
 509	1	9	0.017051	-57.4451	-62.3502	10.5596
 510	1	9	0.037874	-57.0688	-64.0762	10.3837
 511	1	9	0.095908	-56.1291	-63.4243	12.475
 512	1	9	0.127068	-55.2702	-64.9095	12.0306
 513	1	9	0.099095	-54.5375	-63.7129	13.1102
 514	1	1	-0.024347	-61.6376	-43.8578	-0.978279
 515	1	1	-0.071478	-62.5958	-44.518	-0.164285
 516	1	1	-0.180016	-62.1668	-45.0302	1.09753
 517	1	2	-0.370097	-59.1059	-42.6696	-2.30661
 518	1	1	0.010306	-60.3182	-43.7596	-0.5246
 519	1	1	-0.071748	-60.8288	-44.917	1.53807
 520	1	2	-0.403598	-57.7905	-44.3492	1.82531
 521	1	1	0.055994	-59.9228	-44.272	0.694171
 522	1	3	0.021521	-59.1307	-43.188	-1.20367
 523	1	4	0.466017	-58.0775	-43.3896	-0.314395
 524	1	3	0.096621	-58.4678	-44.0386	0.857067
 525	1	1	-0.099438	-66.2028	-47.8069	0.468705
 526	1	5	-0.089685	-64.0879	-44.6887	-0.600974
 527	1	1	-0.037281	-64.5281	-46.1445	-0.276522
 528	1	1	-0.08188	-65.8233	-46.4715	0.220312
 529	1	1	-0.106561	-65.2621	-48.8115	0.219255
 530	1	1	-0.037628	-63.6203	-47.2015	-0.54262
 531	1	1	-0.12234	-64.0081	-48.5146	-0.264899
 532	1	5	0.388954	-64.3457	-44.5102	-2.14858
 533	1	5	0.307788	-64.9003	-43.5967	0.189491
 534	1	6	-0.129718	-64.2035	-43.2365	-2.58333
 535	1	6	-0.129089	-65.604	-44.88	-2.48684
 536	1	6	-0.119089	-63.5086	-45.2871	-2.87771
 537	1	6	-0.103894	-64.303	-42.3889	0.0862148
 538	1	6	-0.097852	-64.9575	-43.883	1.51351
 539	1	6	-0.104555	-66.1706	-43.4373	-0.2595
 540	1	3	0.521254	-63.2395	-49.7776	-0.379778
 541	1	3	0.53569	-65.331	-50.2768	0.455272
 542	1	4	0.027822	-64.0893	-50.7815	0.0770614
 543	1	2	-0.468874	-62.0816	-49.8765	-0.748491
 544	1	2	-0.477974	-66.2569	-50.8651	0.986663
 545	1	1	-0.359831	-63.6707	-52.1433	0.239475
 546	1	1	0.131035	-63.4367	-52.9449	-0.904572
 547	1	1	-0.120983	-62.8178	-54.2097	-0.754423
 548	1	1	0.127261	-63.3754	-52.6155	1.53994
 549	1	1	-0.127195	-62.8111	-53.9026	1.69763
 550	1	1	0.144798	-62.5046	-54.6791	0.548244
 551	1	5	-0.020676	-63.6058	-51.7035	2.76249
 552	1	5	-0.019785	-63.8347	-52.4361	-2.29783
 553	1	7	0.164889	-61.8796	-43.4338	-1.94673
 554	1	7	0.175264	-62.8774	-45.5386	1.74519
 555	1	7	0.1582	-60.5026	-45.3189	2.49437
 556	1	7	0.150763	-67.1882	-48.0528	0.859155
 557	1	7	0.144868	-66.5613	-45.7	0.40565
 558	1	7	0.134072	-62.6294	-47.013	-0.939962
 559	1	5	-0.300668	-62.4636	-55.0681	-1.98664
 560	1	5	-0.243237	-62.4383	-54.3968	3.10833
 561	1	9	0.021835	-63.3252	-50.6654	2.55039
 562	1	9	0.012312	-63.0155	-51.9782	3.64226
 563	1	9	0.041777	-64.6616	-51.7115	3.06054
 564	1	9	0.110598	-63.2741	-54.2661	3.80817
 565	1	9	0.08293	-62.1854	-55.4596	3.16333
 566	1	9	0.082252	-61.577	-53.8405	3.50267
 567	1	9	0.027698	-62.9654	-52.0236	-2.82187
 568	1	9	0.017051	-64.6024	-51.6556	-2.26513
 569	1	9	0.037874	-64.2598	-53.2385	-2.91438
 570	1	9	0.095908	-62.4231	-54.4962	-2.92187
 571	1	9	0.127068	-61.4722	-55.5339	-1.90231
 572	1	9	0.099095	-63.1967	-55.8702	-2.12869
 573	1	1	-0.024347	-45.2474	-38.1966	0.219177
 574	1	1	-0.071478	-46.6001	-38.6014	0.378722
 575	1	1	-0.180016	-47.6311	-37.6298	0.20784
 576	1	2	-0.370097	-42.5848	-36.7283	-0.407089
 577	1	1	0.010306	-44.9835	-36.881	-0.167551
 578	1	1	-0.071748	-47.3379	-36.3076	-0.188733
 579	1	2	-0.403598	-46.0076	-33.716	-1.23785
 580	1	1	0.055994	-45.9974	-35.9713	-0.383783
 581	1	3	0.021521	-43.6913	-36.2296	-0.50117
 582	1	4	0.466017	-44.035	-34.9599	-0.962126
 583	1	3	0.096621	-45.4004	-34.7146	-0.891406
 584	1	1	-0.099438	-49.5721	-40.4553	-2.12661
 585	1	5	-0.089685	-46.9747	-40.061	0.751161
 586	1	1	-0.037281	-48.2909	-40.4169	0.00368955
 587	1	1	-0.08188	-48.4052	-40.1426	-1.39288
 588	1	1	-0.106561	-50.6333	-41.0463	-1.43322
 589	1	1	-0.037628	-49.3797	-41.0382	0.658162
 590	1	1	-0.12234	-50.5254	-41.3263	-0.0866896
 591	1	5	0.388954	-47.0668	-40.0709	2.32229
 592	1	5	0.307788	-45.9195	-41.1391	0.274303
 593	1	6	-0.129718	-48.0658	-39.286	2.79905
 594	1	6	-0.129089	-45.9189	-39.601	2.8577
 595	1	6	-0.119089	-47.2264	-41.3097	2.82707
 596	1	6	-0.103894	-46.4279	-42.3943	0.29674
 597	1	6	-0.097852	-44.7872	-41.1677	1.0097
 598	1	6	-0.104555	-45.527	-40.9397	-1.00246
 599	1	3	0.521254	-51.8001	-41.9274	0.37453
 600	1	3	0.53569	-52.0022	-41.4452	-1.8702
 601	1	4	0.027822	-52.6408	-41.9178	-0.732003
 602	1	2	-0.468874	-52.0466	-42.2796	1.51785
 603	1	2	-0.477974	-52.4723	-41.3425	-2.98959
 604	1	1	-0.359831	-54.025	-42.282	-0.690533
 605	1	1	0.131035	-54.9686	-41.3054	-0.303273
 606	1	1	-0.120983	-56.3371	-41.6524	-0.190255
 607	1	1	0.127261	-54.4277	-43.5813	-1.05731
 608	1	1	-0.127195	-55.8031	-43.9187	-1.02858
 609	1	1	0.144798	-56.7392	-42.968	-0.546621
 610	1	5	-0.020676	-53.3782	-44.6279	-1.44779
 611	1	5	-0.019785	-54.4607	-39.8954	0.0383448
 612	1	7	0.164889	-44.4114	-38.8769	0.346395
 613	1	7	0.175264	-48.6733	-37.8994	0.363316
 614	1	7	0.1582	-48.1231	-35.5751	-0.358944
 615	1	7	0.150763	-49.6459	-40.2406	-3.19007
 616	1	7	0.144868	-47.5754	-39.6773	-1.91895
 617	1	7	0.134072	-49.3696	-41.2845	1.71525
 618	1	5	-0.300668	-57.3467	-40.6255	0.357427
 619	1	5	-0.243237	-56.2791	-45.3216	-1.45966
 620	1	9	0.021835	-53.4445	-45.506	-0.790717
 621	1	9	0.012312	-52.339	-44.2801	-1.38856
 622	1	9	0.041777	-53.5322	-44.964	-2.47996
 623	1	9	0.110598	-55.6176	-45.7883	-2.19766
 624	1	9	0.08293	-56.346	-45.9968	-0.596181
 625	1	9	0.082252	-57.2657	-45.2948	-1.94007
 626	1	9	0.027698	-53.8489	-39.4886	-0.777724
 627	1	9	0.017051	-53.8346	-39.9271	0.937612
 628	1	9	0.037874	-55.2532	-39.1629	0.215774
 629	1	9	0.095908	-57.481	-39.7922	-0.346291
 630	1	9	0.127068	-58.3433	-41.0323	0.56027
 631	1	9	0.099095	-57.001	-40.2123	1.31361
 632	1	1	-0.024347	-40.5041	-24.7608	-7.9526