

################################################################################
##################################    Init    ##################################
################################################################################
units           real
atom_style      full
pair_style      lj/cut/coul/long 12.0  12.0
kspace_style    pppm 1e-4
bond_style      harmonic
angle_style     harmonic
dihedral_style  fourier
improper_style  cvff
special_bonds   amber
pair_modify     mix arithmetic
read_data       temp.lmps
  orthogonal box = (-105.178 -105.178 -105.178) to (105.178 105.178 105.178)
  2 by 2 by 4 MPI processor grid
  reading atoms ...
  554 atoms
  reading velocities ...
  554 velocities
  scanning bonds ...
  3 = max bonds/atom
  scanning angles ...
  6 = max angles/atom
  scanning dihedrals ...
  24 = max dihedrals/atom
  scanning impropers ...
  2 = max impropers/atom
  reading bonds ...
  603 bonds
  reading angles ...
  1063 angles
  reading dihedrals ...
  1590 dihedrals
  reading impropers ...
  164 impropers
  4 = max # of 1-2 neighbors
  10 = max # of 1-3 neighbors
  20 = max # of 1-4 neighbors
  22 = max # of special neighbors
  special bonds CPU = 0.00138998 secs
  read_data CPU = 0.0195799 secs
################################################################################

min_style cg
minimize 1e-05 1e-05 10000 100000
WARNING: Using 'neigh_modify every 1 delay 0 check yes' setting during minimization (../min.cpp:190)
PPPM initialization ...
WARNING: System is not charge neutral, net charge = -1.2e-05 (../kspace.cpp:313)
  using 12-bit tables for long-range coulomb (../kspace.cpp:332)
  G vector (1/distance) = 0.0953085
  grid = 18 18 18
  stencil order = 5
  estimated absolute RMS force accuracy = 0.0292813
  estimated relative force accuracy = 8.81799e-05
  using double precision KISS FFT
  3d grid and FFT values/proc = 1960 648
Neighbor list info ...
  update every 1 steps, delay 0 steps, check yes
  max neighbors/atom: 2000, page size: 100000
  master list distance cutoff = 14
  ghost atom cutoff = 14
  binsize = 7, bins = 31 31 31
  1 neighbor lists, perpetual/occasional/extra = 1 0 0
  (1) pair lj/cut/coul/long, perpetual
      attributes: half, newton on
      pair build: half/bin/newton
      stencil: half/bin/3d/newton
      bin: standard
Per MPI rank memory allocation (min/avg/max) = 18.84 | 19.09 | 19.65 Mbytes
Step Temp E_pair E_mol TotEng Press 
       0    1842.7071    388.77788    1135.1375    4561.4116    16.041462 
      75    1842.7071    375.91565    968.10421    4381.5161    15.422588 
Loop time of 0.590961 on 16 procs for 75 steps with 554 atoms

90.9% CPU use with 16 MPI tasks x no OpenMP threads

Minimization stats:
  Stopping criterion = linesearch alpha is zero
  Energy initial, next-to-last, final = 
         1523.91537153      1344.01986104      1344.01986104
  Force two-norm initial, final = 90.4308 45.8321
  Force max component initial, final = 11.3168 7.64801
  Final line search alpha, max atom move = 3.35642e-12 2.56699e-11
  Iterations, force evaluations = 75 209

MPI task timing breakdown:
Section |  min time  |  avg time  |  max time  |%varavg| %total
---------------------------------------------------------------
Pair    | 1.9073e-05 | 0.047284   | 0.41731    |  46.3 |  8.00
Bond    | 9.7036e-05 | 0.0065794  | 0.03122    |  11.6 |  1.11
Kspace  | 0.12834    | 0.5239     | 0.57912    |  15.1 | 88.65
Neigh   | 0.004704   | 0.0048176  | 0.0049233  |   0.1 |  0.82
Comm    | 0.00032735 | 0.003394   | 0.0072672  |   5.2 |  0.57
Output  | 0          | 0          | 0          |   0.0 |  0.00
Modify  | 0          | 0          | 0          |   0.0 |  0.00
Other   |            | 0.004984   |            |       |  0.84

Nlocal:    34.625 ave 172 max 0 min
Histogram: 9 2 1 1 0 1 0 1 0 1
Nghost:    194.625 ave 455 max 0 min
Histogram: 8 0 0 0 0 0 1 1 1 5
Neighs:    3271.19 ave 29666 max 0 min
Histogram: 11 3 1 0 0 0 0 0 0 1

Total # of neighbors = 52339
Ave neighs/atom = 94.4747
Ave special neighs/atom = 11.0686
Neighbor list builds = 3
Dangerous builds = 0
timestep        1
fix             pysimm_md all nvt temp 300 300 100
run             5000
PPPM initialization ...
  using 12-bit tables for long-range coulomb (../kspace.cpp:332)
  G vector (1/distance) = 0.0953085
  grid = 18 18 18
  stencil order = 5
  estimated absolute RMS force accuracy = 0.0292813
  estimated relative force accuracy = 8.81799e-05
  using double precision KISS FFT
  3d grid and FFT values/proc = 1960 648
Per MPI rank memory allocation (min/avg/max) = 17.71 | 17.96 | 18.53 Mbytes
Step Temp E_pair E_mol TotEng Press 
      75    1842.7071    375.91565    968.10421    4381.5161    15.422588 
    5075    281.07785    432.78833    1112.9986    2009.1123  -0.77947587 
Loop time of 4.45992 on 16 procs for 5000 steps with 554 atoms

Performance: 96.863 ns/day, 0.248 hours/ns, 1121.097 timesteps/s
92.3% CPU use with 16 MPI tasks x no OpenMP threads

MPI task timing breakdown:
Section |  min time  |  avg time  |  max time  |%varavg| %total
---------------------------------------------------------------
Pair    | 0.00047636 | 0.36928    | 2.1859     |  94.7 |  8.28
Bond    | 0.00096488 | 0.078028   | 0.31685    |  36.4 |  1.75
Kspace  | 1.7008     | 3.5718     | 3.9925     |  32.1 | 80.09
Neigh   | 0.086885   | 0.089709   | 0.092303   |   0.6 |  2.01
Comm    | 0.0065224  | 0.13626    | 0.38224    |  38.4 |  3.06
Output  | 2.2173e-05 | 2.3201e-05 | 3.0041e-05 |   0.0 |  0.00
Modify  | 0.030455   | 0.19922    | 0.3727     |  37.1 |  4.47
Other   |            | 0.01556    |            |       |  0.35

Nlocal:    34.625 ave 156 max 0 min
Histogram: 9 2 0 1 1 1 0 0 1 1
Nghost:    152.688 ave 369 max 0 min
Histogram: 8 0 0 0 0 0 2 1 3 2
Neighs:    2581.69 ave 14116 max 0 min
Histogram: 10 0 1 1 3 0 0 0 0 1

Total # of neighbors = 41307
Ave neighs/atom = 74.5614
Ave special neighs/atom = 11.0686
Neighbor list builds = 153
Dangerous builds = 0
unfix pysimm_md
write_dump all custom pysimm.dump.tmp id q x y z vx vy vz
quit


################################################################################
##################################    Init    ##################################
################################################################################
units           real
atom_style      full
pair_style      lj/cut/coul/long 12.0  12.0
kspace_style    pppm 1e-4
bond_style      harmonic
angle_style     harmonic
dihedral_style  fourier
improper_style  cvff
special_bonds   amber
pair_modify     mix arithmetic
read_data       temp.lmps
  orthogonal box = (-108.574 -108.574 -108.574) to (108.574 108.574 108.574)
  2 by 2 by 4 MPI processor grid
  reading atoms ...
  595 atoms
  reading velocities ...
  595 velocities
  scanning bonds ...
  3 = max bonds/atom
  scanning angles ...
  6 = max angles/atom
  scanning dihedrals ...
  24 = max dihedrals/atom
  scanning impropers ...
  2 = max impropers/atom
  reading bonds ...
  649 bonds
  reading angles ...
  1141 angles
  reading dihedrals ...
  1728 dihedrals
  reading impropers ...
  182 impropers
  4 = max # of 1-2 neighbors
  10 = max # of 1-3 neighbors
  20 = max # of 1-4 neighbors
  22 = max # of special neighbors
  special bonds CPU = 0.000879049 secs
  read_data CPU = 0.020149 secs
################################################################################

min_style cg
minimize 1e-05 1e-05 10000 100000
WARNING: Using 'neigh_modify every 1 delay 0 check yes' setting during minimization (../min.cpp:190)
PPPM initialization ...
  using 12-bit tables for long-range coulomb (../kspace.cpp:332)
  G vector (1/distance) = 0.0931067
  grid = 18 18 18
  stencil order = 5
  estimated absolute RMS force accuracy = 0.032784
  estimated relative force accuracy = 9.8728e-05
  using double precision KISS FFT
  3d grid and FFT values/proc = 1960 648
Neighbor list info ...
  update every 1 steps, delay 0 steps, check yes
  max neighbors/atom: 2000, page size: 100000
  master list distance cutoff = 14
  ghost atom cutoff = 14
  binsize = 7, bins = 32 32 32
  1 neighbor lists, perpetual/occasional/extra = 1 0 0
  (1) pair lj/cut/coul/long, perpetual
      attributes: half, newton on
      pair build: half/bin/newton
      stencil: half/bin/3d/newton
      bin: standard
Per MPI rank memory allocation (min/avg/max) = 18.84 | 19.06 | 19.64 Mbytes
Step Temp E_pair E_mol TotEng Press 
       0    1526.8322     455.2422    1180.7833    4339.4364    13.131176 
      20    1526.8322    447.59938    1157.8655    4308.8757    12.575724 
Loop time of 0.155171 on 16 procs for 20 steps with 595 atoms

95.0% CPU use with 16 MPI tasks x no OpenMP threads

Minimization stats:
  Stopping criterion = linesearch alpha is zero
  Energy initial, next-to-last, final = 
         1636.02553576      1605.46487089      1605.46487089
  Force two-norm initial, final = 78.2575 54.6683
  Force max component initial, final = 8.79492 9.59578
  Final line search alpha, max atom move = 3.09667e-12 2.9715e-11
  Iterations, force evaluations = 20 99

MPI task timing breakdown:
Section |  min time  |  avg time  |  max time  |%varavg| %total
---------------------------------------------------------------
Pair    | 1.502e-05  | 0.014612   | 0.069862   |  20.2 |  9.42
Bond    | 5.2452e-05 | 0.0032542  | 0.016663   |   9.4 |  2.10
Kspace  | 0.064526   | 0.13387    | 0.15226    |   8.2 | 86.27
Neigh   | 0          | 0          | 0          |   0.0 |  0.00
Comm    | 6.4135e-05 | 0.0011603  | 0.0027485  |   3.3 |  0.75
Output  | 0          | 0          | 0          |   0.0 |  0.00
Modify  | 0          | 0          | 0          |   0.0 |  0.00
Other   |            | 0.002276   |            |       |  1.47

Nlocal:    37.1875 ave 158 max 0 min
Histogram: 11 1 0 0 0 0 0 1 1 2
Nghost:    120.625 ave 293 max 0 min
Histogram: 8 0 0 0 0 0 2 2 1 3
Neighs:    2114.06 ave 10635 max 0 min
Histogram: 12 0 0 0 0 1 0 2 0 1

Total # of neighbors = 33825
Ave neighs/atom = 56.8487
Ave special neighs/atom = 11.1227
Neighbor list builds = 0
Dangerous builds = 0
timestep        1
fix             pysimm_md all nvt temp 300 300 100
run             5000
PPPM initialization ...
  using 12-bit tables for long-range coulomb (../kspace.cpp:332)
  G vector (1/distance) = 0.0931067
  grid = 18 18 18
  stencil order = 5
  estimated absolute RMS force accuracy = 0.032784
  estimated relative force accuracy = 9.8728e-05
  using double precision KISS FFT
  3d grid and FFT values/proc = 1960 648
Per MPI rank memory allocation (min/avg/max) = 17.72 | 17.94 | 18.52 Mbytes
Step Temp E_pair E_mol TotEng Press 
      20    1526.8322    447.59938    1157.8655    4308.8757    12.575724 
    5020    322.45017    458.62441    1335.4725    2365.0276   -2.8498113 
Loop time of 3.60186 on 16 procs for 5000 steps with 595 atoms

Performance: 119.938 ns/day, 0.200 hours/ns, 1388.172 timesteps/s
95.4% CPU use with 16 MPI tasks x no OpenMP threads

MPI task timing breakdown:
Section |  min time  |  avg time  |  max time  |%varavg| %total
---------------------------------------------------------------
Pair    | 0.00055337 | 0.26131    | 1.1616     |  75.0 |  7.25
Bond    | 0.0010173  | 0.088541   | 0.34376    |  41.8 |  2.46
Kspace  | 1.8491     | 2.8278     | 3.1458     |  24.6 | 78.51
Neigh   | 0.05307    | 0.054897   | 0.056181   |   0.4 |  1.52
Comm    | 0.0073347  | 0.14227    | 0.39158    |  37.7 |  3.95
Output  | 2.0981e-05 | 2.2024e-05 | 2.9087e-05 |   0.0 |  0.00
Modify  | 0.02918    | 0.2111     | 0.39155    |  37.6 |  5.86
Other   |            | 0.01588    |            |       |  0.44

Nlocal:    37.1875 ave 157 max 0 min
Histogram: 8 3 1 0 1 0 1 0 0 2
Nghost:    129.062 ave 375 max 0 min
Histogram: 8 0 0 0 1 3 1 1 1 1
Neighs:    1853 ave 7968 max 0 min
Histogram: 8 3 1 0 1 0 1 0 0 2

Total # of neighbors = 29648
Ave neighs/atom = 49.8286
Ave special neighs/atom = 11.1227
Neighbor list builds = 141
Dangerous builds = 0
unfix pysimm_md
write_dump all custom pysimm.dump.tmp id q x y z vx vy vz
quit


################################################################################
##################################    Init    ##################################
################################################################################
units           real
atom_style      full
pair_style      lj/cut/coul/long 12.0  12.0
kspace_style    pppm 1e-4
bond_style      harmonic
angle_style     harmonic
dihedral_style  fourier
improper_style  cvff
special_bonds   amber
pair_modify     mix arithmetic
read_data       temp.lmps
  orthogonal box = (-112.567 -112.567 -112.567) to (112.567 112.567 112.567)
  2 by 2 by 4 MPI processor grid
  reading atoms ...
  654 atoms
  reading velocities ...
  654 velocities
  scanning bonds ...
  3 = max bonds/atom
  scanning angles ...
  6 = max angles/atom
  scanning dihedrals ...
  24 = max dihedrals/atom
  scanning impropers ...
  2 = max impropers/atom
  reading bonds ...
  713 bonds
  reading angles ...
  1256 angles
  reading dihedrals ...
  1896 dihedrals
  reading impropers ...
  198 impropers
  4 = max # of 1-2 neighbors
  10 = max # of 1-3 neighbors
  20 = max # of 1-4 neighbors
  22 = max # of special neighbors
  special bonds CPU = 0.000853062 secs
  read_data CPU = 0.0213182 secs
################################################################################

min_style cg
minimize 1e-05 1e-05 10000 100000
WARNING: Using 'neigh_modify every 1 delay 0 check yes' setting during minimization (../min.cpp:190)
PPPM initialization ...
WARNING: System is not charge neutral, net charge = -1.2e-05 (../kspace.cpp:313)
  using 12-bit tables for long-range coulomb (../kspace.cpp:332)
  G vector (1/distance) = 0.0906392
  grid = 18 18 18
  stencil order = 5
  estimated absolute RMS force accuracy = 0.0340572
  estimated relative force accuracy = 0.000102562
  using double precision KISS FFT
  3d grid and FFT values/proc = 1960 648
Neighbor list info ...
  update every 1 steps, delay 0 steps, check yes
  max neighbors/atom: 2000, page size: 100000
  master list distance cutoff = 14
  ghost atom cutoff = 14
  binsize = 7, bins = 33 33 33
  1 neighbor lists, perpetual/occasional/extra = 1 0 0
  (1) pair lj/cut/coul/long, perpetual
      attributes: half, newton on
      pair build: half/bin/newton
      stencil: half/bin/3d/newton
      bin: standard
Per MPI rank memory allocation (min/avg/max) = 18.84 | 19.13 | 19.65 Mbytes
Step Temp E_pair E_mol TotEng Press 
       0    2295.4776    529.98137    1257.2279    6255.2853    19.236469 
      17    2295.4776    516.84244    1229.4265    6214.3449    18.994728 
Loop time of 0.183383 on 16 procs for 17 steps with 654 atoms

95.1% CPU use with 16 MPI tasks x no OpenMP threads

Minimization stats:
  Stopping criterion = linesearch alpha is zero
  Energy initial, next-to-last, final = 
         1787.20929286      1746.26896444      1746.26896444
  Force two-norm initial, final = 82.5588 64.9124
  Force max component initial, final = 10.6943 7.43994
  Final line search alpha, max atom move = 2.69456e-12 2.00474e-11
  Iterations, force evaluations = 17 93

MPI task timing breakdown:
Section |  min time  |  avg time  |  max time  |%varavg| %total
---------------------------------------------------------------
Pair    | 1.8358e-05 | 0.01966    | 0.10098    |  19.5 | 10.72
Bond    | 4.53e-05   | 0.0039484  | 0.015123   |   7.5 |  2.15
Kspace  | 0.062649   | 0.15597    | 0.18027    |   8.2 | 85.05
Neigh   | 0          | 0          | 0          |   0.0 |  0.00
Comm    | 5.4121e-05 | 0.001528   | 0.0034556  |   3.8 |  0.83
Output  | 0          | 0          | 0          |   0.0 |  0.00
Modify  | 0          | 0          | 0          |   0.0 |  0.00
Other   |            | 0.002279   |            |       |  1.24

Nlocal:    40.875 ave 159 max 0 min
Histogram: 8 1 1 1 0 3 1 0 0 1
Nghost:    192.812 ave 480 max 0 min
Histogram: 8 0 0 0 0 0 1 4 2 1
Neighs:    2631.81 ave 13583 max 0 min
Histogram: 8 2 2 2 0 0 1 0 0 1

Total # of neighbors = 42109
Ave neighs/atom = 64.3869
Ave special neighs/atom = 11.1223
Neighbor list builds = 0
Dangerous builds = 0
timestep        1
fix             pysimm_md all nvt temp 300 300 100
run             5000
PPPM initialization ...
  using 12-bit tables for long-range coulomb (../kspace.cpp:332)
  G vector (1/distance) = 0.0906392
  grid = 18 18 18
  stencil order = 5
  estimated absolute RMS force accuracy = 0.0340572
  estimated relative force accuracy = 0.000102562
  using double precision KISS FFT
  3d grid and FFT values/proc = 1960 648
Per MPI rank memory allocation (min/avg/max) = 17.72 | 18 | 18.53 Mbytes
Step Temp E_pair E_mol TotEng Press 
      17    2295.4776    516.84244    1229.4265    6214.3449    18.994728 
    5017    313.46573    503.99248    1393.5037    2507.6475  0.033111903 
Loop time of 4.10855 on 16 procs for 5000 steps with 654 atoms

Performance: 105.147 ns/day, 0.228 hours/ns, 1216.974 timesteps/s
95.5% CPU use with 16 MPI tasks x no OpenMP threads

MPI task timing breakdown:
Section |  min time  |  avg time  |  max time  |%varavg| %total
---------------------------------------------------------------
Pair    | 0.00050902 | 0.35812    | 1.7087     |  87.3 |  8.72
Bond    | 0.00091338 | 0.098052   | 0.38735    |  40.6 |  2.39
Kspace  | 1.7882     | 3.218      | 3.6351     |  31.3 | 78.32
Neigh   | 0.066795   | 0.068904   | 0.070722   |   0.5 |  1.68
Comm    | 0.0072436  | 0.13815    | 0.35753    |  36.6 |  3.36
Output  | 2.3127e-05 | 2.3678e-05 | 3.1948e-05 |   0.0 |  0.00
Modify  | 0.032498   | 0.2113     | 0.3891     |  37.8 |  5.14
Other   |            | 0.01606    |            |       |  0.39

Nlocal:    40.875 ave 148 max 0 min
Histogram: 10 0 0 0 1 1 1 1 1 1
Nghost:    161.5 ave 439 max 0 min
Histogram: 5 3 0 0 3 1 0 1 1 2
Neighs:    2466 ave 8775 max 0 min
Histogram: 10 0 1 0 0 1 0 1 1 2

Total # of neighbors = 39456
Ave neighs/atom = 60.3303
Ave special neighs/atom = 11.1223
Neighbor list builds = 133
Dangerous builds = 0
unfix pysimm_md
write_dump all custom pysimm.dump.tmp id q x y z vx vy vz
quit


################################################################################
##################################    Init    ##################################
################################################################################
units           real
atom_style      full
pair_style      lj/cut/coul/long 12.0  12.0
kspace_style    pppm 1e-4
bond_style      harmonic
angle_style     harmonic
dihedral_style  fourier
improper_style  cvff
special_bonds   amber
pair_modify     mix arithmetic
read_data       temp.lmps
  orthogonal box = (-114.791 -114.791 -114.791) to (114.791 114.791 114.791)
  2 by 2 by 4 MPI processor grid
  reading atoms ...
  704 atoms
  reading velocities ...
  704 velocities
  scanning bonds ...
  3 = max bonds/atom
  scanning angles ...
  6 = max angles/atom
  scanning dihedrals ...
  24 = max dihedrals/atom
  scanning impropers ...
  2 = max impropers/atom
  reading bonds ...
  768 bonds
  reading angles ...
  1351 angles
  reading dihedrals ...
  2046 dihedrals
  reading impropers ...
  215 impropers
  4 = max # of 1-2 neighbors
  10 = max # of 1-3 neighbors
  20 = max # of 1-4 neighbors
  22 = max # of special neighbors
  special bonds CPU = 0.000987053 secs
  read_data CPU = 0.0222111 secs
################################################################################

min_style cg
minimize 1e-05 1e-05 10000 100000
WARNING: Using 'neigh_modify every 1 delay 0 check yes' setting during minimization (../min.cpp:190)
PPPM initialization ...
WARNING: System is not charge neutral, net charge = -1.2e-05 (../kspace.cpp:313)
  using 12-bit tables for long-range coulomb (../kspace.cpp:332)
  G vector (1/distance) = 0.0965602
  grid = 20 20 20
  stencil order = 5
  estimated absolute RMS force accuracy = 0.0297582
  estimated relative force accuracy = 8.9616e-05
  using double precision KISS FFT
  3d grid and FFT values/proc = 2250 800
Neighbor list info ...
  update every 1 steps, delay 0 steps, check yes
  max neighbors/atom: 2000, page size: 100000
  master list distance cutoff = 14
  ghost atom cutoff = 14
  binsize = 7, bins = 33 33 33
  1 neighbor lists, perpetual/occasional/extra = 1 0 0
  (1) pair lj/cut/coul/long, perpetual
      attributes: half, newton on
      pair build: half/bin/newton
      stencil: half/bin/3d/newton
      bin: standard
Per MPI rank memory allocation (min/avg/max) = 18.86 | 19.02 | 19.65 Mbytes
Step Temp E_pair E_mol TotEng Press 
       0    6320.5677    536.63866    1207.1456    14988.594    45.210501 
      56    6320.5677    525.00381    1143.1236    14912.937    47.856727 
Loop time of 0.438143 on 16 procs for 56 steps with 704 atoms

93.6% CPU use with 16 MPI tasks x no OpenMP threads

Minimization stats:
  Stopping criterion = linesearch alpha is zero
  Energy initial, next-to-last, final = 
         1743.78424598      1668.12738469      1668.12738469
  Force two-norm initial, final = 73.7982 36.2776
  Force max component initial, final = 10.1203 5.28712
  Final line search alpha, max atom move = 6.11515e-12 3.23315e-11
  Iterations, force evaluations = 56 169

MPI task timing breakdown:
Section |  min time  |  avg time  |  max time  |%varavg| %total
---------------------------------------------------------------
Pair    | 1.4544e-05 | 0.030382   | 0.2236     |  40.4 |  6.93
Bond    | 5.0306e-05 | 0.0074812  | 0.05312    |  19.3 |  1.71
Kspace  | 0.15085    | 0.39034    | 0.42937    |  14.0 | 89.09
Neigh   | 0.002485   | 0.0025343  | 0.002609   |   0.1 |  0.58
Comm    | 0.00020838 | 0.0023045  | 0.0044582  |   2.9 |  0.53
Output  | 0          | 0          | 0          |   0.0 |  0.00
Modify  | 0          | 0          | 0          |   0.0 |  0.00
Other   |            | 0.005104   |            |       |  1.16

Nlocal:    44 ave 316 max 0 min
Histogram: 13 1 0 0 0 0 0 0 0 2
Nghost:    88.4375 ave 239 max 0 min
Histogram: 4 2 2 1 2 1 1 0 1 2
Neighs:    2167 ave 16169 max 0 min
Histogram: 13 1 0 0 0 0 0 0 0 2

Total # of neighbors = 34672
Ave neighs/atom = 49.25
Ave special neighs/atom = 11.1307
Neighbor list builds = 2
Dangerous builds = 0
timestep        1
fix             pysimm_md all nvt temp 300 300 100
run             5000
PPPM initialization ...
  using 12-bit tables for long-range coulomb (../kspace.cpp:332)
  G vector (1/distance) = 0.0965602
  grid = 20 20 20
  stencil order = 5
  estimated absolute RMS force accuracy = 0.0297582
  estimated relative force accuracy = 8.9616e-05
  using double precision KISS FFT
  3d grid and FFT values/proc = 2250 800
Per MPI rank memory allocation (min/avg/max) = 17.74 | 17.89 | 18.53 Mbytes
Step Temp E_pair E_mol TotEng Press 
      56    6320.5677    525.00381    1143.1236    14912.937    47.856727 
    5056    288.03579    551.57035    1456.5592    2611.7113   -1.2825729 
Loop time of 5.2881 on 16 procs for 5000 steps with 704 atoms

Performance: 81.693 ns/day, 0.294 hours/ns, 945.519 timesteps/s
92.9% CPU use with 16 MPI tasks x no OpenMP threads

MPI task timing breakdown:
Section |  min time  |  avg time  |  max time  |%varavg| %total
---------------------------------------------------------------
Pair    | 0.00049615 | 0.3258     | 2.3028     | 121.8 |  6.16
Bond    | 0.00092125 | 0.09774    | 0.62637    |  64.5 |  1.85
Kspace  | 2.1141     | 4.1752     | 4.5387     |  35.6 | 78.96
Neigh   | 0.1024     | 0.10387    | 0.10573    |   0.3 |  1.96
Comm    | 0.0063806  | 0.23422    | 0.60694    |  54.5 |  4.43
Output  | 2.3127e-05 | 2.3976e-05 | 3.1948e-05 |   0.0 |  0.00
Modify  | 0.035072   | 0.33019    | 0.61627    |  49.3 |  6.24
Other   |            | 0.02105    |            |       |  0.40

Nlocal:    44 ave 266 max 0 min
Histogram: 12 1 0 0 0 1 0 0 0 2
Nghost:    110.625 ave 325 max 0 min
Histogram: 6 2 1 0 0 2 2 2 0 1
Neighs:    2552.19 ave 17898 max 0 min
Histogram: 13 0 0 0 0 1 1 0 0 1

Total # of neighbors = 40835
Ave neighs/atom = 58.0043
Ave special neighs/atom = 11.1307
Neighbor list builds = 156
Dangerous builds = 0
unfix pysimm_md
write_dump all custom pysimm.dump.tmp id q x y z vx vy vz
quit


################################################################################
##################################    Init    ##################################
################################################################################
units           real
atom_style      full
pair_style      lj/cut/coul/long 12.0  12.0
kspace_style    pppm 1e-4
bond_style      harmonic
angle_style     harmonic
dihedral_style  fourier
improper_style  cvff
special_bonds   amber
pair_modify     mix arithmetic
read_data       temp.lmps
  orthogonal box = (-117.662 -117.662 -117.662) to (117.662 117.662 117.662)
  2 by 2 by 4 MPI processor grid
  reading atoms ...
  763 atoms
  reading velocities ...
  763 velocities
  scanning bonds ...
  3 = max bonds/atom
  scanning angles ...
  6 = max angles/atom
  scanning dihedrals ...
  24 = max dihedrals/atom
  scanning impropers ...
  2 = max impropers/atom
  reading bonds ...
  832 bonds
  reading angles ...
  1465 angles
  reading dihedrals ...
  2212 dihedrals
  reading impropers ...
  231 impropers
  4 = max # of 1-2 neighbors
  10 = max # of 1-3 neighbors
  20 = max # of 1-4 neighbors
  22 = max # of special neighbors
  special bonds CPU = 0.000799894 secs
  read_data CPU = 0.0208721 secs
################################################################################

min_style cg
minimize 1e-05 1e-05 10000 100000
WARNING: Using 'neigh_modify every 1 delay 0 check yes' setting during minimization (../min.cpp:190)
PPPM initialization ...
WARNING: System is not charge neutral, net charge = -1.4e-05 (../kspace.cpp:313)
  using 12-bit tables for long-range coulomb (../kspace.cpp:332)
  G vector (1/distance) = 0.0948345
  grid = 20 20 20
  stencil order = 5
  estimated absolute RMS force accuracy = 0.0307745
  estimated relative force accuracy = 9.26765e-05
  using double precision KISS FFT
  3d grid and FFT values/proc = 2250 800
Neighbor list info ...
  update every 1 steps, delay 0 steps, check yes
  max neighbors/atom: 2000, page size: 100000
  master list distance cutoff = 14
  ghost atom cutoff = 14
  binsize = 7, bins = 34 34 34
  1 neighbor lists, perpetual/occasional/extra = 1 0 0
  (1) pair lj/cut/coul/long, perpetual
      attributes: half, newton on
      pair build: half/bin/newton
      stencil: half/bin/3d/newton
      bin: standard
Per MPI rank memory allocation (min/avg/max) = 18.87 | 19.24 | 19.68 Mbytes
Step Temp E_pair E_mol TotEng Press 
       0    1098.9339    588.41211      1284.05    4368.5555     9.202179 
      38    1098.9339    560.40495    1219.0708    4275.5692     8.012561 
Loop time of 0.277733 on 16 procs for 38 steps with 763 atoms

93.0% CPU use with 16 MPI tasks x no OpenMP threads

Minimization stats:
  Stopping criterion = linesearch alpha is zero
  Energy initial, next-to-last, final = 
          1872.4621605      1779.47579528      1779.47579528
  Force two-norm initial, final = 78.6848 42.3742
  Force max component initial, final = 9.7037 5.02935
  Final line search alpha, max atom move = 4.12964e-12 2.07694e-11
  Iterations, force evaluations = 38 135

MPI task timing breakdown:
Section |  min time  |  avg time  |  max time  |%varavg| %total
---------------------------------------------------------------
Pair    | 1.9789e-05 | 0.038154   | 0.15321    |  23.5 | 13.74
Bond    | 5.0545e-05 | 0.006584   | 0.022195   |   9.0 |  2.37
Kspace  | 0.092102   | 0.22403    | 0.26996    |  11.4 | 80.66
Neigh   | 0.0022638  | 0.0023607  | 0.0024407  |   0.1 |  0.85
Comm    | 0.0002563  | 0.0027689  | 0.0059464  |   4.7 |  1.00
Output  | 0          | 0          | 0          |   0.0 |  0.00
Modify  | 0          | 0          | 0          |   0.0 |  0.00
Other   |            | 0.003835   |            |       |  1.38

Nlocal:    47.6875 ave 165 max 0 min
Histogram: 8 0 1 0 3 1 1 1 0 1
Nghost:    243.812 ave 535 max 0 min
Histogram: 8 0 0 0 0 0 0 1 2 5
Neighs:    3589.38 ave 15461 max 0 min
Histogram: 8 0 2 2 2 0 1 0 0 1

Total # of neighbors = 57430
Ave neighs/atom = 75.2687
Ave special neighs/atom = 11.1219
Neighbor list builds = 2
Dangerous builds = 0
timestep        1
fix             pysimm_md all nvt temp 300 300 100
run             5000
PPPM initialization ...
  using 12-bit tables for long-range coulomb (../kspace.cpp:332)
  G vector (1/distance) = 0.0948345
  grid = 20 20 20
  stencil order = 5
  estimated absolute RMS force accuracy = 0.0307745
  estimated relative force accuracy = 9.26765e-05
  using double precision KISS FFT
  3d grid and FFT values/proc = 2250 800
Per MPI rank memory allocation (min/avg/max) = 17.74 | 18.11 | 18.56 Mbytes
Step Temp E_pair E_mol TotEng Press 
      38    1098.9339    560.40495    1219.0708    4275.5692     8.012561 
    5038    306.76508    551.83074    1673.3603    2921.9702   -2.1937995 
Loop time of 5.19664 on 16 procs for 5000 steps with 763 atoms

Performance: 83.131 ns/day, 0.289 hours/ns, 962.160 timesteps/s
93.8% CPU use with 16 MPI tasks x no OpenMP threads

MPI task timing breakdown:
Section |  min time  |  avg time  |  max time  |%varavg| %total
---------------------------------------------------------------
Pair    | 0.00051761 | 0.52456    | 2.4021     |  96.5 | 10.09
Bond    | 0.00076103 | 0.11221    | 0.39239    |  40.1 |  2.16
Kspace  | 2.0775     | 4.0269     | 4.6003     |  36.9 | 77.49
Neigh   | 0.11418    | 0.11722    | 0.12012    |   0.6 |  2.26
Comm    | 0.0084579  | 0.14667    | 0.39319    |  38.1 |  2.82
Output  | 2.1935e-05 | 2.3276e-05 | 3.0994e-05 |   0.0 |  0.00
Modify  | 0.027641   | 0.25176    | 0.45495    |  40.1 |  4.84
Other   |            | 0.01728    |            |       |  0.33

Nlocal:    47.6875 ave 268 max 0 min
Histogram: 10 0 1 2 2 0 0 0 0 1
Nghost:    234.062 ave 557 max 0 min
Histogram: 8 0 0 0 0 1 0 2 2 3
Neighs:    4632.25 ave 32639 max 0 min
Histogram: 10 2 2 0 1 0 0 0 0 1

Total # of neighbors = 74116
Ave neighs/atom = 97.1376
Ave special neighs/atom = 11.1219
Neighbor list builds = 151
Dangerous builds = 0
unfix pysimm_md
write_dump all custom pysimm.dump.tmp id q x y z vx vy vz
quit


################################################################################
##################################    Init    ##################################
################################################################################
units           real
atom_style      full
pair_style      lj/cut/coul/long 12.0  12.0
kspace_style    pppm 1e-4
bond_style      harmonic
angle_style     harmonic
dihedral_style  fourier
improper_style  cvff
special_bonds   amber
pair_modify     mix arithmetic
read_data       temp.lmps
  orthogonal box = (-121.259 -121.259 -121.259) to (121.259 121.259 121.259)
  2 by 2 by 4 MPI processor grid
  reading atoms ...
  867 atoms
  reading velocities ...
  867 velocities
  scanning bonds ...
  3 = max bonds/atom
  scanning angles ...
  6 = max angles/atom
  scanning dihedrals ...
  24 = max dihedrals/atom
  scanning impropers ...
  2 = max impropers/atom
  reading bonds ...
  941 bonds
  reading angles ...
  1670 angles
  reading dihedrals ...
  2450 dihedrals
  reading impropers ...
  242 impropers
  4 = max # of 1-2 neighbors
  10 = max # of 1-3 neighbors
  20 = max # of 1-4 neighbors
  22 = max # of special neighbors
  special bonds CPU = 0.00100207 secs
  read_data CPU = 0.024492 secs
################################################################################

min_style cg
minimize 1e-05 1e-05 10000 100000
WARNING: Using 'neigh_modify every 1 delay 0 check yes' setting during minimization (../min.cpp:190)
PPPM initialization ...
WARNING: System is not charge neutral, net charge = -2.6e-05 (../kspace.cpp:313)
  using 12-bit tables for long-range coulomb (../kspace.cpp:332)
  G vector (1/distance) = 0.0856802
  grid = 18 18 18
  stencil order = 5
  estimated absolute RMS force accuracy = 0.0336313
  estimated relative force accuracy = 0.00010128
  using double precision KISS FFT
  3d grid and FFT values/proc = 1960 648
Neighbor list info ...
  update every 1 steps, delay 0 steps, check yes
  max neighbors/atom: 2000, page size: 100000
  master list distance cutoff = 14
  ghost atom cutoff = 14
  binsize = 7, bins = 35 35 35
  1 neighbor lists, perpetual/occasional/extra = 1 0 0
  (1) pair lj/cut/coul/long, perpetual
      attributes: half, newton on
      pair build: half/bin/newton
      stencil: half/bin/3d/newton
      bin: standard
Per MPI rank memory allocation (min/avg/max) = 18.85 | 19.09 | 19.67 Mbytes
Step Temp E_pair E_mol TotEng Press 
       0    1213.9317    679.13149    1354.8623    5167.6146    10.408096 
      50    1213.9317    670.49788     1248.568    5052.6867    10.434504 
Loop time of 0.456785 on 16 procs for 50 steps with 867 atoms

94.0% CPU use with 16 MPI tasks x no OpenMP threads

Minimization stats:
  Stopping criterion = linesearch alpha is zero
  Energy initial, next-to-last, final = 
          2033.9937801      1919.06583997      1919.06583997
  Force two-norm initial, final = 87.1819 53.8148
  Force max component initial, final = 10.4195 8.82328
  Final line search alpha, max atom move = 2.35025e-12 2.07369e-11
  Iterations, force evaluations = 50 173

MPI task timing breakdown:
Section |  min time  |  avg time  |  max time  |%varavg| %total
---------------------------------------------------------------
Pair    | 3.0518e-05 | 0.042182   | 0.28223    |  37.0 |  9.23
Bond    | 6.6519e-05 | 0.0079204  | 0.041218   |  14.0 |  1.73
Kspace  | 0.12695    | 0.39546    | 0.44673    |  14.0 | 86.57
Neigh   | 0.00337    | 0.0035034  | 0.0035839  |   0.1 |  0.77
Comm    | 0.0002377  | 0.0026561  | 0.0057304  |   4.7 |  0.58
Output  | 0          | 0          | 0          |   0.0 |  0.00
Modify  | 0          | 0          | 0          |   0.0 |  0.00
Other   |            | 0.005066   |            |       |  1.11

Nlocal:    54.1875 ave 265 max 0 min
Histogram: 10 1 1 1 0 0 1 0 1 1
Nghost:    197.312 ave 487 max 0 min
Histogram: 8 0 0 0 1 0 0 2 2 3
Neighs:    3800.69 ave 23920 max 0 min
Histogram: 10 3 0 0 0 1 1 0 0 1

Total # of neighbors = 60811
Ave neighs/atom = 70.1396
Ave special neighs/atom = 11.0173
Neighbor list builds = 2
Dangerous builds = 0
timestep        1
fix             pysimm_md all nvt temp 300 300 100
run             5000
PPPM initialization ...
  using 12-bit tables for long-range coulomb (../kspace.cpp:332)
  G vector (1/distance) = 0.0856802
  grid = 18 18 18
  stencil order = 5
  estimated absolute RMS force accuracy = 0.0336313
  estimated relative force accuracy = 0.00010128
  using double precision KISS FFT
  3d grid and FFT values/proc = 1960 648
Per MPI rank memory allocation (min/avg/max) = 17.72 | 17.97 | 18.54 Mbytes
Step Temp E_pair E_mol TotEng Press 
      50    1213.9317    670.49788     1248.568    5052.6867    10.434504 
    5050    289.48534    714.95191    1606.6936    3068.9176   -2.2291612 
Loop time of 4.68619 on 16 procs for 5000 steps with 867 atoms

Performance: 92.186 ns/day, 0.260 hours/ns, 1066.964 timesteps/s
94.5% CPU use with 16 MPI tasks x no OpenMP threads

MPI task timing breakdown:
Section |  min time  |  avg time  |  max time  |%varavg| %total
---------------------------------------------------------------
Pair    | 0.00048447 | 0.39385    | 2.1206     |  94.7 |  8.40
Bond    | 0.00087881 | 0.11576    | 0.47469    |  45.8 |  2.47
Kspace  | 1.8108     | 3.6212     | 4.0692     |  33.3 | 77.27
Neigh   | 0.10491    | 0.10792    | 0.1105     |   0.6 |  2.30
Comm    | 0.0071263  | 0.16195    | 0.45367    |  44.0 |  3.46
Output  | 2.1935e-05 | 2.4974e-05 | 3.2902e-05 |   0.0 |  0.00
Modify  | 0.028106   | 0.26786    | 0.50004    |  43.3 |  5.72
Other   |            | 0.01763    |            |       |  0.38

Nlocal:    54.1875 ave 173 max 0 min
Histogram: 9 0 0 0 2 2 0 0 0 3
Nghost:    177.625 ave 439 max 0 min
Histogram: 8 0 0 0 0 0 2 2 2 2
Neighs:    2774.75 ave 11964 max 0 min
Histogram: 9 0 2 1 1 0 1 1 0 1

Total # of neighbors = 44396
Ave neighs/atom = 51.2065
Ave special neighs/atom = 11.0173
Neighbor list builds = 161
Dangerous builds = 0
unfix pysimm_md
write_dump all custom pysimm.dump.tmp id q x y z vx vy vz
quit


################################################################################
##################################    Init    ##################################
################################################################################
units           real
atom_style      full
pair_style      lj/cut/coul/long 12.0  12.0
kspace_style    pppm 1e-4
bond_style      harmonic
angle_style     harmonic
dihedral_style  fourier
improper_style  cvff
special_bonds   amber
pair_modify     mix arithmetic
read_data       temp.lmps
  orthogonal box = (-123.896 -123.896 -123.896) to (123.896 123.896 123.896)
  2 by 2 by 4 MPI processor grid
  reading atoms ...
  863 atoms
  reading velocities ...
  863 velocities
  scanning bonds ...
  3 = max bonds/atom
  scanning angles ...
  6 = max angles/atom
  scanning dihedrals ...
  24 = max dihedrals/atom
  scanning impropers ...
  2 = max impropers/atom
  reading bonds ...
  942 bonds
  reading angles ...
  1658 angles
  reading dihedrals ...
  2518 dihedrals
  reading impropers ...
  265 impropers
  4 = max # of 1-2 neighbors
  10 = max # of 1-3 neighbors
  20 = max # of 1-4 neighbors
  22 = max # of special neighbors
  special bonds CPU = 0.0009408 secs
  read_data CPU = 0.024292 secs
################################################################################

min_style cg
minimize 1e-05 1e-05 10000 100000
WARNING: Using 'neigh_modify every 1 delay 0 check yes' setting during minimization (../min.cpp:190)
PPPM initialization ...
WARNING: System is not charge neutral, net charge = -1.4e-05 (../kspace.cpp:313)
  using 12-bit tables for long-range coulomb (../kspace.cpp:332)
  G vector (1/distance) = 0.0912822
  grid = 20 20 20
  stencil order = 5
  estimated absolute RMS force accuracy = 0.034256
  estimated relative force accuracy = 0.000103161
  using double precision KISS FFT
  3d grid and FFT values/proc = 2250 800
Neighbor list info ...
  update every 1 steps, delay 0 steps, check yes
  max neighbors/atom: 2000, page size: 100000
  master list distance cutoff = 14
  ghost atom cutoff = 14
  binsize = 7, bins = 36 36 36
  1 neighbor lists, perpetual/occasional/extra = 1 0 0
  (1) pair lj/cut/coul/long, perpetual
      attributes: half, newton on
      pair build: half/bin/newton
      stencil: half/bin/3d/newton
      bin: standard
Per MPI rank memory allocation (min/avg/max) = 18.88 | 19.19 | 19.68 Mbytes
Step Temp E_pair E_mol TotEng Press 
       0    2031.0982    681.07129    1646.6962    7546.5896    14.778559 
      16    2031.0982    684.49178    1617.4968    7520.8108    15.641733 
Loop time of 0.164916 on 16 procs for 16 steps with 863 atoms

95.7% CPU use with 16 MPI tasks x no OpenMP threads

Minimization stats:
  Stopping criterion = linesearch alpha is zero
  Energy initial, next-to-last, final = 
         2327.76750711      2301.98862807      2301.98862807
  Force two-norm initial, final = 74.5806 65.9971
  Force max component initial, final = 9.06463 7.48601
  Final line search alpha, max atom move = 1.59149e-12 1.19139e-11
  Iterations, force evaluations = 16 91

MPI task timing breakdown:
Section |  min time  |  avg time  |  max time  |%varavg| %total
---------------------------------------------------------------
Pair    | 1.955e-05  | 0.023823   | 0.076557   |  20.5 | 14.45
Bond    | 4.6968e-05 | 0.0050428  | 0.017102   |   9.4 |  3.06
Kspace  | 0.066589   | 0.13186    | 0.16175    |  10.7 | 79.96
Neigh   | 0          | 0          | 0          |   0.0 |  0.00
Comm    | 5.7697e-05 | 0.0018043  | 0.0033131  |   2.9 |  1.09
Output  | 0          | 0          | 0          |   0.0 |  0.00
Modify  | 0          | 0          | 0          |   0.0 |  0.00
Other   |            | 0.002385   |            |       |  1.45

Nlocal:    53.9375 ave 195 max 0 min
Histogram: 10 0 0 0 1 1 0 1 2 1
Nghost:    192.625 ave 432 max 0 min
Histogram: 4 3 1 0 0 0 2 2 0 4
Neighs:    3166.81 ave 10135 max 0 min
Histogram: 10 0 0 0 0 1 1 0 1 3

Total # of neighbors = 50669
Ave neighs/atom = 58.7126
Ave special neighs/atom = 11.1564
Neighbor list builds = 0
Dangerous builds = 0
timestep        1
fix             pysimm_md all nvt temp 300 300 100
run             5000
PPPM initialization ...
  using 12-bit tables for long-range coulomb (../kspace.cpp:332)
  G vector (1/distance) = 0.0912822
  grid = 20 20 20
  stencil order = 5
  estimated absolute RMS force accuracy = 0.034256
  estimated relative force accuracy = 0.000103161
  using double precision KISS FFT
  3d grid and FFT values/proc = 2250 800
Per MPI rank memory allocation (min/avg/max) = 17.75 | 18.07 | 18.56 Mbytes
Step Temp E_pair E_mol TotEng Press 
      16    2031.0982    684.49178    1617.4968    7520.8108    15.641733 
    5016    314.88734    675.54907    1910.2865    3394.9255    2.0072277 
Loop time of 4.70363 on 16 procs for 5000 steps with 863 atoms

Performance: 91.844 ns/day, 0.261 hours/ns, 1063.008 timesteps/s
95.3% CPU use with 16 MPI tasks x no OpenMP threads

MPI task timing breakdown:
Section |  min time  |  avg time  |  max time  |%varavg| %total
---------------------------------------------------------------
Pair    | 0.00051808 | 0.4587     | 1.7345     |  93.1 |  9.75
Bond    | 0.00099874 | 0.12677    | 0.49242    |  48.7 |  2.70
Kspace  | 2.216      | 3.5628     | 4.0727     |  35.6 | 75.75
Neigh   | 0.084143   | 0.08594    | 0.088018   |   0.4 |  1.83
Comm    | 0.0090275  | 0.16699    | 0.51832    |  43.6 |  3.55
Output  | 2.408e-05  | 2.5064e-05 | 3.4094e-05 |   0.0 |  0.00
Modify  | 0.032325   | 0.2841     | 0.51923    |  43.7 |  6.04
Other   |            | 0.01833    |            |       |  0.39

Nlocal:    53.9375 ave 259 max 0 min
Histogram: 11 0 0 0 1 2 1 0 0 1
Nghost:    170.875 ave 492 max 0 min
Histogram: 8 0 0 0 2 2 0 1 1 2
Neighs:    3688.81 ave 21476 max 0 min
Histogram: 11 0 0 2 2 0 0 0 0 1

Total # of neighbors = 59021
Ave neighs/atom = 68.3905
Ave special neighs/atom = 11.1564
Neighbor list builds = 143
Dangerous builds = 0
unfix pysimm_md
write_dump all custom pysimm.dump.tmp id q x y z vx vy vz
quit


################################################################################
##################################    Init    ##################################
################################################################################
units           real
atom_style      full
pair_style      lj/cut/coul/long 12.0  12.0
kspace_style    pppm 1e-4
bond_style      harmonic
angle_style     harmonic
dihedral_style  fourier
improper_style  cvff
special_bonds   amber
pair_modify     mix arithmetic
read_data       temp.lmps
  orthogonal box = (-125.529 -125.529 -125.529) to (125.529 125.529 125.529)
  2 by 2 by 4 MPI processor grid
  reading atoms ...
  913 atoms
  reading velocities ...
  913 velocities
  scanning bonds ...
  3 = max bonds/atom
  scanning angles ...
  6 = max angles/atom
  scanning dihedrals ...
  24 = max dihedrals/atom
  scanning impropers ...
  2 = max impropers/atom
  reading bonds ...
  997 bonds
  reading angles ...
  1753 angles
  reading dihedrals ...
  2668 dihedrals
  reading impropers ...
  282 impropers
  4 = max # of 1-2 neighbors
  10 = max # of 1-3 neighbors
  20 = max # of 1-4 neighbors
  22 = max # of special neighbors
  special bonds CPU = 0.00106812 secs
  read_data CPU = 0.02598 secs
################################################################################

min_style cg
minimize 1e-05 1e-05 10000 100000
WARNING: Using 'neigh_modify every 1 delay 0 check yes' setting during minimization (../min.cpp:190)
PPPM initialization ...
WARNING: System is not charge neutral, net charge = -1.4e-05 (../kspace.cpp:313)
  using 12-bit tables for long-range coulomb (../kspace.cpp:332)
  G vector (1/distance) = 0.0903936
  grid = 20 20 20
  stencil order = 5
  estimated absolute RMS force accuracy = 0.0357677
  estimated relative force accuracy = 0.000107713
  using double precision KISS FFT
  3d grid and FFT values/proc = 2250 800
Neighbor list info ...
  update every 1 steps, delay 0 steps, check yes
  max neighbors/atom: 2000, page size: 100000
  master list distance cutoff = 14
  ghost atom cutoff = 14
  binsize = 7, bins = 36 36 36
  1 neighbor lists, perpetual/occasional/extra = 1 0 0
  (1) pair lj/cut/coul/long, perpetual
      attributes: half, newton on
      pair build: half/bin/newton
      stencil: half/bin/3d/newton
      bin: standard
Per MPI rank memory allocation (min/avg/max) = 18.87 | 19.06 | 19.68 Mbytes
Step Temp E_pair E_mol TotEng Press 
       0    3269.7369    655.15834     1644.279    11188.213    23.157915 
      34    3269.7369    636.38373    1598.8667    11124.026    23.460827 
Loop time of 0.451129 on 16 procs for 34 steps with 913 atoms

93.9% CPU use with 16 MPI tasks x no OpenMP threads

Minimization stats:
  Stopping criterion = linesearch alpha is zero
  Energy initial, next-to-last, final = 
         2299.43736218      2235.25040773      2235.25040773
  Force two-norm initial, final = 81.3149 46.9425
  Force max component initial, final = 15.9197 6.26779
  Final line search alpha, max atom move = 3.32804e-12 2.08594e-11
  Iterations, force evaluations = 34 127

MPI task timing breakdown:
Section |  min time  |  avg time  |  max time  |%varavg| %total
---------------------------------------------------------------
Pair    | 1.8597e-05 | 0.036068   | 0.29239    |  41.3 |  7.99
Bond    | 5.0783e-05 | 0.00661    | 0.040197   |  15.5 |  1.47
Kspace  | 0.11037    | 0.4009     | 0.44427    |  14.4 | 88.87
Neigh   | 0.002243   | 0.0022786  | 0.0023181  |   0.1 |  0.51
Comm    | 0.00012922 | 0.0014936  | 0.0033317  |   3.5 |  0.33
Output  | 0          | 0          | 0          |   0.0 |  0.00
Modify  | 0          | 0          | 0          |   0.0 |  0.00
Other   |            | 0.003778   |            |       |  0.84

Nlocal:    57.0625 ave 370 max 0 min
Histogram: 12 0 1 0 1 0 0 1 0 1
Nghost:    110.125 ave 333 max 0 min
Histogram: 8 1 0 2 0 0 0 1 3 1
Neighs:    3834.69 ave 32886 max 0 min
Histogram: 13 0 1 0 1 0 0 0 0 1

Total # of neighbors = 61355
Ave neighs/atom = 67.2015
Ave special neighs/atom = 11.161
Neighbor list builds = 1
Dangerous builds = 0
timestep        1
fix             pysimm_md all nvt temp 300 300 100
run             5000
PPPM initialization ...
  using 12-bit tables for long-range coulomb (../kspace.cpp:332)
  G vector (1/distance) = 0.0903936
  grid = 20 20 20
  stencil order = 5
  estimated absolute RMS force accuracy = 0.0357677
  estimated relative force accuracy = 0.000107713
  using double precision KISS FFT
  3d grid and FFT values/proc = 2250 800
Per MPI rank memory allocation (min/avg/max) = 17.75 | 17.95 | 18.55 Mbytes
Step Temp E_pair E_mol TotEng Press 
      34    3269.7369    636.38373    1598.8667    11124.026    23.460827 
    5034     298.8999     746.5102     1898.471    3457.5402    1.7183844 
Loop time of 6.96425 on 16 procs for 5000 steps with 913 atoms

Performance: 62.031 ns/day, 0.387 hours/ns, 717.952 timesteps/s
94.3% CPU use with 16 MPI tasks x no OpenMP threads

MPI task timing breakdown:
Section |  min time  |  avg time  |  max time  |%varavg| %total
---------------------------------------------------------------
Pair    | 0.00049782 | 0.47257    | 3.7015     | 144.5 |  6.79
Bond    | 0.00091529 | 0.1247     | 0.71232    |  65.0 |  1.79
Kspace  | 2.2518     | 5.5735     | 6.0835     |  43.7 | 80.03
Neigh   | 0.16365    | 0.16631    | 0.16949    |   0.4 |  2.39
Comm    | 0.005332   | 0.20282    | 0.6746     |  56.3 |  2.91
Output  | 2.3127e-05 | 2.4274e-05 | 3.2902e-05 |   0.0 |  0.00
Modify  | 0.03348    | 0.40373    | 0.68662    |  47.3 |  5.80
Other   |            | 0.02062    |            |       |  0.30

Nlocal:    57.0625 ave 331 max 0 min
Histogram: 11 1 1 1 0 0 0 0 0 2
Nghost:    139.062 ave 442 max 0 min
Histogram: 8 0 0 3 0 1 0 1 2 1
Neighs:    3351.12 ave 27984 max 0 min
Histogram: 12 1 1 0 1 0 0 0 0 1

Total # of neighbors = 53618
Ave neighs/atom = 58.7273
Ave special neighs/atom = 11.161
Neighbor list builds = 169
Dangerous builds = 0
unfix pysimm_md
write_dump all custom pysimm.dump.tmp id q x y z vx vy vz
quit


################################################################################
##################################    Init    ##################################
################################################################################
units           real
atom_style      full
pair_style      lj/cut/coul/long 12.0  12.0
kspace_style    pppm 1e-4
bond_style      harmonic
angle_style     harmonic
dihedral_style  fourier
improper_style  cvff
special_bonds   amber
pair_modify     mix arithmetic
read_data       temp.lmps
  orthogonal box = (-127.943 -127.943 -127.943) to (127.943 127.943 127.943)
  2 by 2 by 4 MPI processor grid
  reading atoms ...
  972 atoms
  reading velocities ...
  972 velocities
  scanning bonds ...
  3 = max bonds/atom
  scanning angles ...
  6 = max angles/atom
  scanning dihedrals ...
  24 = max dihedrals/atom
  scanning impropers ...
  2 = max impropers/atom
  reading bonds ...
  1061 bonds
  reading angles ...
  1867 angles
  reading dihedrals ...
  2834 dihedrals
  reading impropers ...
  298 impropers
  4 = max # of 1-2 neighbors
  10 = max # of 1-3 neighbors
  20 = max # of 1-4 neighbors
  22 = max # of special neighbors
  special bonds CPU = 0.00151587 secs
  read_data CPU = 0.0270979 secs
################################################################################

min_style cg
minimize 1e-05 1e-05 10000 100000
WARNING: Using 'neigh_modify every 1 delay 0 check yes' setting during minimization (../min.cpp:190)
PPPM initialization ...
WARNING: System is not charge neutral, net charge = -1.6e-05 (../kspace.cpp:313)
  using 12-bit tables for long-range coulomb (../kspace.cpp:332)
  G vector (1/distance) = 0.101815
  grid = 24 24 24
  stencil order = 5
  estimated absolute RMS force accuracy = 0.0257693
  estimated relative force accuracy = 7.76036e-05
  using double precision KISS FFT
  3d grid and FFT values/proc = 3179 1152
Neighbor list info ...
  update every 1 steps, delay 0 steps, check yes
  max neighbors/atom: 2000, page size: 100000
  master list distance cutoff = 14
  ghost atom cutoff = 14
  binsize = 7, bins = 37 37 37
  1 neighbor lists, perpetual/occasional/extra = 1 0 0
  (1) pair lj/cut/coul/long, perpetual
      attributes: half, newton on
      pair build: half/bin/newton
      stencil: half/bin/3d/newton
      bin: standard
Per MPI rank memory allocation (min/avg/max) = 18.94 | 19.27 | 19.78 Mbytes
Step Temp E_pair E_mol TotEng Press 
       0    3263.5695    745.67999    1735.7904    11927.437    25.777709 
      12    3263.5695    744.82522    1717.8598    11908.651    26.027103 
Loop time of 0.243168 on 16 procs for 12 steps with 972 atoms

95.5% CPU use with 16 MPI tasks x no OpenMP threads

Minimization stats:
  Stopping criterion = linesearch alpha is zero
  Energy initial, next-to-last, final = 
         2481.47034789      2462.68498374      2462.68498374
  Force two-norm initial, final = 65.5879 48.0014
  Force max component initial, final = 8.56927 5.26322
  Final line search alpha, max atom move = 3.87078e-12 2.03728e-11
  Iterations, force evaluations = 12 83

MPI task timing breakdown:
Section |  min time  |  avg time  |  max time  |%varavg| %total
---------------------------------------------------------------
Pair    | 1.6451e-05 | 0.020433   | 0.12626    |  23.2 |  8.40
Bond    | 3.8624e-05 | 0.0046968  | 0.022982   |   9.9 |  1.93
Kspace  | 0.089888   | 0.21471    | 0.24033    |   8.6 | 88.30
Neigh   | 0          | 0          | 0          |   0.0 |  0.00
Comm    | 5.3644e-05 | 0.0011065  | 0.0025358  |   3.2 |  0.46
Output  | 0          | 0          | 0          |   0.0 |  0.00
Modify  | 0          | 0          | 0          |   0.0 |  0.00
Other   |            | 0.002222   |            |       |  0.91

Nlocal:    60.75 ave 280 max 0 min
Histogram: 10 0 0 1 2 2 0 0 0 1
Nghost:    153.312 ave 479 max 0 min
Histogram: 8 0 0 1 0 3 2 0 1 1
Neighs:    3164.44 ave 18636 max 0 min
Histogram: 10 0 1 4 0 0 0 0 0 1

Total # of neighbors = 50631
Ave neighs/atom = 52.0895
Ave special neighs/atom = 11.1523
Neighbor list builds = 0
Dangerous builds = 0
timestep        1
fix             pysimm_md all nvt temp 300 300 100
run             5000
PPPM initialization ...
  using 12-bit tables for long-range coulomb (../kspace.cpp:332)
  G vector (1/distance) = 0.101815
  grid = 24 24 24
  stencil order = 5
  estimated absolute RMS force accuracy = 0.0257693
  estimated relative force accuracy = 7.76036e-05
  using double precision KISS FFT
  3d grid and FFT values/proc = 3179 1152
Per MPI rank memory allocation (min/avg/max) = 17.82 | 18.14 | 18.66 Mbytes
Step Temp E_pair E_mol TotEng Press 
      12    3263.5695    744.82522    1717.8598    11908.651    26.027103 
    5012    299.70109    769.49517    2065.8049    3702.7449   -2.2668066 
Loop time of 5.71722 on 16 procs for 5000 steps with 972 atoms

Performance: 75.561 ns/day, 0.318 hours/ns, 874.550 timesteps/s
95.1% CPU use with 16 MPI tasks x no OpenMP threads

MPI task timing breakdown:
Section |  min time  |  avg time  |  max time  |%varavg| %total
---------------------------------------------------------------
Pair    | 0.00049639 | 0.42186    | 2.1622     |  92.7 |  7.38
Bond    | 0.00099611 | 0.13718    | 0.54498    |  47.6 |  2.40
Kspace  | 2.7184     | 4.5451     | 5.0132     |  30.3 | 79.50
Neigh   | 0.10494    | 0.1087     | 0.11128    |   0.6 |  1.90
Comm    | 0.0066857  | 0.16772    | 0.48702    |  45.2 |  2.93
Output  | 2.3842e-05 | 2.4468e-05 | 3.1948e-05 |   0.0 |  0.00
Modify  | 0.031498   | 0.31812    | 0.57105    |  44.6 |  5.56
Other   |            | 0.01852    |            |       |  0.32

Nlocal:    60.75 ave 261 max 0 min
Histogram: 8 2 1 1 1 1 0 0 1 1
Nghost:    173.5 ave 558 max 0 min
Histogram: 8 0 1 0 3 0 1 1 1 1
Neighs:    3243.44 ave 15408 max 0 min
Histogram: 9 2 0 1 2 0 0 1 0 1

Total # of neighbors = 51895
Ave neighs/atom = 53.3899
Ave special neighs/atom = 11.1523
Neighbor list builds = 150
Dangerous builds = 0
unfix pysimm_md
write_dump all custom pysimm.dump.tmp id q x y z vx vy vz
quit


################################################################################
##################################    Init    ##################################
################################################################################
units           real
atom_style      full
pair_style      lj/cut/coul/long 12.0  12.0
kspace_style    pppm 1e-4
bond_style      harmonic
angle_style     harmonic
dihedral_style  fourier
improper_style  cvff
special_bonds   amber
pair_modify     mix arithmetic
read_data       temp.lmps
  orthogonal box = (-130.27 -130.27 -130.27) to (130.27 130.27 130.27)
  2 by 2 by 4 MPI processor grid
  reading atoms ...
  1031 atoms
  reading velocities ...
  1031 velocities
  scanning bonds ...
  3 = max bonds/atom
  scanning angles ...
  6 = max angles/atom
  scanning dihedrals ...
  24 = max dihedrals/atom
  scanning impropers ...
  2 = max impropers/atom
  reading bonds ...
  1125 bonds
  reading angles ...
  1981 angles
  reading dihedrals ...
  3000 dihedrals
  reading impropers ...
  314 impropers
  4 = max # of 1-2 neighbors
  10 = max # of 1-3 neighbors
  20 = max # of 1-4 neighbors
  22 = max # of special neighbors
  special bonds CPU = 0.00100899 secs
  read_data CPU = 0.0257459 secs
################################################################################

min_style cg
minimize 1e-05 1e-05 10000 100000
WARNING: Using 'neigh_modify every 1 delay 0 check yes' setting during minimization (../min.cpp:190)
PPPM initialization ...
WARNING: System is not charge neutral, net charge = -1.8e-05 (../kspace.cpp:313)
  using 12-bit tables for long-range coulomb (../kspace.cpp:332)
  G vector (1/distance) = 0.10052
  grid = 24 24 24
  stencil order = 5
  estimated absolute RMS force accuracy = 0.0264788
  estimated relative force accuracy = 7.974e-05
  using double precision KISS FFT
  3d grid and FFT values/proc = 3179 1152
Neighbor list info ...
  update every 1 steps, delay 0 steps, check yes
  max neighbors/atom: 2000, page size: 100000
  master list distance cutoff = 14
  ghost atom cutoff = 14
  binsize = 7, bins = 38 38 38
  1 neighbor lists, perpetual/occasional/extra = 1 0 0
  (1) pair lj/cut/coul/long, perpetual
      attributes: half, newton on
      pair build: half/bin/newton
      stencil: half/bin/3d/newton
      bin: standard
Per MPI rank memory allocation (min/avg/max) = 18.95 | 19.17 | 19.78 Mbytes
Step Temp E_pair E_mol TotEng Press 
       0    1634.7587    799.84476    1726.0457    7544.9827    12.343574 
      53    1634.7587    781.87259    1644.4673    7445.4321    12.295369 
Loop time of 0.510648 on 16 procs for 53 steps with 1031 atoms

94.3% CPU use with 16 MPI tasks x no OpenMP threads

Minimization stats:
  Stopping criterion = linesearch alpha is zero
  Energy initial, next-to-last, final = 
         2525.89041448      2426.33987753      2426.33987753
  Force two-norm initial, final = 81.5176 47.1658
  Force max component initial, final = 9.84786 5.90059
  Final line search alpha, max atom move = 4.70386e-12 2.77556e-11
  Iterations, force evaluations = 53 163

MPI task timing breakdown:
Section |  min time  |  avg time  |  max time  |%varavg| %total
---------------------------------------------------------------
Pair    | 1.5736e-05 | 0.041418   | 0.24683    |  34.8 |  8.11
Bond    | 4.5776e-05 | 0.0099264  | 0.057833   |  16.4 |  1.94
Kspace  | 0.19374    | 0.4484     | 0.50071    |  13.1 | 87.81
Neigh   | 0.0030742  | 0.0031788  | 0.0032511  |   0.1 |  0.62
Comm    | 0.00022292 | 0.0024426  | 0.0053725  |   4.5 |  0.48
Output  | 0          | 0          | 0          |   0.0 |  0.00
Modify  | 0          | 0          | 0          |   0.0 |  0.00
Other   |            | 0.005286   |            |       |  1.04

Nlocal:    64.4375 ave 387 max 0 min
Histogram: 10 2 1 0 1 0 1 0 0 1
Nghost:    154.75 ave 471 max 0 min
Histogram: 8 0 0 1 0 3 1 2 0 1
Neighs:    3193.88 ave 20421 max 0 min
Histogram: 11 1 1 1 0 0 1 0 0 1

Total # of neighbors = 51102
Ave neighs/atom = 49.5655
Ave special neighs/atom = 11.1445
Neighbor list builds = 2
Dangerous builds = 0
timestep        1
fix             pysimm_md all nvt temp 300 300 100
run             5000
PPPM initialization ...
  using 12-bit tables for long-range coulomb (../kspace.cpp:332)
  G vector (1/distance) = 0.10052
  grid = 24 24 24
  stencil order = 5
  estimated absolute RMS force accuracy = 0.0264788
  estimated relative force accuracy = 7.974e-05
  using double precision KISS FFT
  3d grid and FFT values/proc = 3179 1152
Per MPI rank memory allocation (min/avg/max) = 17.82 | 18.04 | 18.65 Mbytes
Step Temp E_pair E_mol TotEng Press 
      53    1634.7587    781.87259    1644.4673    7445.4321    12.295369 
    5053    304.07282    821.10586    2109.5912    3864.2719  -0.43707202 
Loop time of 6.45983 on 16 procs for 5000 steps with 1031 atoms

Performance: 66.875 ns/day, 0.359 hours/ns, 774.015 timesteps/s
93.2% CPU use with 16 MPI tasks x no OpenMP threads

MPI task timing breakdown:
Section |  min time  |  avg time  |  max time  |%varavg| %total
---------------------------------------------------------------
Pair    | 0.00047374 | 0.4604     | 2.3305     | 110.5 |  7.13
Bond    | 0.00086188 | 0.14105    | 0.71754    |  58.9 |  2.18
Kspace  | 3.1058     | 5.0727     | 5.5825     |  35.3 | 78.53
Neigh   | 0.11611    | 0.12006    | 0.1226     |   0.6 |  1.86
Comm    | 0.0071046  | 0.23763    | 0.68818    |  54.8 |  3.68
Output  | 2.3127e-05 | 2.3901e-05 | 2.7895e-05 |   0.0 |  0.00
Modify  | 0.031996   | 0.40551    | 0.7347     |  51.5 |  6.28
Other   |            | 0.02247    |            |       |  0.35

Nlocal:    64.4375 ave 345 max 0 min
Histogram: 10 1 1 1 1 0 0 1 0 1
Nghost:    179.188 ave 476 max 0 min
Histogram: 8 0 0 0 1 0 1 3 2 1
Neighs:    3537.5 ave 18609 max 0 min
Histogram: 10 2 0 1 0 0 1 1 0 1

Total # of neighbors = 56600
Ave neighs/atom = 54.8982
Ave special neighs/atom = 11.1445
Neighbor list builds = 158
Dangerous builds = 0
unfix pysimm_md
write_dump all custom pysimm.dump.tmp id q x y z vx vy vz
quit


################################################################################
##################################    Init    ##################################
################################################################################
units           real
atom_style      full
pair_style      lj/cut/coul/long 12.0  12.0
kspace_style    pppm 1e-4
bond_style      harmonic
angle_style     harmonic
dihedral_style  fourier
improper_style  cvff
special_bonds   amber
pair_modify     mix arithmetic
read_data       temp.lmps
  orthogonal box = (-132.517 -132.517 -132.517) to (132.517 132.517 132.517)
  2 by 2 by 4 MPI processor grid
  reading atoms ...
  1081 atoms
  reading velocities ...
  1081 velocities
  scanning bonds ...
  3 = max bonds/atom
  scanning angles ...
  6 = max angles/atom
  scanning dihedrals ...
  24 = max dihedrals/atom
  scanning impropers ...
  2 = max impropers/atom
  reading bonds ...
  1180 bonds
  reading angles ...
  2077 angles
  reading dihedrals ...
  3152 dihedrals
  reading impropers ...
  331 impropers
  4 = max # of 1-2 neighbors
  10 = max # of 1-3 neighbors
  20 = max # of 1-4 neighbors
  22 = max # of special neighbors
  special bonds CPU = 0.00111413 secs
  read_data CPU = 0.026629 secs
################################################################################

min_style cg
minimize 1e-05 1e-05 10000 100000
WARNING: Using 'neigh_modify every 1 delay 0 check yes' setting during minimization (../min.cpp:190)
PPPM initialization ...
WARNING: System is not charge neutral, net charge = -1.8e-05 (../kspace.cpp:313)
  using 12-bit tables for long-range coulomb (../kspace.cpp:332)
  G vector (1/distance) = 0.0992985
  grid = 24 24 24
  stencil order = 5
  estimated absolute RMS force accuracy = 0.027662
  estimated relative force accuracy = 8.33032e-05
  using double precision KISS FFT
  3d grid and FFT values/proc = 3179 1152
Neighbor list info ...
  update every 1 steps, delay 0 steps, check yes
  max neighbors/atom: 2000, page size: 100000
  master list distance cutoff = 14
  ghost atom cutoff = 14
  binsize = 7, bins = 38 38 38
  1 neighbor lists, perpetual/occasional/extra = 1 0 0
  (1) pair lj/cut/coul/long, perpetual
      attributes: half, newton on
      pair build: half/bin/newton
      stencil: half/bin/3d/newton
      bin: standard
Per MPI rank memory allocation (min/avg/max) = 18.95 | 19.16 | 19.8 Mbytes
Step Temp E_pair E_mol TotEng Press 
       0    1775.0995    847.40258    1861.3033    8423.2392    12.286162 
      73    1775.0995    797.80703    1765.2893    8277.6296    12.561737 
Loop time of 0.759014 on 16 procs for 73 steps with 1081 atoms

93.3% CPU use with 16 MPI tasks x no OpenMP threads

Minimization stats:
  Stopping criterion = linesearch alpha is zero
  Energy initial, next-to-last, final = 
         2708.70585389       2563.0963087       2563.0963087
  Force two-norm initial, final = 80.4814 44.1441
  Force max component initial, final = 8.16549 4.94914
  Final line search alpha, max atom move = 3.96867e-12 1.96415e-11
  Iterations, force evaluations = 73 205

MPI task timing breakdown:
Section |  min time  |  avg time  |  max time  |%varavg| %total
---------------------------------------------------------------
Pair    | 2.8372e-05 | 0.05729    | 0.46868    |  48.2 |  7.55
Bond    | 6.2227e-05 | 0.011178   | 0.065425   |  17.4 |  1.47
Kspace  | 0.20977    | 0.67661    | 0.74625    |  16.2 | 89.14
Neigh   | 0.0050781  | 0.0051847  | 0.0052409  |   0.1 |  0.68
Comm    | 0.00023866 | 0.0028466  | 0.0060215  |   4.8 |  0.38
Output  | 0          | 0          | 0          |   0.0 |  0.00
Modify  | 0          | 0          | 0          |   0.0 |  0.00
Other   |            | 0.005908   |            |       |  0.78

Nlocal:    67.5625 ave 379 max 0 min
Histogram: 10 0 3 1 0 0 0 1 0 1
Nghost:    159 ave 459 max 0 min
Histogram: 8 0 0 1 1 1 1 1 0 3
Neighs:    4307 ave 34266 max 0 min
Histogram: 11 2 0 2 0 0 0 0 0 1

Total # of neighbors = 68912
Ave neighs/atom = 63.7484
Ave special neighs/atom = 11.1545
Neighbor list builds = 2
Dangerous builds = 0
timestep        1
fix             pysimm_md all nvt temp 300 300 100
run             5000
PPPM initialization ...
  using 12-bit tables for long-range coulomb (../kspace.cpp:332)
  G vector (1/distance) = 0.0992985
  grid = 24 24 24
  stencil order = 5
  estimated absolute RMS force accuracy = 0.027662
  estimated relative force accuracy = 8.33032e-05
  using double precision KISS FFT
  3d grid and FFT values/proc = 3179 1152
Per MPI rank memory allocation (min/avg/max) = 17.82 | 18.04 | 18.67 Mbytes
Step Temp E_pair E_mol TotEng Press 
      73    1775.0995    797.80703    1765.2893    8277.6296    12.561737 
    5073    307.86827    815.71698    2239.8193    4046.6488  -0.76943099 
Loop time of 7.36782 on 16 procs for 5000 steps with 1081 atoms

Performance: 58.633 ns/day, 0.409 hours/ns, 678.627 timesteps/s
93.2% CPU use with 16 MPI tasks x no OpenMP threads

MPI task timing breakdown:
Section |  min time  |  avg time  |  max time  |%varavg| %total
---------------------------------------------------------------
Pair    | 0.00046349 | 0.52156    | 3.3448     | 138.5 |  7.08
Bond    | 0.00082493 | 0.1436     | 0.72129    |  67.1 |  1.95
Kspace  | 2.9547     | 5.8685     | 6.4408     |  43.1 | 79.65
Neigh   | 0.14937    | 0.15199    | 0.15389    |   0.3 |  2.06
Comm    | 0.0077262  | 0.25007    | 0.70639    |  58.8 |  3.39
Output  | 2.2173e-05 | 2.2948e-05 | 2.7895e-05 |   0.0 |  0.00
Modify  | 0.039359   | 0.40835    | 0.75436    |  53.4 |  5.54
Other   |            | 0.02373    |            |       |  0.32

Nlocal:    67.5625 ave 365 max 0 min
Histogram: 12 0 1 0 0 0 0 1 0 2
Nghost:    147.938 ave 476 max 0 min
Histogram: 8 0 0 1 2 1 1 2 0 1
Neighs:    3969.88 ave 24302 max 0 min
Histogram: 12 1 0 0 0 0 1 1 0 1

Total # of neighbors = 63518
Ave neighs/atom = 58.7586
Ave special neighs/atom = 11.1545
Neighbor list builds = 142
Dangerous builds = 0
unfix pysimm_md
write_dump all custom pysimm.dump.tmp id q x y z vx vy vz
quit


################################################################################
##################################    Init    ##################################
################################################################################
units           real
atom_style      full
pair_style      lj/cut/coul/long 12.0  12.0
kspace_style    pppm 1e-4
bond_style      harmonic
angle_style     harmonic
dihedral_style  fourier
improper_style  cvff
special_bonds   amber
pair_modify     mix arithmetic
read_data       temp.lmps
  orthogonal box = (-135.651 -135.651 -135.651) to (135.651 135.651 135.651)
  2 by 2 by 4 MPI processor grid
  reading atoms ...
  1113 atoms
  reading velocities ...
  1113 velocities
  scanning bonds ...
  3 = max bonds/atom
  scanning angles ...
  6 = max angles/atom
  scanning dihedrals ...
  24 = max dihedrals/atom
  scanning impropers ...
  2 = max impropers/atom
  reading bonds ...
  1217 bonds
  reading angles ...
  2138 angles
  reading dihedrals ...
  3278 dihedrals
  reading impropers ...
  350 impropers
  4 = max # of 1-2 neighbors
  10 = max # of 1-3 neighbors
  20 = max # of 1-4 neighbors
  22 = max # of special neighbors
  special bonds CPU = 0.000971079 secs
  read_data CPU = 0.027246 secs
################################################################################

min_style cg
minimize 1e-05 1e-05 10000 100000
WARNING: Using 'neigh_modify every 1 delay 0 check yes' setting during minimization (../min.cpp:190)
PPPM initialization ...
WARNING: System is not charge neutral, net charge = -1.4e-05 (../kspace.cpp:313)
  using 12-bit tables for long-range coulomb (../kspace.cpp:332)
  G vector (1/distance) = 0.0976403
  grid = 24 24 24
  stencil order = 5
  estimated absolute RMS force accuracy = 0.0299083
  estimated relative force accuracy = 9.00681e-05
  using double precision KISS FFT
  3d grid and FFT values/proc = 3179 1152
Neighbor list info ...
  update every 1 steps, delay 0 steps, check yes
  max neighbors/atom: 2000, page size: 100000
  master list distance cutoff = 14
  ghost atom cutoff = 14
  binsize = 7, bins = 39 39 39
  1 neighbor lists, perpetual/occasional/extra = 1 0 0
  (1) pair lj/cut/coul/long, perpetual
      attributes: half, newton on
      pair build: half/bin/newton
      stencil: half/bin/3d/newton
      bin: standard
Per MPI rank memory allocation (min/avg/max) = 18.95 | 19.23 | 19.79 Mbytes
Step Temp E_pair E_mol TotEng Press 
       0    1554.6783     865.0165    2104.8365    8123.0842     10.64402 
      53    1554.6783    840.86177    2029.4789    8023.5718    10.679671 
Loop time of 0.559894 on 16 procs for 53 steps with 1113 atoms

93.3% CPU use with 16 MPI tasks x no OpenMP threads

Minimization stats:
  Stopping criterion = linesearch alpha is zero
  Energy initial, next-to-last, final = 
         2969.85302402      2870.34069124      2870.34069124
  Force two-norm initial, final = 89.5077 52.6497
  Force max component initial, final = 10.3673 6.64917
  Final line search alpha, max atom move = 3.07572e-12 2.0451e-11
  Iterations, force evaluations = 53 223

MPI task timing breakdown:
Section |  min time  |  avg time  |  max time  |%varavg| %total
---------------------------------------------------------------
Pair    | 2.6226e-05 | 0.064163   | 0.26666    |  38.3 | 11.46
Bond    | 8.2731e-05 | 0.014004   | 0.0602     |  17.6 |  2.50
Kspace  | 0.22016    | 0.47041    | 0.55034    |  17.3 | 84.02
Neigh   | 0.0013931  | 0.0014591  | 0.0015101  |   0.1 |  0.26
Comm    | 0.00018072 | 0.0036317  | 0.0086141  |   5.7 |  0.65
Output  | 0          | 0          | 0          |   0.0 |  0.00
Modify  | 0          | 0          | 0          |   0.0 |  0.00
Other   |            | 0.006228   |            |       |  1.11

Nlocal:    69.5625 ave 296 max 0 min
Histogram: 10 1 0 1 0 0 1 2 0 1
Nghost:    196.562 ave 608 max 0 min
Histogram: 8 0 0 0 3 1 2 0 1 1
Neighs:    3971.31 ave 16577 max 0 min
Histogram: 11 0 0 0 1 0 1 0 2 1

Total # of neighbors = 63541
Ave neighs/atom = 57.0898
Ave special neighs/atom = 11.2022
Neighbor list builds = 1
Dangerous builds = 0
timestep        1
fix             pysimm_md all nvt temp 300 300 100
run             5000
PPPM initialization ...
  using 12-bit tables for long-range coulomb (../kspace.cpp:332)
  G vector (1/distance) = 0.0976403
  grid = 24 24 24
  stencil order = 5
  estimated absolute RMS force accuracy = 0.0299083
  estimated relative force accuracy = 9.00681e-05
  using double precision KISS FFT
  3d grid and FFT values/proc = 3179 1152
Per MPI rank memory allocation (min/avg/max) = 17.83 | 18.11 | 18.67 Mbytes
Step Temp E_pair E_mol TotEng Press 
      53    1554.6783    840.86177    2029.4789    8023.5718    10.679671 
    5053    291.09861    872.24354    2616.6203     4453.757    1.6197622 
Loop time of 5.85522 on 16 procs for 5000 steps with 1113 atoms

Performance: 73.780 ns/day, 0.325 hours/ns, 853.939 timesteps/s
93.6% CPU use with 16 MPI tasks x no OpenMP threads

MPI task timing breakdown:
Section |  min time  |  avg time  |  max time  |%varavg| %total
---------------------------------------------------------------
Pair    | 0.00047064 | 0.54443    | 2.1289     | 113.6 |  9.30
Bond    | 0.00089812 | 0.15059    | 0.65976    |  59.0 |  2.57
Kspace  | 2.7831     | 4.4554     | 5.0494     |  42.0 | 76.09
Neigh   | 0.11625    | 0.12008    | 0.1234     |   0.7 |  2.05
Comm    | 0.0087826  | 0.21311    | 0.67486    |  54.6 |  3.64
Output  | 2.3842e-05 | 2.5451e-05 | 3.2902e-05 |   0.0 |  0.00
Modify  | 0.042597   | 0.3527     | 0.66064    |  51.2 |  6.02
Other   |            | 0.01886    |            |       |  0.32

Nlocal:    69.5625 ave 348 max 0 min
Histogram: 11 1 0 0 1 1 0 0 0 2
Nghost:    189.75 ave 605 max 0 min
Histogram: 8 0 0 1 1 3 0 1 1 1
Neighs:    4408.44 ave 21857 max 0 min
Histogram: 12 0 0 0 0 0 1 2 0 1

Total # of neighbors = 70535
Ave neighs/atom = 63.3738
Ave special neighs/atom = 11.2022
Neighbor list builds = 172
Dangerous builds = 0
unfix pysimm_md
write_dump all custom pysimm.dump.tmp id q x y z vx vy vz
quit


################################################################################
##################################    Init    ##################################
################################################################################
units           real
atom_style      full
pair_style      lj/cut/coul/long 12.0  12.0
kspace_style    pppm 1e-4
bond_style      harmonic
angle_style     harmonic
dihedral_style  fourier
improper_style  cvff
special_bonds   amber
pair_modify     mix arithmetic
read_data       temp.lmps
  orthogonal box = (-136.794 -136.794 -136.794) to (136.794 136.794 136.794)
  2 by 2 by 4 MPI processor grid
  reading atoms ...
  1208 atoms
  reading velocities ...
  1208 velocities
  scanning bonds ...
  3 = max bonds/atom
  scanning angles ...
  6 = max angles/atom
  scanning dihedrals ...
  24 = max dihedrals/atom
  scanning impropers ...
  2 = max impropers/atom
  reading bonds ...
  1317 bonds
  reading angles ...
  2323 angles
  reading dihedrals ...
  3498 dihedrals
  reading impropers ...
  362 impropers
  4 = max # of 1-2 neighbors
  10 = max # of 1-3 neighbors
  20 = max # of 1-4 neighbors
  22 = max # of special neighbors
  special bonds CPU = 0.000998974 secs
  read_data CPU = 0.029984 secs
################################################################################

min_style cg
minimize 1e-05 1e-05 10000 100000
WARNING: Using 'neigh_modify every 1 delay 0 check yes' setting during minimization (../min.cpp:190)
PPPM initialization ...
WARNING: System is not charge neutral, net charge = -2.4e-05 (../kspace.cpp:313)
  using 12-bit tables for long-range coulomb (../kspace.cpp:332)
  G vector (1/distance) = 0.0970498
  grid = 24 24 24
  stencil order = 5
  estimated absolute RMS force accuracy = 0.0284704
  estimated relative force accuracy = 8.57378e-05
  using double precision KISS FFT
  3d grid and FFT values/proc = 3179 1152
Neighbor list info ...
  update every 1 steps, delay 0 steps, check yes
  max neighbors/atom: 2000, page size: 100000
  master list distance cutoff = 14
  ghost atom cutoff = 14
  binsize = 7, bins = 40 40 40
  1 neighbor lists, perpetual/occasional/extra = 1 0 0
  (1) pair lj/cut/coul/long, perpetual
      attributes: half, newton on
      pair build: half/bin/newton
      stencil: half/bin/3d/newton
      bin: standard
Per MPI rank memory allocation (min/avg/max) = 18.95 | 19.3 | 19.82 Mbytes
Step Temp E_pair E_mol TotEng Press 
       0    753.50415     951.8527    1940.4358    5603.2742    5.9100217 
      72    753.50415    914.22014    1803.7763    5428.9821    6.2575898 
Loop time of 0.603143 on 16 procs for 72 steps with 1208 atoms

95.5% CPU use with 16 MPI tasks x no OpenMP threads

Minimization stats:
  Stopping criterion = linesearch alpha is zero
  Energy initial, next-to-last, final = 
         2892.28848002      2717.99639662      2717.99639662
  Force two-norm initial, final = 88.0514 43.9183
  Force max component initial, final = 11.1819 4.07365
  Final line search alpha, max atom move = 5.41724e-12 2.20679e-11
  Iterations, force evaluations = 72 201

MPI task timing breakdown:
Section |  min time  |  avg time  |  max time  |%varavg| %total
---------------------------------------------------------------
Pair    | 3.7193e-05 | 0.070816   | 0.33135    |  36.7 | 11.74
Bond    | 0.00010109 | 0.013675   | 0.050282   |  14.8 |  2.27
Kspace  | 0.20456    | 0.5033     | 0.58945    |  16.3 | 83.45
Neigh   | 0.0048532  | 0.0050229  | 0.0051842  |   0.2 |  0.83
Comm    | 0.00032759 | 0.0039015  | 0.0083616  |   5.7 |  0.65
Output  | 0          | 0          | 0          |   0.0 |  0.00
Modify  | 0          | 0          | 0          |   0.0 |  0.00
Other   |            | 0.006423   |            |       |  1.06

Nlocal:    75.5 ave 253 max 0 min
Histogram: 9 0 1 0 0 2 1 0 2 1
Nghost:    239.75 ave 616 max 0 min
Histogram: 8 0 0 0 0 1 2 1 3 1
Neighs:    4920.31 ave 20672 max 0 min
Histogram: 9 1 1 1 0 1 1 0 1 1

Total # of neighbors = 78725
Ave neighs/atom = 65.1697
Ave special neighs/atom = 11.1258
Neighbor list builds = 3
Dangerous builds = 0
timestep        1
fix             pysimm_md all nvt temp 300 300 100
run             5000
PPPM initialization ...
  using 12-bit tables for long-range coulomb (../kspace.cpp:332)
  G vector (1/distance) = 0.0970498
  grid = 24 24 24
  stencil order = 5
  estimated absolute RMS force accuracy = 0.0284704
  estimated relative force accuracy = 8.57378e-05
  using double precision KISS FFT
  3d grid and FFT values/proc = 3179 1152
Per MPI rank memory allocation (min/avg/max) = 17.83 | 18.17 | 18.69 Mbytes
Step Temp E_pair E_mol TotEng Press 
      72    753.50415    914.22014    1803.7763    5428.9821    6.2575898 
    5072    308.72373     922.1856    2448.4452    4481.3687    1.6090007 
Loop time of 6.21904 on 16 procs for 5000 steps with 1208 atoms

Performance: 69.464 ns/day, 0.346 hours/ns, 803.983 timesteps/s
95.4% CPU use with 16 MPI tasks x no OpenMP threads

MPI task timing breakdown:
Section |  min time  |  avg time  |  max time  |%varavg| %total
---------------------------------------------------------------
Pair    | 0.00047898 | 0.62444    | 2.6121     | 101.8 | 10.04
Bond    | 0.00096059 | 0.16328    | 0.58806    |  48.2 |  2.63
Kspace  | 2.6785     | 4.7312     | 5.415      |  39.1 | 76.08
Neigh   | 0.12599    | 0.13113    | 0.13617    |   0.9 |  2.11
Comm    | 0.0064707  | 0.19979    | 0.58323    |  47.2 |  3.21
Output  | 2.3127e-05 | 2.4393e-05 | 3.2902e-05 |   0.0 |  0.00
Modify  | 0.038715   | 0.34846    | 0.65662    |  50.9 |  5.60
Other   |            | 0.0207     |            |       |  0.33

Nlocal:    75.5 ave 377 max 0 min
Histogram: 9 1 2 2 0 0 0 1 0 1
Nghost:    220.25 ave 609 max 0 min
Histogram: 8 0 0 0 0 3 1 1 2 1
Neighs:    5000.31 ave 27488 max 0 min
Histogram: 9 3 2 0 0 0 0 0 1 1

Total # of neighbors = 80005
Ave neighs/atom = 66.2293
Ave special neighs/atom = 11.1258
Neighbor list builds = 150
Dangerous builds = 0
unfix pysimm_md
write_dump all custom pysimm.dump.tmp id q x y z vx vy vz
quit


################################################################################
##################################    Init    ##################################
################################################################################
units           real
atom_style      full
pair_style      lj/cut/coul/long 12.0  12.0
kspace_style    pppm 1e-4
bond_style      harmonic
angle_style     harmonic
dihedral_style  fourier
improper_style  cvff
special_bonds   amber
pair_modify     mix arithmetic
read_data       temp.lmps
  orthogonal box = (-139.828 -139.828 -139.828) to (139.828 139.828 139.828)
  2 by 2 by 4 MPI processor grid
  reading atoms ...
  1276 atoms
  reading velocities ...
  1276 velocities
  scanning bonds ...
  3 = max bonds/atom
  scanning angles ...
  6 = max angles/atom
  scanning dihedrals ...
  24 = max dihedrals/atom
  scanning impropers ...
  2 = max impropers/atom
  reading bonds ...
  1390 bonds
  reading angles ...
  2456 angles
  reading dihedrals ...
  3680 dihedrals
  reading impropers ...
  377 impropers
  4 = max # of 1-2 neighbors
  10 = max # of 1-3 neighbors
  20 = max # of 1-4 neighbors
  22 = max # of special neighbors
  special bonds CPU = 0.00190592 secs
  read_data CPU = 0.0327458 secs
################################################################################

min_style cg
minimize 1e-05 1e-05 10000 100000
WARNING: Using 'neigh_modify every 1 delay 0 check yes' setting during minimization (../min.cpp:190)
PPPM initialization ...
[...]
  G vector (1/distance) = 0.0949573
  grid = 30 30 30
  stencil order = 5
  estimated absolute RMS force accuracy = 0.031269
  estimated relative force accuracy = 9.41657e-05
  using double precision KISS FFT
  3d grid and FFT values/proc = 5200 1800
Per MPI rank memory allocation (min/avg/max) = 18.04 | 18.31 | 18.88 Mbytes
Step Temp E_pair E_mol TotEng Press 
      17    724.14457    1925.6609    4418.2543    11822.283    4.8091242 
    5017    300.04555    1998.5015    5504.4993    9772.9342 -0.00098402987 
Loop time of 11.0637 on 16 procs for 5000 steps with 2539 atoms

Performance: 39.046 ns/day, 0.615 hours/ns, 451.927 timesteps/s
93.9% CPU use with 16 MPI tasks x no OpenMP threads

MPI task timing breakdown:
Section |  min time  |  avg time  |  max time  |%varavg| %total
---------------------------------------------------------------
Pair    | 0.00049949 | 1.2056     | 4.566      | 127.6 | 10.90
Bond    | 0.00092554 | 0.33053    | 1.1779     |  60.6 |  2.99
Kspace  | 4.863      | 8.3308     | 9.5996     |  49.9 | 75.30
Neigh   | 0.28181    | 0.28612    | 0.28879    |   0.3 |  2.59
Comm    | 0.011735   | 0.32832    | 0.8684     |  53.2 |  2.97
Output  | 2.5034e-05 | 2.5883e-05 | 3.2902e-05 |   0.0 |  0.00
Modify  | 0.03654    | 0.55558    | 1.1608     |  57.3 |  5.02
Other   |            | 0.02676    |            |       |  0.24

Nlocal:    158.688 ave 620 max 0 min
Histogram: 6 2 2 3 0 1 1 0 0 1
Nghost:    147.938 ave 447 max 0 min
Histogram: 6 0 2 1 3 1 0 2 0 1
Neighs:    9922.69 ave 42794 max 0 min
Histogram: 6 2 3 3 0 0 0 1 0 1

Total # of neighbors = 158763
Ave neighs/atom = 62.5297
Ave special neighs/atom = 11.1768
Neighbor list builds = 210
Dangerous builds = 0
unfix pysimm_md
write_dump all custom pysimm.dump.tmp id q x y z vx vy vz
quit


################################################################################
##################################    Init    ##################################
################################################################################
units           real
atom_style      full
pair_style      lj/cut/coul/long 12.0  12.0
kspace_style    pppm 1e-4
bond_style      harmonic
angle_style     harmonic
dihedral_style  fourier
improper_style  cvff
special_bonds   amber
pair_modify     mix arithmetic
read_data       temp.lmps
  orthogonal box = (-178.689 -178.689 -178.689) to (178.689 178.689 178.689)
  2 by 2 by 4 MPI processor grid
  reading atoms ...
  2652 atoms
  reading velocities ...
  2652 velocities
  scanning bonds ...
  3 = max bonds/atom
  scanning angles ...
  6 = max angles/atom
  scanning dihedrals ...
  24 = max dihedrals/atom
  scanning impropers ...
  2 = max impropers/atom
  reading bonds ...
  2891 bonds
  reading angles ...
  5108 angles
  reading dihedrals ...
  7676 dihedrals
  reading impropers ...
  788 impropers
  4 = max # of 1-2 neighbors
  10 = max # of 1-3 neighbors
  20 = max # of 1-4 neighbors
  22 = max # of special neighbors
  special bonds CPU = 0.00188589 secs
  read_data CPU = 0.0516131 secs
################################################################################

min_style cg
minimize 1e-05 1e-05 10000 100000
WARNING: Using 'neigh_modify every 1 delay 0 check yes' setting during minimization (../min.cpp:190)
PPPM initialization ...
WARNING: System is not charge neutral, net charge = -5.6e-05 (../kspace.cpp:313)
  using 12-bit tables for long-range coulomb (../kspace.cpp:332)
  G vector (1/distance) = 0.0939775
  grid = 30 30 30
  stencil order = 5
  estimated absolute RMS force accuracy = 0.0302267
  estimated relative force accuracy = 9.10267e-05
  using double precision KISS FFT
  3d grid and FFT values/proc = 5200 1800
Neighbor list info ...
  update every 1 steps, delay 0 steps, check yes
  max neighbors/atom: 2000, page size: 100000
  master list distance cutoff = 14
  ghost atom cutoff = 14
  binsize = 7, bins = 52 52 52
  1 neighbor lists, perpetual/occasional/extra = 1 0 0
  (1) pair lj/cut/coul/long, perpetual
      attributes: half, newton on
      pair build: half/bin/newton
      stencil: half/bin/3d/newton
      bin: standard
Per MPI rank memory allocation (min/avg/max) = 19.17 | 19.49 | 20.46 Mbytes
Step Temp E_pair E_mol TotEng Press 
       0    761.10922      2723.66    6320.7908    15058.833     5.378545 
      56    761.10922     2657.887     6085.006    14757.275    5.8293265 
Loop time of 1.19673 on 16 procs for 56 steps with 2652 atoms

93.7% CPU use with 16 MPI tasks x no OpenMP threads

Minimization stats:
  Stopping criterion = linesearch alpha is zero
  Energy initial, next-to-last, final = 
         9044.45081542      8742.89297128      8742.89297128
  Force two-norm initial, final = 269.434 79.9649
  Force max component initial, final = 116.094 51.4018
  Final line search alpha, max atom move = 2.36806e-12 1.21723e-10
  Iterations, force evaluations = 56 173

MPI task timing breakdown:
Section |  min time  |  avg time  |  max time  |%varavg| %total
---------------------------------------------------------------
Pair    | 2.9325e-05 | 0.15596    | 0.88228    |  56.5 | 13.03
Bond    | 4.9591e-05 | 0.018148   | 0.066245   |  15.6 |  1.52
Kspace  | 0.23132    | 1.0074     | 1.1833     |  24.3 | 84.18
Neigh   | 0.004534   | 0.0046054  | 0.0046761  |   0.1 |  0.38
Comm    | 0.00016999 | 0.0040125  | 0.0089519  |   6.1 |  0.34
Output  | 0          | 0          | 0          |   0.0 |  0.00
Modify  | 0          | 0          | 0          |   0.0 |  0.00
Other   |            | 0.006623   |            |       |  0.55

Nlocal:    165.75 ave 622 max 0 min
Histogram: 8 0 1 3 0 1 1 1 0 1
Nghost:    515.562 ave 1124 max 0 min
Histogram: 8 0 0 0 0 0 0 1 1 6
Neighs:    18629.6 ave 109282 max 0 min
Histogram: 8 2 3 2 0 0 0 0 0 1

Total # of neighbors = 298074
Ave neighs/atom = 112.396
Ave special neighs/atom = 11.1335
Neighbor list builds = 1
Dangerous builds = 0
timestep        1
fix             pysimm_md all nvt temp 300 300 100
run             5000
PPPM initialization ...
  using 12-bit tables for long-range coulomb (../kspace.cpp:332)
  G vector (1/distance) = 0.0939775
  grid = 30 30 30
  stencil order = 5
  estimated absolute RMS force accuracy = 0.0302267
  estimated relative force accuracy = 9.10267e-05
  using double precision KISS FFT
  3d grid and FFT values/proc = 5200 1800
Per MPI rank memory allocation (min/avg/max) = 18.04 | 18.37 | 19.34 Mbytes
Step Temp E_pair E_mol TotEng Press 
      56    761.10922     2657.887     6085.006    14757.275    5.8293265 
    5056    307.33939    2665.5715    7516.7707    12610.977   0.41252157 
Loop time of 21.1404 on 16 procs for 5000 steps with 2652 atoms

Performance: 20.435 ns/day, 1.174 hours/ns, 236.515 timesteps/s
94.4% CPU use with 16 MPI tasks x no OpenMP threads

MPI task timing breakdown:
Section |  min time  |  avg time  |  max time  |%varavg| %total
---------------------------------------------------------------
Pair    | 0.00050378 | 2.2526     | 13.459     | 227.3 | 10.66
Bond    | 0.00088215 | 0.34237    | 1.4245     |  73.1 |  1.62
Kspace  | 5.1218     | 16.514     | 18.868     |  86.0 | 78.11
Neigh   | 0.84907    | 0.85973    | 0.86863    |   0.7 |  4.07
Comm    | 0.014874   | 0.42583    | 1.176      |  71.6 |  2.01
Output  | 2.5988e-05 | 2.8163e-05 | 3.8862e-05 |   0.0 |  0.00
Modify  | 0.038035   | 0.7135     | 1.3745     |  77.1 |  3.38
Other   |            | 0.03257    |            |       |  0.15

Nlocal:    165.75 ave 757 max 0 min
Histogram: 8 1 3 0 0 2 1 0 0 1
Nghost:    535.625 ave 1365 max 0 min
Histogram: 8 0 0 0 0 0 2 3 1 2
Neighs:    21584.2 ave 138341 max 0 min
Histogram: 9 3 0 3 0 0 0 0 0 1

Total # of neighbors = 345347
Ave neighs/atom = 130.221
Ave special neighs/atom = 11.1335
Neighbor list builds = 213
Dangerous builds = 0
unfix pysimm_md
write_dump all custom pysimm.dump.tmp id q x y z vx vy vz
quit


################################################################################
##################################    Init    ##################################
################################################################################
units           real
atom_style      full
pair_style      lj/cut/coul/long 12.0  12.0
kspace_style    pppm 1e-4
bond_style      harmonic
angle_style     harmonic
dihedral_style  fourier
improper_style  cvff
special_bonds   amber
pair_modify     mix arithmetic
read_data       temp.lmps
  orthogonal box = (-179.922 -179.922 -179.922) to (179.922 179.922 179.922)
  2 by 2 by 4 MPI processor grid
  reading atoms ...
  2639 atoms
  reading velocities ...
  2639 velocities
  scanning bonds ...
  3 = max bonds/atom
  scanning angles ...
  6 = max angles/atom
  scanning dihedrals ...
  24 = max dihedrals/atom
  scanning impropers ...
  2 = max impropers/atom
  reading bonds ...
  2883 bonds
  reading angles ...
  5078 angles
  reading dihedrals ...
  7730 dihedrals
  reading impropers ...
  812 impropers
  4 = max # of 1-2 neighbors
  10 = max # of 1-3 neighbors
  20 = max # of 1-4 neighbors
  22 = max # of special neighbors
  special bonds CPU = 0.00158095 secs
  read_data CPU = 0.0533221 secs
################################################################################

min_style cg
minimize 1e-05 1e-05 10000 100000
WARNING: Using 'neigh_modify every 1 delay 0 check yes' setting during minimization (../min.cpp:190)
PPPM initialization ...
WARNING: System is not charge neutral, net charge = -4.2e-05 (../kspace.cpp:313)
  using 12-bit tables for long-range coulomb (../kspace.cpp:332)
  G vector (1/distance) = 0.0935018
  grid = 30 30 30
  stencil order = 5
  estimated absolute RMS force accuracy = 0.0323957
  estimated relative force accuracy = 9.75585e-05
  using double precision KISS FFT
  3d grid and FFT values/proc = 5200 1800
Neighbor list info ...
  update every 1 steps, delay 0 steps, check yes
  max neighbors/atom: 2000, page size: 100000
  master list distance cutoff = 14
  ghost atom cutoff = 14
  binsize = 7, bins = 52 52 52
  1 neighbor lists, perpetual/occasional/extra = 1 0 0
  (1) pair lj/cut/coul/long, perpetual
      attributes: half, newton on
      pair build: half/bin/newton
      stencil: half/bin/3d/newton
      bin: standard
Per MPI rank memory allocation (min/avg/max) = 19.17 | 19.49 | 20.39 Mbytes
Step Temp E_pair E_mol TotEng Press 
       0    441.56497     1723.248     4647.962    9843.4018    3.2494722 
      30    441.56497    1709.9594    4507.4243    9689.5755    2.8785108 
Loop time of 1.18727 on 16 procs for 30 steps with 2639 atoms

91.5% CPU use with 16 MPI tasks x no OpenMP threads

Minimization stats:
  Stopping criterion = linesearch alpha is zero
  Energy initial, next-to-last, final = 
         6371.21000347      6217.38364399      6217.38364399
  Force two-norm initial, final = 122.004 89.2072
  Force max component initial, final = 18.5445 10.962
  Final line search alpha, max atom move = 9.04872e-13 9.91917e-12
  Iterations, force evaluations = 30 121

MPI task timing breakdown:
Section |  min time  |  avg time  |  max time  |%varavg| %total
---------------------------------------------------------------
Pair    | 1.7166e-05 | 0.10233    | 0.88169    |  67.4 |  8.62
Bond    | 3.0279e-05 | 0.013894   | 0.0791     |  18.2 |  1.17
Kspace  | 0.2127     | 1.0583     | 1.1753     |  23.0 | 89.14
Neigh   | 0.005672   | 0.0057227  | 0.0057549  |   0.0 |  0.48
Comm    | 0.00011683 | 0.0017162  | 0.0040963  |   3.9 |  0.14
Output  | 0          | 0          | 0          |   0.0 |  0.00
Modify  | 0          | 0          | 0          |   0.0 |  0.00
Other   |            | 0.005282   |            |       |  0.44

Nlocal:    164.938 ave 931 max 0 min
Histogram: 11 0 1 1 1 1 0 0 0 1
Nghost:    181.812 ave 640 max 0 min
Histogram: 8 0 0 0 4 0 3 0 0 1
Neighs:    15592.3 ave 139330 max 0 min
Histogram: 12 1 2 0 0 0 0 0 0 1

Total # of neighbors = 249477
Ave neighs/atom = 94.5347
Ave special neighs/atom = 11.1861
Neighbor list builds = 1
Dangerous builds = 0
timestep        1
fix             pysimm_md all nvt temp 300 300 100
run             5000
PPPM initialization ...
  using 12-bit tables for long-range coulomb (../kspace.cpp:332)
  G vector (1/distance) = 0.0935018
  grid = 30 30 30
  stencil order = 5
  estimated absolute RMS force accuracy = 0.0323957
  estimated relative force accuracy = 9.75585e-05
  using double precision KISS FFT
  3d grid and FFT values/proc = 5200 1800
Per MPI rank memory allocation (min/avg/max) = 18.04 | 18.37 | 19.27 Mbytes
Step Temp E_pair E_mol TotEng Press 
      30    441.56497    1709.9594    4507.4243    9689.5755    2.8785108 
    5030    295.64972    1846.3033    6002.3051    10173.414   0.40474967 
Loop time of 24.2378 on 16 procs for 5000 steps with 2639 atoms

Performance: 17.823 ns/day, 1.347 hours/ns, 206.290 timesteps/s
93.7% CPU use with 16 MPI tasks x no OpenMP threads

MPI task timing breakdown:
Section |  min time  |  avg time  |  max time  |%varavg| %total
---------------------------------------------------------------
Pair    | 0.00046444 | 1.7371     | 15.187     | 282.4 |  7.17
Bond    | 0.00093246 | 0.3372     | 1.8521     |  91.6 |  1.39
Kspace  | 5.8161     | 19.482     | 21.332     |  86.2 | 80.38
Neigh   | 1.1229     | 1.1307     | 1.1389     |   0.5 |  4.66
Comm    | 0.014046   | 0.53501    | 1.6827     |  81.5 |  2.21
Output  | 2.6941e-05 | 2.8342e-05 | 3.6955e-05 |   0.0 |  0.00
Modify  | 0.079222   | 0.98347    | 1.7586     |  77.9 |  4.06
Other   |            | 0.03225    |            |       |  0.13

Nlocal:    164.938 ave 835 max 0 min
Histogram: 11 0 0 1 1 1 0 1 0 1
Nghost:    145.812 ave 1046 max 0 min
Histogram: 8 5 2 0 0 0 0 0 0 1
Neighs:    15365.2 ave 128006 max 0 min
Histogram: 11 2 2 0 0 0 0 0 0 1

Total # of neighbors = 245843
Ave neighs/atom = 93.1576
Ave special neighs/atom = 11.1861
Neighbor list builds = 296
Dangerous builds = 11
unfix pysimm_md
write_dump all custom pysimm.dump.tmp id q x y z vx vy vz
quit


################################################################################
##################################    Init    ##################################
################################################################################
units           real
atom_style      full
pair_style      lj/cut/coul/long 12.0  12.0
kspace_style    pppm 1e-4
bond_style      harmonic
angle_style     harmonic
dihedral_style  fourier
improper_style  cvff
special_bonds   amber
pair_modify     mix arithmetic
read_data       temp.lmps
  orthogonal box = (-179.853 -179.853 -179.853) to (179.853 179.853 179.853)
  2 by 2 by 4 MPI processor grid
  reading atoms ...
  2707 atoms
  reading velocities ...
  2707 velocities
  scanning bonds ...
  3 = max bonds/atom
  scanning angles ...
  6 = max angles/atom
  scanning dihedrals ...
  24 = max dihedrals/atom
  scanning impropers ...
  2 = max impropers/atom
  reading bonds ...
  2956 bonds
  reading angles ...
  5209 angles
  reading dihedrals ...
  7908 dihedrals
  reading impropers ...
  827 impropers
  4 = max # of 1-2 neighbors
  10 = max # of 1-3 neighbors
  20 = max # of 1-4 neighbors
  22 = max # of special neighbors
  special bonds CPU = 0.00137186 secs
  read_data CPU = 0.0530009 secs
################################################################################

min_style cg
minimize 1e-05 1e-05 10000 100000
WARNING: Using 'neigh_modify every 1 delay 0 check yes' setting during minimization (../min.cpp:190)
PPPM initialization ...
WARNING: System is not charge neutral, net charge = -4.6e-05 (../kspace.cpp:313)
  using 12-bit tables for long-range coulomb (../kspace.cpp:332)
  G vector (1/distance) = 0.0935283
  grid = 30 30 30
  stencil order = 5
  estimated absolute RMS force accuracy = 0.0323508
  estimated relative force accuracy = 9.74235e-05
  using double precision KISS FFT
  3d grid and FFT values/proc = 5200 1800
Neighbor list info ...
  update every 1 steps, delay 0 steps, check yes
  max neighbors/atom: 2000, page size: 100000
  master list distance cutoff = 14
  ghost atom cutoff = 14
  binsize = 7, bins = 52 52 52
  1 neighbor lists, perpetual/occasional/extra = 1 0 0
  (1) pair lj/cut/coul/long, perpetual
      attributes: half, newton on
      pair build: half/bin/newton
      stencil: half/bin/3d/newton
      bin: standard
Per MPI rank memory allocation (min/avg/max) = 19.17 | 19.49 | 20.06 Mbytes
Step Temp E_pair E_mol TotEng Press 
       0    499.73092    2498.1781    6049.1463     12578.19    3.1511936 
      68    499.73092    2503.2592     5671.101    12205.226    3.8379059 
Loop time of 0.876837 on 16 procs for 68 steps with 2707 atoms

93.6% CPU use with 16 MPI tasks x no OpenMP threads

Minimization stats:
  Stopping criterion = linesearch alpha is zero
  Energy initial, next-to-last, final = 
         8547.32441057      8174.36029315      8174.36029315
  Force two-norm initial, final = 167.965 91.2488
  Force max component initial, final = 66.1705 21.2097
  Final line search alpha, max atom move = 1.03893e-12 2.20353e-11
  Iterations, force evaluations = 68 197

MPI task timing breakdown:
Section |  min time  |  avg time  |  max time  |%varavg| %total
---------------------------------------------------------------
Pair    | 2.8133e-05 | 0.15132    | 0.50866    |  52.0 | 17.26
Bond    | 6.0797e-05 | 0.022427   | 0.081969   |  19.3 |  2.56
Kspace  | 0.27692    | 0.68565    | 0.86142    |  28.1 | 78.20
Neigh   | 0.0052328  | 0.0053049  | 0.0054398  |   0.1 |  0.61
Comm    | 0.00026751 | 0.0044565  | 0.00963    |   6.2 |  0.51
Output  | 0          | 0          | 0          |   0.0 |  0.00
Modify  | 0          | 0          | 0          |   0.0 |  0.00
Other   |            | 0.007673   |            |       |  0.88

Nlocal:    169.188 ave 615 max 0 min
Histogram: 9 1 0 1 0 1 1 1 1 1
Nghost:    413.312 ave 1097 max 0 min
Histogram: 8 0 0 0 0 2 1 1 2 2
Neighs:    14550.2 ave 48555 max 0 min
Histogram: 9 2 0 0 0 0 1 0 1 3

Total # of neighbors = 232803
Ave neighs/atom = 86.0004
Ave special neighs/atom = 11.1733
Neighbor list builds = 2
Dangerous builds = 0
timestep        1
fix             pysimm_md all nvt temp 300 300 100
run             5000
PPPM initialization ...
  using 12-bit tables for long-range coulomb (../kspace.cpp:332)
  G vector (1/distance) = 0.0935283
  grid = 30 30 30
  stencil order = 5
  estimated absolute RMS force accuracy = 0.0323508
  estimated relative force accuracy = 9.74235e-05
  using double precision KISS FFT
  3d grid and FFT values/proc = 5200 1800
Per MPI rank memory allocation (min/avg/max) = 18.04 | 18.37 | 18.94 Mbytes
Step Temp E_pair E_mol TotEng Press 
      68    499.73092    2503.2592     5671.101    12205.226    3.8379059 
    5068    303.54814     2500.533    7083.5694    12032.544  -0.31000746 
Loop time of 13.6114 on 16 procs for 5000 steps with 2707 atoms

Performance: 31.738 ns/day, 0.756 hours/ns, 367.338 timesteps/s
93.8% CPU use with 16 MPI tasks x no OpenMP threads

MPI task timing breakdown:
Section |  min time  |  avg time  |  max time  |%varavg| %total
---------------------------------------------------------------
Pair    | 0.00043297 | 1.8169     | 6.1645     | 169.4 | 13.35
Bond    | 0.00098348 | 0.35263    | 1.4235     |  76.6 |  2.59
Kspace  | 5.1181     | 9.6498     | 11.585     |  76.2 | 70.89
Neigh   | 0.61513    | 0.62326    | 0.63567    |   0.8 |  4.58
Comm    | 0.016086   | 0.41186    | 1.3093     |  72.3 |  3.03
Output  | 2.5034e-05 | 2.709e-05  | 3.6001e-05 |   0.0 |  0.00
Modify  | 0.05132    | 0.73218    | 1.4201     |  76.3 |  5.38
Other   |            | 0.02476    |            |       |  0.18

Nlocal:    169.188 ave 744 max 0 min
Histogram: 10 0 1 0 1 1 2 0 0 1
Nghost:    448.688 ave 1352 max 0 min
Histogram: 8 0 0 0 1 3 1 2 0 1
Neighs:    16758.8 ave 60354 max 0 min
Histogram: 10 0 0 1 0 1 1 0 1 2

Total # of neighbors = 268141
Ave neighs/atom = 99.0547
Ave special neighs/atom = 11.1733
Neighbor list builds = 302
Dangerous builds = 10
unfix pysimm_md
write_dump all custom pysimm.dump.tmp id q x y z vx vy vz
quit
