pySIMM System Object

2246 atoms
2483 bonds
4386 angles
7034 dihedrals
714 impropers

8 atom types
10 bond types
17 angle types
9 dihedral types
4 improper types

-196.371967 196.371967 xlo xhi
-196.371967 196.371967 ylo yhi
-196.371967 196.371967 zlo zhi

Masses

   1	14.01	# n
   2	12.01	# c
   3	12.01	# ca
   4	1.008	# hn
   5	16.0	# o
   6	1.008	# ha
   7	12.01	# c3
   8	1.008	# hc

Pair Coeffs

   1	0.17	3.249998523775958	# n
   2	0.086	3.3996695084235347	# c
   3	0.086	3.3996695084235347	# ca
   4	0.0157	1.069078461768407	# hn
   5	0.21	2.959921901149463	# o
   6	0.015	2.59964245953351	# ha
   7	0.1094	3.3996695084235347	# c3
   8	0.0157	2.649532787749369	# hc

Bond Coeffs

   1	461.1	1.3984	# ca,ca
   2	427.6	1.3789	# c,n
   3	345.9	1.4906	# c,ca
   4	300.9	1.5375	# c3,c3
   5	345.8	1.086	# ca,ha
   6	384.2	1.4121	# ca,n
   7	637.7	1.2183	# c,o
   8	321.0	1.5156	# c3,ca
   9	330.6	1.0969	# c3,hc
  10	403.2	1.0129	# hn,n

Angle Coeffs

   1	68.72	122.6	# ca,c,o
   2	62.86	111.51	# c3,c3,c3
   3	63.82	123.71	# c,n,ca
   4	67.87	120.19	# ca,ca,n
   5	67.68	115.25	# ca,c,n
   6	63.0	118.11	# ca,c,ca
   7	63.56	112.24	# ca,c3,ca
   8	63.15	112.07	# c3,c3,ca
   9	46.34	109.8	# c3,c3,hc
  10	74.22	123.05	# n,c,o
  11	48.33	117.55	# c,n,hn
  12	64.28	120.33	# c,ca,ca
  13	39.4	107.58	# hc,c3,hc
  14	66.62	120.02	# ca,ca,ca
  15	63.53	120.77	# c3,ca,ca
  16	63.74	127.08	# c,n,c
  17	48.18	119.88	# ca,ca,ha

Dihedral Coeffs

   1	1	2.5	2	180	# X,c,n,X
   2	1	0.45	2	180	# X,ca,n,X
   3	3	0.18	3	0	0.25	2	180	0.2	1	180	# c3,c3,c3,c3
   4	2	2.5	2	180	2.0	1	0	# hn,n,c,o
   5	1	3.625	2	180	# X,ca,ca,X
   6	1	0.16	3	0	# hc,c3,c3,c3
   7	1	1.0	2	180	# X,c,ca,X
   8	1	0.15555555555555556	3	0	# X,c3,c3,X
   9	1	0.0	2	0	# X,c3,ca,X

Improper Coeffs

   1	10.5	-1	2	# c,X,X,o
   2	1.1	-1	2	# ca,X,X,ha
   3	1.1	-1	2	# ca,ca,ca,c3
   4	1.1	-1	2	# n,X,X,hn

Atoms

   1	1	1	0.463181	10.7895	-44.9505	-70.7956
   2	1	2	0.074399	9.73217	-44.051	-70.9173
   3	1	3	0.034296	9.66717	-43.3549	-69.6088
   4	1	2	0.051625	11.416	-44.8919	-69.5535
   5	1	3	0.019035	10.6724	-43.8501	-68.7996
   6	1	5	-0.389616	8.94762	-43.9224	-71.8434
   7	1	5	-0.380104	12.3115	-45.5999	-69.1239
   8	1	3	-0.045097	8.74809	-42.4056	-69.1474
   9	1	3	-0.056032	10.8346	-43.4033	-67.4849
  10	1	3	-0.174781	9.92107	-42.4456	-66.9985
  11	1	3	-0.129342	8.85501	-41.9651	-67.806
  12	1	6	0.168842	7.9673	-42.0469	-69.8135
  13	1	6	0.15893	11.6263	-43.8046	-66.8568
  14	1	6	0.147704	10.0114	-42.1002	-65.97
  15	1	2	0.584577	7.86713	-40.9924	-67.2103
  16	1	3	-0.046755	6.41014	-40.9958	-67.6292
  17	1	3	-0.110868	5.77685	-42.1331	-68.1979
  18	1	3	-0.046132	4.40261	-42.0687	-68.4813
  19	1	3	-0.135873	5.63277	-39.8373	-67.3667
  20	1	3	-0.117662	4.25565	-39.7925	-67.6563
  21	1	3	-0.064457	3.66849	-40.9319	-68.2148
  22	1	2	0.492569	2.25714	-41.1841	-68.597
  23	1	1	-0.072087	2.21678	-42.4864	-69.0867
  24	1	2	0.477555	3.47147	-43.0928	-69.0406
  25	1	3	0.042617	1.02233	-43.119	-69.552
  26	1	3	-0.20367	1.02977	-43.9361	-70.6979
  27	1	3	-0.057018	-0.162277	-44.4986	-71.1894
  28	1	3	-0.18182	-0.202275	-42.9075	-68.8916
  29	1	3	-0.14326	-1.3916	-43.4696	-69.3793
  30	1	3	0.043342	-1.39769	-44.2561	-70.5489
  31	1	6	0.163244	1.95943	-44.1201	-71.2306
  32	1	6	0.101178	-0.110989	-45.1043	-72.0879
  33	1	6	0.165346	3.6593	-38.9072	-67.4434
  34	1	6	0.135111	6.10518	-38.9647	-66.919
  35	1	6	0.171751	6.31356	-43.0618	-68.3749
  36	1	5	-0.478239	3.77125	-44.2278	-69.3772
  37	1	5	-0.481107	1.34287	-40.3836	-68.4905
  38	1	5	-0.49957	8.2492	-40.2023	-66.3605
  39	1	6	0.151248	-0.24552	-42.2777	-68.0076
  40	1	6	0.146138	-2.3234	-43.2628	-68.8583
  41	1	7	0.044043	-2.74177	-44.7906	-71.0882
  42	1	7	-0.215975	-2.66462	-45.3469	-72.5364
  43	1	8	0.063789	-2.2691	-44.5899	-73.2258
  44	1	8	0.072206	-3.66076	-45.6321	-72.8986
  45	1	8	0.045489	-2.02551	-46.2354	-72.5956
  46	1	7	0.005306	-3.34206	-45.8679	-70.1277
  47	1	7	0.164932	-4.82179	-45.4893	-69.8009
  48	1	8	0.005277	-2.76074	-45.8876	-69.1994
  49	1	8	0.017604	-3.2705	-46.8778	-70.5516
  50	1	3	0.008363	-4.93246	-44.0782	-70.3427
  51	1	7	-0.151488	-5.08169	-45.5387	-68.2754
  52	1	7	-0.269275	-5.81216	-46.4283	-70.5306
  53	1	3	0.096378	-3.79858	-43.6991	-71.0515
  54	1	8	0.063418	-5.65333	-46.402	-71.6157
  55	1	8	0.061085	-6.85019	-46.1293	-70.3373
  56	1	8	0.065045	-5.69054	-47.4655	-70.1936
  57	1	3	-0.142025	-6.01594	-43.1958	-70.1962
  58	1	3	-0.448546	-3.70462	-42.4234	-71.6322
  59	1	3	0.277842	-4.77732	-41.528	-71.4924
  60	1	3	-0.409063	-5.92637	-41.9153	-70.7777
  61	1	6	0.203923	-2.81389	-42.1264	-72.1758
  62	1	8	0.016419	-4.41362	-44.8516	-67.7402
  63	1	8	0.049665	-4.91455	-46.5506	-67.8853
  64	1	8	0.035794	-6.11512	-45.2537	-68.0413
  65	1	6	0.161583	-6.90408	-43.4985	-69.6462
  66	1	6	0.199011	-6.74832	-41.2122	-70.6779
  67	1	1	0.463181	0.506398	-43.1308	-64.8448
  68	1	2	0.074399	1.1109	-43.8492	-65.8721
  69	1	3	0.034296	0.133876	-44.9019	-66.2352
  70	1	2	0.051625	-0.756015	-43.6095	-64.5098
  71	1	3	0.019035	-0.970681	-44.7699	-65.415
  72	1	5	-0.389616	2.22903	-43.7031	-66.3384
  73	1	5	-0.380104	-1.51464	-43.2085	-63.6435
  74	1	3	-0.045097	0.218593	-45.8959	-67.2167
  75	1	3	-0.056032	-2.04723	-45.6555	-65.5049
  76	1	3	-0.174781	-1.97219	-46.6852	-66.4652
  77	1	3	-0.129342	-0.851294	-46.8181	-67.3316
  78	1	6	0.168842	1.08718	-45.9154	-67.8704
  79	1	6	0.15893	-2.90949	-45.5485	-64.8499
  80	1	6	0.147704	-2.80599	-47.3806	-66.552
  81	1	2	0.584577	-0.869772	-47.8949	-68.3941
  82	1	3	-0.046755	0.261336	-48.0105	-69.3802
  83	1	3	-0.110868	1.59813	-48.2463	-68.9702
  84	1	3	-0.046132	2.58051	-48.3819	-69.9653
  85	1	3	-0.135873	-0.0511399	-47.9513	-70.7607
  86	1	3	-0.117662	0.949915	-48.07	-71.7413
  87	1	3	-0.064457	2.26201	-48.2798	-71.3064
  88	1	2	0.492569	3.49872	-48.4785	-72.0992
  89	1	1	-0.072087	4.50571	-48.7155	-71.1747
  90	1	2	0.477555	4.04062	-48.6749	-69.8643
  91	1	3	0.042617	5.85525	-48.9523	-71.5518
  92	1	3	-0.20367	6.54262	-50.1035	-71.1288
  93	1	3	-0.057018	7.87346	-50.3277	-71.5299
  94	1	3	-0.18182	6.50625	-48.0447	-72.4016
  95	1	3	-0.14326	7.83087	-48.2684	-72.8018
  96	1	3	0.043342	8.54991	-49.3963	-72.3496
  97	1	6	0.163244	6.04853	-50.8258	-70.4853
  98	1	6	0.101178	8.37771	-51.2204	-71.1731
  99	1	6	0.165346	0.715094	-48.0236	-72.8034
 100	1	6	0.135111	-1.08469	-47.8164	-71.0693
 101	1	6	0.171751	1.86372	-48.3465	-67.9193
 102	1	5	-0.478239	4.66454	-48.8912	-68.8375
 103	1	5	-0.481107	3.58033	-48.4511	-73.3149
 104	1	5	-0.49957	-1.86775	-48.5785	-68.5563
 105	1	6	0.151248	5.984	-47.1605	-72.7605
 106	1	6	0.146138	8.30607	-47.5389	-73.4534
 107	1	7	0.044043	10.0437	-49.5368	-72.7215
 108	1	7	-0.215975	10.8283	-50.5186	-71.8085
 109	1	8	0.063789	10.7189	-50.2513	-70.7506
 110	1	8	0.072206	11.9005	-50.5	-72.038
 111	1	8	0.045489	10.4828	-51.5518	-71.9392
 112	1	7	0.005306	10.2291	-49.9223	-74.2248
 113	1	7	0.164932	11.2915	-48.963	-74.8573
 114	1	8	0.005277	9.2708	-49.8009	-74.7473
 115	1	8	0.017604	10.5093	-50.9769	-74.3461
 116	1	3	0.008363	11.3629	-47.8398	-73.8395
 117	1	7	-0.151488	10.8242	-48.4585	-76.2443
 118	1	7	-0.269275	12.6679	-49.6573	-74.9952
 119	1	3	0.096378	10.7092	-48.1732	-72.662
 120	1	8	0.063418	13.0307	-50.0178	-74.0254
 121	1	8	0.061085	13.4175	-48.9614	-75.3928
 122	1	8	0.065045	12.6082	-50.5159	-75.6759
 123	1	3	-0.142025	11.9249	-46.5625	-74.0063
 124	1	3	-0.448546	10.5738	-47.2423	-71.6231
 125	1	3	0.277842	11.0774	-45.9364	-71.7833
 126	1	3	-0.409063	11.7663	-45.6109	-72.9763
 127	1	6	0.203923	10.0208	-47.5136	-70.7336
 128	1	8	0.016419	9.8768	-47.9099	-76.1641
 129	1	8	0.049665	10.6732	-49.2987	-76.9338
 130	1	8	0.035794	11.5662	-47.7854	-76.6914
 131	1	6	0.161583	12.4299	-46.3011	-74.9341
 132	1	6	0.199011	12.149	-44.6029	-73.1179
 133	1	1	0.463181	5.62751	-56.4903	-65.8754
 134	1	2	0.074399	6.90263	-56.0291	-66.2045
 135	1	3	0.034296	6.7073	-54.6231	-66.6376
 136	1	2	0.051625	4.64054	-55.5201	-66.0582
 137	1	3	0.019035	5.36384	-54.3164	-66.5434
 138	1	5	-0.389616	7.96675	-56.6243	-66.152
 139	1	5	-0.380104	3.44027	-55.608	-65.8567
 140	1	3	-0.045097	7.645	-53.6852	-67.0819
 141	1	3	-0.056032	4.87943	-53.0478	-66.882
 142	1	3	-0.174781	5.80824	-52.0796	-67.3206
 143	1	3	-0.129342	7.1939	-52.3865	-67.4131
 144	1	6	0.168842	8.69635	-53.958	-67.1611
 145	1	6	0.15893	3.81643	-52.8271	-66.8107
 146	1	6	0.147704	5.44372	-51.0944	-67.6085
 147	1	2	0.584577	8.19846	-51.3815	-67.9141
 148	1	3	-0.046755	8.01808	-49.917	-67.6054
 149	1	3	-0.110868	7.34603	-49.4836	-66.4349
 150	1	3	-0.046132	7.22323	-48.1056	-66.2129
 151	1	3	-0.135873	8.57457	-48.9551	-68.4866
 152	1	3	-0.117662	8.42323	-47.5761	-68.2536
 153	1	3	-0.064457	7.73527	-47.1856	-67.104
 154	1	2	0.492569	7.43287	-45.8281	-66.5996
 155	1	1	-0.072087	6.76064	-46.0111	-65.399
 156	1	2	0.477555	6.58813	-47.3564	-65.0946
 157	1	3	0.042617	6.27503	-44.9347	-64.6082
 158	1	3	-0.20367	6.48399	-44.8876	-63.2186
 159	1	3	-0.057018	5.96474	-43.8251	-62.4551
 160	1	3	-0.18182	5.57401	-43.8887	-65.2237
 161	1	3	-0.14326	5.09544	-42.8087	-64.4733
 162	1	3	0.043342	5.24022	-42.7786	-63.0687
 163	1	6	0.163244	7.01952	-45.6924	-62.7215
 164	1	6	0.101178	6.11008	-43.8434	-61.3801
 165	1	6	0.165346	8.82589	-46.831	-68.9331
 166	1	6	0.135111	9.11841	-49.2866	-69.3652
 167	1	6	0.171751	6.94032	-50.186	-65.7102
 168	1	5	-0.478239	6.03511	-47.8452	-64.1239
 169	1	5	-0.481107	7.71346	-44.7834	-67.161
 170	1	5	-0.49957	9.15448	-51.7633	-68.5701
 171	1	6	0.151248	5.37249	-43.9256	-66.2886
 172	1	6	0.146138	4.54599	-42.0252	-64.9896
 173	1	7	0.044043	4.51259	-41.6792	-62.2618
 174	1	7	-0.215975	4.31299	-42.0322	-60.763
 175	1	8	0.063789	5.27086	-42.0705	-60.2294
 176	1	8	0.072206	3.81443	-43.0038	-60.6531
 177	1	8	0.045489	3.68684	-41.2846	-60.2614
 178	1	7	0.005306	5.20281	-40.2865	-62.4168
 179	1	7	0.164932	4.10721	-39.2284	-62.7771
 180	1	8	0.005277	5.94008	-40.3416	-63.2291
 181	1	8	0.017604	5.76265	-40.0032	-61.5158
 182	1	3	0.008363	2.94783	-40.1002	-63.2237
 183	1	7	-0.151488	4.59938	-38.2917	-63.9064
 184	1	7	-0.269275	3.70639	-38.3847	-61.5438
 185	1	3	0.096378	3.15456	-41.4316	-62.8919
 186	1	8	0.063418	2.90784	-37.677	-61.7998
 187	1	8	0.061085	4.5614	-37.8089	-61.1674
 188	1	8	0.065045	3.33911	-39.0199	-60.7292
 189	1	3	-0.142025	1.83191	-39.7214	-63.9901
 190	1	3	-0.448546	2.27774	-42.4314	-63.3334
 191	1	3	0.277842	1.19754	-42.0893	-64.1675
 192	1	3	-0.409063	0.968634	-40.7272	-64.4744
 193	1	6	0.203923	2.51457	-43.475	-63.1433
 194	1	8	0.016419	3.83587	-37.5494	-64.1705
 195	1	8	0.049665	4.83816	-38.8665	-64.8081
 196	1	8	0.035794	5.50393	-37.7515	-63.5991
 197	1	6	0.161583	1.67997	-38.6795	-64.264
 198	1	6	0.199011	0.150211	-40.4539	-65.1375
 199	1	1	0.463181	8.75128	-56.9593	-47.6081
 200	1	2	0.074399	7.68284	-56.1394	-47.9769
 201	1	3	0.034296	7.02591	-56.8409	-49.1091
 202	1	2	0.051625	8.84529	-58.1055	-48.4014
 203	1	3	0.019035	7.71848	-58.0076	-49.3637
 204	1	5	-0.389616	7.32082	-55.086	-47.4775
 205	1	5	-0.380104	9.65702	-59.0145	-48.337
 206	1	3	-0.045097	5.8827	-56.494	-49.8374
 207	1	3	-0.056032	7.30753	-58.897	-50.3624
 208	1	3	-0.174781	6.15722	-58.5682	-51.1115
 209	1	3	-0.129342	5.44409	-57.3615	-50.8671
 210	1	6	0.168842	5.34267	-55.5789	-49.5979
 211	1	6	0.15893	7.85352	-59.8228	-50.5325
 212	1	6	0.147704	5.80439	-59.2757	-51.8589
 213	1	2	0.584577	4.17621	-57.0098	-51.6093
 214	1	3	-0.046755	3.93734	-57.5021	-53.0172
 215	1	3	-0.110868	5.00641	-57.7286	-53.9202
 216	1	3	-0.046132	4.70026	-58.145	-55.2239
 217	1	3	-0.135873	2.60096	-57.6729	-53.4663
 218	1	3	-0.117662	2.31628	-58.0867	-54.783
 219	1	3	-0.064457	3.39609	-58.3172	-55.6424
 220	1	2	0.492569	3.41516	-58.7302	-57.0702
 221	1	1	-0.072087	4.75646	-58.7847	-57.4296
 222	1	2	0.477555	5.5953	-58.449	-56.3728
 223	1	3	0.042617	5.21175	-59.1486	-58.7282
 224	1	3	-0.20367	6.21761	-60.1166	-58.889
 225	1	3	-0.057018	6.64414	-60.4935	-60.1734
 226	1	3	-0.18182	4.64714	-58.5603	-59.8735
 227	1	3	-0.14326	5.07571	-58.9352	-61.1583
 228	1	3	0.043342	6.08256	-59.9114	-61.3295
 229	1	6	0.163244	6.67052	-60.5831	-58.018
 230	1	6	0.101178	7.41191	-61.2555	-60.2676
 231	1	6	0.165346	1.29192	-58.2137	-55.1294
 232	1	6	0.135111	1.77579	-57.4743	-52.7842
 233	1	6	0.171751	6.04379	-57.5624	-53.6359
 234	1	5	-0.478239	6.81387	-58.4203	-56.3545
 235	1	5	-0.481107	2.43829	-58.9681	-57.7594
 236	1	5	-0.49957	3.33661	-56.3158	-51.0591
 237	1	6	0.151248	3.85847	-57.8183	-59.772
 238	1	6	0.146138	4.59844	-58.468	-62.0146
 239	1	7	0.044043	6.55562	-60.3758	-62.7229
 240	1	7	-0.215975	8.0966	-60.2392	-62.8583
 241	1	8	0.063789	8.62516	-60.926	-62.1865
 242	1	8	0.072206	8.42091	-59.2182	-62.6201
 243	1	8	0.045489	8.42043	-60.463	-63.8832
 244	1	7	0.005306	6.10018	-61.8473	-62.9874
 245	1	7	0.164932	4.78775	-61.8025	-63.8294
 246	1	8	0.005277	5.97427	-62.4237	-62.0617
 247	1	8	0.017604	6.87799	-62.3612	-63.5681
 248	1	3	0.008363	4.87595	-60.4269	-64.4614
 249	1	7	-0.151488	3.53629	-61.9038	-62.9247
 250	1	7	-0.269275	4.76195	-62.9364	-64.8834
 251	1	3	0.096378	5.85671	-59.6462	-63.8624
 252	1	8	0.063418	4.8144	-63.9199	-64.3994
 253	1	8	0.061085	5.61134	-62.8507	-65.5733
 254	1	8	0.065045	3.8409	-62.9021	-65.4783
 255	1	3	-0.142025	4.10514	-59.9221	-65.5198
 256	1	3	-0.448546	6.11553	-58.342	-64.3159
 257	1	3	0.277842	5.36725	-57.8107	-65.3906
 258	1	3	-0.409063	4.35753	-58.6129	-65.9765
 259	1	6	0.203923	6.90065	-57.7533	-63.849
 260	1	8	0.016419	3.52715	-61.113	-62.1651
 261	1	8	0.049665	3.50498	-62.8701	-62.4059
 262	1	8	0.035794	2.61771	-61.8081	-63.5173
 263	1	6	0.161583	3.32919	-60.5333	-65.976
 264	1	6	0.199011	3.75944	-58.21	-66.7919
 265	1	1	0.463181	0.0424753	-40.8993	-42.2853
 266	1	2	0.074399	0.97228	-41.3722	-41.3593
 267	1	3	0.034296	1.65509	-42.5035	-42.0386
 268	1	2	0.051625	0.0660076	-41.6113	-43.4852
 269	1	3	0.019035	1.11166	-42.6487	-43.2999
 270	1	5	-0.389616	1.19922	-40.9617	-40.2326
 271	1	5	-0.380104	-0.619545	-41.4493	-44.4816
 272	1	3	-0.045097	2.66712	-43.352	-41.5756
 273	1	3	-0.056032	1.53286	-43.6642	-44.1642
 274	1	3	-0.174781	2.54779	-44.5362	-43.7166
 275	1	3	-0.129342	3.13998	-44.3752	-42.433
 276	1	6	0.168842	3.07053	-43.221	-40.5722
 277	1	6	0.15893	1.07189	-43.7799	-45.1431
 278	1	6	0.147704	2.85295	-45.3544	-44.3655
 279	1	2	0.584577	4.20827	-45.3102	-41.9158
 280	1	3	-0.046755	5.13984	-46.0293	-42.8633
 281	1	3	-0.110868	5.70757	-47.2589	-42.4529
 282	1	3	-0.046132	6.59436	-47.9112	-43.3185
 283	1	3	-0.135873	5.51579	-45.4755	-44.1181
 284	1	3	-0.117662	6.40993	-46.1516	-44.9754
 285	1	3	-0.064457	6.93111	-47.3785	-44.5457
 286	1	2	0.492569	7.90226	-48.2984	-45.1977
 287	1	1	-0.072087	8.09438	-49.3447	-44.3016
 288	1	2	0.477555	7.34035	-49.1846	-43.1441
 289	1	3	0.042617	8.98004	-50.4384	-44.5232
 290	1	3	-0.20367	10.2858	-50.2197	-44.9964
 291	1	3	-0.057018	11.1733	-51.2949	-45.1721
 292	1	3	-0.18182	8.57642	-51.7544	-44.2376
 293	1	3	-0.14326	9.46432	-52.8291	-44.4099
 294	1	3	0.043342	10.7764	-52.6191	-44.8866
 295	1	6	0.163244	10.6224	-49.2111	-45.222
 296	1	6	0.101178	12.1788	-51.0797	-45.5165
 297	1	6	0.165346	6.70547	-45.7302	-45.9348
 298	1	6	0.135111	5.13516	-44.5039	-44.4238
 299	1	6	0.171751	5.47098	-47.6934	-41.4819
 300	1	5	-0.478239	7.29989	-49.9052	-42.1616
 301	1	5	-0.481107	8.42653	-48.1279	-46.2852
 302	1	5	-0.49957	4.31647	-45.4859	-40.7131
 303	1	6	0.151248	7.57577	-51.9485	-43.8587
 304	1	6	0.146138	9.12513	-53.829	-44.1528
 305	1	7	0.044043	11.7633	-53.7999	-44.999
 306	1	7	-0.215975	12.8538	-53.5908	-46.0864
 307	1	8	0.063789	13.5475	-52.7841	-45.8204
 308	1	8	0.072206	12.3975	-53.3498	-47.055
 309	1	8	0.045489	13.4521	-54.5017	-46.218
 310	1	7	0.005306	12.4224	-54.0732	-43.6082
 311	1	7	0.164932	12.2976	-55.5956	-43.2811
 312	1	8	0.005277	11.9034	-53.4879	-42.837
 313	1	8	0.017604	13.4681	-53.7394	-43.5834
 314	1	3	0.008363	11.3523	-56.0942	-44.356
 315	1	7	-0.151488	11.7112	-55.8124	-41.8649
 316	1	7	-0.269275	13.6698	-56.3019	-43.3937
 317	1	3	0.096378	11.0589	-55.114	-45.2935
 318	1	8	0.063418	14.1007	-56.1657	-44.3937
 319	1	8	0.061085	13.5721	-57.3799	-43.214
 320	1	8	0.065045	14.3792	-55.8997	-42.6593
 321	1	3	-0.142025	10.8051	-57.3807	-44.4725
 322	1	3	-0.448546	10.2086	-55.3831	-46.3785
 323	1	3	0.277842	9.63485	-56.6669	-46.5204
 324	1	3	-0.409063	9.9463	-57.6559	-45.5547
 325	1	6	0.203923	9.98153	-54.5943	-47.0916
 326	1	8	0.016419	12.3593	-55.3653	-41.1002
 327	1	8	0.049665	11.6094	-56.8809	-41.6384
 328	1	8	0.035794	10.7175	-55.3539	-41.7783
 329	1	6	0.161583	11.0472	-58.1501	-43.7424
 330	1	6	0.199011	9.52714	-58.6552	-45.6566
 331	1	1	0.463181	4.8135	-32.9148	-25.0175
 332	1	2	0.074399	4.28543	-32.1002	-26.0202
 333	1	3	0.034296	3.78441	-33.0359	-27.0573
 334	1	2	0.051625	4.70578	-34.2745	-25.3174
 335	1	3	0.019035	4.03123	-34.3284	-26.6392
 336	1	5	-0.389616	4.21819	-30.8821	-26.0581
 337	1	5	-0.380104	5.04619	-35.2338	-24.6442
 338	1	3	-0.045097	3.15581	-32.767	-28.2774
 339	1	3	-0.056032	3.66535	-35.43	-27.42
 340	1	3	-0.174781	3.0285	-35.1841	-28.6554
 341	1	3	-0.129342	2.75479	-33.8563	-29.087
 342	1	6	0.168842	2.98617	-31.7367	-28.5873
 343	1	6	0.15893	3.88126	-36.4411	-27.0809
 344	1	6	0.147704	2.77275	-36.0322	-29.287
 345	1	2	0.584577	2.11601	-33.5593	-30.422
 346	1	3	-0.046755	1.18626	-34.5535	-31.0744
 347	1	3	-0.110868	1.09958	-34.5741	-32.4862
 348	1	3	-0.046132	0.212743	-35.4733	-33.0905
 349	1	3	-0.135873	0.350234	-35.4151	-30.3127
 350	1	3	-0.117662	-0.539416	-36.3112	-30.9433
 351	1	3	-0.064457	-0.581485	-36.3188	-32.3437
 352	1	2	0.492569	-1.41762	-37.1147	-33.2831
 353	1	1	-0.072087	-1.06541	-36.6882	-34.5593
 354	1	2	0.477555	-0.0870081	-35.7013	-34.5279
 355	1	3	0.042617	-1.65245	-37.1807	-35.7601
 356	1	3	-0.20367	-3.04766	-37.3057	-35.8745
 357	1	3	-0.057018	-3.62621	-37.7587	-37.0713
 358	1	3	-0.18182	-0.84902	-37.5282	-36.861
 359	1	3	-0.14326	-1.42794	-37.9778	-38.0602
 360	1	3	0.043342	-2.82995	-38.0908	-38.1874
 361	1	6	0.163244	-3.69039	-37.0502	-35.0359
 362	1	6	0.101178	-4.7075	-37.8401	-37.133
 363	1	6	0.165346	-1.18864	-36.9682	-30.3667
 364	1	6	0.135111	0.368429	-35.3733	-29.2259
 365	1	6	0.171751	1.70242	-33.9034	-33.0979
 366	1	5	-0.478239	0.427347	-35.1168	-35.4657
 367	1	5	-0.481107	-2.24539	-37.953	-32.9693
 368	1	5	-0.49957	2.36929	-32.5077	-30.9869
 369	1	6	0.151248	0.232635	-37.4354	-36.7969
 370	1	6	0.146138	-0.768833	-38.223	-38.8878
 371	1	7	0.044043	-3.51047	-38.5485	-39.4933
 372	1	7	-0.215975	-4.31597	-39.8528	-39.2513
 373	1	8	0.063789	-5.15062	-39.686	-38.5595
 374	1	8	0.072206	-3.67496	-40.6327	-38.8215
 375	1	8	0.045489	-4.73183	-40.2381	-40.1914
 376	1	7	0.005306	-4.43487	-37.4195	-40.0571
 377	1	7	0.164932	-3.62405	-36.6251	-41.1247
 378	1	8	0.005277	-4.83762	-36.7612	-39.2772
 379	1	8	0.017604	-5.30167	-37.884	-40.5465
 380	1	3	0.008363	-2.5987	-37.6574	-41.5485
 381	1	7	-0.151488	-2.92502	-35.3944	-40.4982
 382	1	7	-0.269275	-4.53161	-36.1719	-42.2942
 383	1	3	0.096378	-2.53695	-38.7197	-40.6541
 384	1	8	0.063418	-3.9599	-35.6087	-43.0422
 385	1	8	0.061085	-5.34027	-35.5247	-41.9317
 386	1	8	0.065045	-4.98516	-37.0356	-42.7973
 387	1	3	-0.142025	-1.7865	-37.6319	-42.692
 388	1	3	-0.448546	-1.66655	-39.8	-40.8807
 389	1	3	0.277842	-0.842639	-39.8068	-42.0291
 390	1	3	-0.409063	-0.913695	-38.7125	-42.9248
 391	1	6	0.203923	-1.62288	-40.619	-40.1678
 392	1	8	0.016419	-2.30613	-34.8766	-41.242
 393	1	8	0.049665	-2.27205	-35.6857	-39.6665
 394	1	8	0.035794	-3.66214	-34.6782	-40.1137
 395	1	6	0.161583	-1.84217	-36.7985	-43.3891
 396	1	6	0.199011	-0.296911	-38.7126	-43.8214
 397	1	1	0.463181	-8.65169	-32.7992	-12.5061
 398	1	2	0.074399	-7.60352	-32.4803	-13.3696
 399	1	3	0.034296	-7.18815	-33.7716	-13.9653
 400	1	2	0.051625	-8.95667	-34.1621	-12.5086
 401	1	3	0.019035	-7.9885	-34.7743	-13.4553
 402	1	5	-0.389616	-7.09749	-31.3919	-13.5919
 403	1	5	-0.380104	-9.80036	-34.7548	-11.8561
 404	1	3	-0.045097	-6.16004	-34.0383	-14.8721
 405	1	3	-0.056032	-7.81007	-36.1102	-13.8334
 406	1	3	-0.174781	-6.77197	-36.4056	-14.7436
 407	1	3	-0.129342	-5.92777	-35.3822	-15.2507
 408	1	6	0.168842	-5.56515	-33.2146	-15.2616
 409	1	6	0.15893	-8.45034	-36.8903	-13.427
 410	1	6	0.147704	-6.6093	-37.4379	-15.0516
 411	1	2	0.584577	-4.80995	-35.7222	-16.2045
 412	1	3	-0.046755	-3.57855	-34.8522	-16.2175
 413	1	3	-0.110868	-2.90142	-34.6216	-17.4375
 414	1	3	-0.046132	-1.77913	-33.7821	-17.4256
 415	1	3	-0.135873	-3.07947	-34.2737	-15.0184
 416	1	3	-0.117662	-1.9455	-33.4374	-15.0298
 417	1	3	-0.064457	-1.31958	-33.2037	-16.2591
 418	1	2	0.492569	-0.124308	-32.3838	-16.5854
 419	1	1	-0.072087	0.0657221	-32.5231	-17.9544
 420	1	2	0.477555	-0.892152	-33.3463	-18.5359
 421	1	3	0.042617	1.13389	-31.9168	-18.6718
 422	1	3	-0.20367	1.44779	-30.5591	-18.4865
 423	1	3	-0.057018	2.51577	-29.9729	-19.1867
 424	1	3	-0.18182	1.90775	-32.6769	-19.5641
 425	1	3	-0.14326	2.97308	-32.0911	-20.2651
 426	1	3	0.043342	3.29233	-30.7247	-20.093
 427	1	6	0.163244	0.872925	-29.9561	-17.7881
 428	1	6	0.101178	2.7447	-28.9259	-19.0129
 429	1	6	0.165346	-1.55945	-32.9869	-14.1167
 430	1	6	0.135111	-3.56697	-34.4797	-14.0679
 431	1	6	0.171751	-3.24699	-35.0704	-18.3684
 432	1	5	-0.478239	-1.00809	-33.6596	-19.7082
 433	1	5	-0.481107	0.539725	-31.739	-15.7915
 434	1	5	-0.49957	-4.91131	-36.667	-16.9691
 435	1	6	0.151248	1.68505	-33.7302	-19.7182
 436	1	6	0.146138	3.54842	-32.7237	-20.9339
 437	1	7	0.044043	4.46238	-30.0521	-20.8415
 438	1	7	-0.215975	3.99093	-28.7704	-21.5808
 439	1	8	0.063789	3.68896	-27.9849	-20.8778
 440	1	8	0.072206	3.13566	-28.9875	-22.2332
 441	1	8	0.045489	4.79474	-28.3631	-22.2079
 442	1	7	0.005306	5.63472	-29.7321	-19.8597
 443	1	7	0.164932	6.68291	-30.8831	-19.9684
 444	1	8	0.005277	5.2893	-29.5853	-18.828
 445	1	8	0.017604	6.10816	-28.7892	-20.1648
 446	1	3	0.008363	6.3526	-31.4776	-21.3243
 447	1	7	-0.151488	6.47393	-31.9333	-18.8508
 448	1	7	-0.269275	8.12863	-30.3338	-19.9038
 449	1	3	0.096378	5.14281	-31.0031	-21.8131
 450	1	8	0.063418	8.31687	-29.6276	-20.7227
 451	1	8	0.061085	8.86286	-31.1449	-19.984
 452	1	8	0.065045	8.30534	-29.8109	-18.9552
 453	1	3	-0.142025	7.09193	-32.4264	-22.047
 454	1	3	-0.448546	4.63211	-31.4544	-23.0403
 455	1	3	0.277842	5.34966	-32.4118	-23.7903
 456	1	3	-0.409063	6.58183	-32.888	-23.2776
 457	1	6	0.203923	3.67773	-31.0768	-23.3981
 458	1	8	0.016419	5.45636	-32.3414	-18.8721
 459	1	8	0.049665	6.63799	-31.4894	-17.8607
 460	1	8	0.035794	7.17283	-32.7712	-18.9659
 461	1	6	0.161583	8.02963	-32.8107	-21.6512
 462	1	6	0.199011	7.13548	-33.6444	-23.8307
 463	1	1	0.463181	-1.14312	-15.1801	-14.0136
 464	1	2	0.074399	-1.80446	-16.2567	-13.4119
 465	1	3	0.034296	-2.3354	-17.0713	-14.5353
 466	1	2	0.051625	-1.21048	-15.2318	-15.409
 467	1	3	0.019035	-1.97418	-16.4634	-15.7208
 468	1	5	-0.389616	-1.91685	-16.5231	-12.2262
 469	1	5	-0.380104	-0.77156	-14.4409	-16.2292
 470	1	3	-0.045097	-3.09208	-18.2506	-14.5136
 471	1	3	-0.056032	-2.3398	-16.9997	-16.958
 472	1	3	-0.174781	-3.09098	-18.1919	-16.9613
 473	1	3	-0.129342	-3.46515	-18.8354	-15.7504
 474	1	6	0.168842	-3.39389	-18.6732	-13.5579
 475	1	6	0.15893	-2.05613	-16.5014	-17.8828
 476	1	6	0.147704	-3.39731	-18.619	-17.9155
 477	1	2	0.584577	-4.31884	-20.0818	-15.82
 478	1	3	-0.046755	-4.31231	-21.0978	-14.7017
 479	1	3	-0.110868	-5.46877	-21.8891	-14.4984
 480	1	3	-0.046132	-5.45135	-22.86	-13.4887
 481	1	3	-0.135873	-3.15995	-21.3343	-13.9026
 482	1	3	-0.117662	-3.1664	-22.3147	-12.8875
 483	1	3	-0.064457	-4.3362	-23.0626	-12.7023
 484	1	2	0.492569	-4.63634	-24.167	-11.7515
 485	1	1	-0.072087	-5.93723	-24.57	-12.0342
 486	1	2	0.477555	-6.49833	-23.8292	-13.068
 487	1	3	0.042617	-6.60757	-25.6269	-11.3529
 488	1	3	-0.20367	-6.59519	-25.6934	-9.94909
 489	1	3	-0.057018	-7.23216	-26.7506	-9.27885
 490	1	3	-0.18182	-7.28099	-26.6316	-12.0711
 491	1	3	-0.14326	-7.91753	-27.6912	-11.4003
 492	1	3	0.043342	-7.89458	-27.7729	-9.98988
 493	1	6	0.163244	-6.07786	-24.932	-9.3712
 494	1	6	0.101178	-7.20188	-26.7764	-8.19381
 495	1	6	0.165346	-2.2861	-22.5051	-12.2754
 496	1	6	0.135111	-2.2424	-20.7799	-14.0844
 497	1	6	0.171751	-6.35666	-21.7582	-15.1166
 498	1	5	-0.478239	-7.61479	-23.9271	-13.5473
 499	1	5	-0.481107	-3.87581	-24.6071	-10.9065
 500	1	5	-0.49957	-5.03392	-20.2643	-16.792
 501	1	6	0.151248	-7.3111	-26.5956	-13.1576
 502	1	6	0.146138	-8.42236	-28.4463	-11.9958
 503	1	7	0.044043	-8.5513	-28.9326	-9.21159
 504	1	7	-0.215975	-7.51371	-29.6217	-8.28323
 505	1	8	0.063789	-6.62525	-29.9276	-8.84987
 506	1	8	0.072206	-7.9407	-30.5198	-7.81793
 507	1	8	0.045489	-7.18529	-28.9548	-7.477
 508	1	7	0.005306	-9.7784	-28.4254	-8.38588
 509	1	7	0.164932	-11.0792	-28.801	-9.1612
 510	1	8	0.005277	-9.72568	-27.3494	-8.17523
 511	1	8	0.017604	-9.78668	-28.929	-7.40987
 512	1	3	0.008363	-10.5914	-29.9019	-10.081
 513	1	7	-0.151488	-11.5976	-27.6017	-9.98947
 514	1	7	-0.269275	-12.1852	-29.2918	-8.19526
 515	1	3	0.096378	-9.20488	-29.9705	-10.1129
 516	1	8	0.063418	-13.0991	-29.5559	-8.74145
 517	1	8	0.061085	-12.4412	-28.512	-7.46676
 518	1	8	0.065045	-11.8559	-30.1806	-7.64162
 519	1	3	-0.142025	-11.3708	-30.7854	-10.8439
 520	1	3	-0.448546	-8.55074	-30.9291	-10.9027
 521	1	3	0.277842	-9.30682	-31.8319	-11.6833
 522	1	3	-0.409063	-10.72	-31.7475	-11.6409
 523	1	6	0.203923	-7.46434	-30.9559	-10.9258
 524	1	8	0.016419	-11.8906	-26.7704	-9.33565
 525	1	8	0.049665	-12.4729	-27.8884	-10.5857
 526	1	8	0.035794	-10.8271	-27.2347	-10.6793
 527	1	6	0.161583	-12.4571	-30.7285	-10.8139
 528	1	6	0.199011	-11.3161	-32.4463	-12.2247
 529	1	1	0.463181	-6.10888	-1.20327	-20.6014
 530	1	2	0.074399	-4.84637	-0.612703	-20.5458
 531	1	3	0.034296	-3.88913	-1.74575	-20.5197
 532	1	2	0.051625	-6.05368	-2.59749	-20.5786
 533	1	3	0.019035	-4.60518	-2.92614	-20.5425
 534	1	5	-0.389616	-4.55841	0.573242	-20.5501
 535	1	5	-0.380104	-6.97372	-3.39699	-20.6337
 536	1	3	-0.045097	-2.49061	-1.73393	-20.5316
 537	1	3	-0.056032	-3.96101	-4.16661	-20.5947
 538	1	3	-0.174781	-2.54941	-4.18021	-20.6134
 539	1	3	-0.129342	-1.80138	-2.96983	-20.5617
 540	1	6	0.168842	-1.95592	-0.784901	-20.5372
 541	1	6	0.15893	-4.54165	-5.08569	-20.6497
 542	1	6	0.147704	-2.04355	-5.13911	-20.704
 543	1	2	0.584577	-0.290982	-2.94454	-20.6259
 544	1	3	-0.046755	0.523008	-4.12272	-20.1459
 545	1	3	-0.110868	0.0652257	-4.96291	-19.1021
 546	1	3	-0.046132	0.869348	-6.04234	-18.7154
 547	1	3	-0.135873	1.80275	-4.36018	-20.714
 548	1	3	-0.117662	2.60137	-5.44505	-20.2962
 549	1	3	-0.064457	2.09369	-6.2841	-19.2975
 550	1	2	0.492569	2.69049	-7.47826	-18.6429
 551	1	1	-0.072087	1.77691	-7.88275	-17.6681
 552	1	2	0.477555	0.649595	-7.06035	-17.66
 553	1	3	0.042617	1.99625	-8.94834	-16.7346
 554	1	3	-0.20367	0.918537	-9.67929	-16.1985
 555	1	3	-0.057018	1.12097	-10.6326	-15.1875
 556	1	3	-0.18182	3.28998	-9.25157	-16.2687
 557	1	3	-0.14326	3.49335	-10.194	-15.2494
 558	1	3	0.043342	2.41268	-10.8908	-14.6786
 559	1	6	0.163244	-0.0980636	-9.49511	-16.5337
 560	1	6	0.101178	0.248135	-11.137	-14.7849
 561	1	6	0.165346	3.58486	-5.62567	-20.7273
 562	1	6	0.135111	2.17837	-3.69405	-21.4892
 563	1	6	0.171751	-0.878778	-4.78498	-18.5907
 564	1	5	-0.478239	-0.315883	-7.08202	-16.9166
 565	1	5	-0.481107	3.78553	-7.94701	-18.9017
 566	1	5	-0.49957	0.272538	-1.95483	-21.0635
 567	1	6	0.151248	4.15668	-8.72971	-16.6568
 568	1	6	0.146138	4.50082	-10.349	-14.8737
 569	1	7	0.044043	2.66381	-11.8534	-13.5003
 570	1	7	-0.215975	3.79067	-12.8707	-13.8288
 571	1	8	0.063789	4.7679	-12.3799	-13.9095
 572	1	8	0.072206	3.58963	-13.383	-14.778
 573	1	8	0.045489	3.86862	-13.6339	-13.0436
 574	1	7	0.005306	2.99958	-11.0447	-12.2058
 575	1	7	0.164932	1.69253	-10.9158	-11.3623
 576	1	8	0.005277	3.44368	-10.0651	-12.4275
 577	1	8	0.017604	3.74823	-11.598	-11.6231
 578	1	3	0.008363	0.850243	-12.0491	-11.9182
 579	1	7	-0.151488	1.00123	-9.55211	-11.6053
 580	1	7	-0.269275	1.98384	-11.0893	-9.85166
 581	1	3	0.096378	1.39974	-12.5816	-13.0759
 582	1	8	0.063418	1.06374	-11.0036	-9.26051
 583	1	8	0.061085	2.68463	-10.3216	-9.49961
 584	1	8	0.065045	2.42485	-12.0734	-9.64741
 585	1	3	-0.142025	-0.3628	-12.5421	-11.4154
 586	1	3	-0.448546	0.768001	-13.6301	-13.762
 587	1	3	0.277842	-0.461884	-14.1438	-13.2909
 588	1	3	-0.409063	-1.01173	-13.584	-12.1097
 589	1	6	0.203923	1.21067	-14.0074	-14.6798
 590	1	8	0.016419	0.0539038	-9.4903	-11.0549
 591	1	8	0.049665	0.778152	-9.39981	-12.668
 592	1	8	0.035794	1.63932	-8.72434	-11.2712
 593	1	6	0.161583	-0.797777	-12.1152	-10.5142
 594	1	6	0.199011	-1.95638	-13.9614	-11.7231
 595	1	1	0.463181	-5.48451	17.8374	-19.1515
 596	1	2	0.074399	-6.14212	16.7786	-19.7762
 597	1	3	0.034296	-5.06249	15.9792	-20.4155
 598	1	2	0.051625	-4.10475	17.8036	-19.3343
 599	1	3	0.019035	-3.85269	16.5974	-20.158
 600	1	5	-0.389616	-7.33559	16.5255	-19.7889
 601	1	5	-0.380104	-3.26432	18.5764	-18.906
 602	1	3	-0.045097	-5.13444	14.7935	-21.1587
 603	1	3	-0.056032	-2.64641	16.0858	-20.6453
 604	1	3	-0.174781	-2.69635	14.9023	-21.4087
 605	1	3	-0.129342	-3.92716	14.2399	-21.6513
 606	1	6	0.168842	-6.09979	14.3295	-21.3527
 607	1	6	0.15893	-1.70662	16.5943	-20.4391
 608	1	6	0.147704	-1.77337	14.4856	-21.8097
 609	1	2	0.584577	-3.93239	12.9716	-22.4616
 610	1	3	-0.046755	-4.65021	11.7526	-21.9333
 611	1	3	-0.110868	-4.90573	10.6715	-22.8113
 612	1	3	-0.046132	-5.52802	9.52494	-22.3002
 613	1	3	-0.135873	-5.01427	11.6369	-20.563
 614	1	3	-0.117662	-5.63968	10.4723	-20.0712
 615	1	3	-0.064457	-5.8845	9.42831	-20.971
 616	1	2	0.492569	-6.51356	8.09839	-20.7551
 617	1	1	-0.072087	-6.50567	7.46938	-21.995
 618	1	2	0.477555	-5.91957	8.26026	-22.9775
 619	1	3	0.042617	-7.07048	6.18458	-22.2382
 620	1	3	-0.20367	-6.80783	5.10507	-21.3759
 621	1	3	-0.057018	-7.39011	3.84627	-21.6047
 622	1	3	-0.18182	-7.92103	5.98036	-23.3385
 623	1	3	-0.14326	-8.4999	4.72218	-23.5694
 624	1	3	0.043342	-8.25033	3.63581	-22.7057
 625	1	6	0.163244	-6.15949	5.24028	-20.5137
 626	1	6	0.101178	-7.16802	3.04525	-20.9066
 627	1	6	0.165346	-5.91629	10.3749	-19.0226
 628	1	6	0.135111	-4.78939	12.4372	-19.8625
 629	1	6	0.171751	-4.62029	10.7177	-23.862
 630	1	5	-0.478239	-5.76853	8.00826	-24.1605
 631	1	5	-0.481107	-6.95491	7.68148	-19.698
 632	1	5	-0.49957	-3.30108	12.9154	-23.5038