pySIMM System Object

1652 atoms
1826 bonds
3225 angles
5171 dihedrals
525 impropers

8 atom types
10 bond types
17 angle types
9 dihedral types
4 improper types

-176.595077 176.595077 xlo xhi
-176.595077 176.595077 ylo yhi
-176.595077 176.595077 zlo zhi

Masses

   1	14.01	# n
   2	12.01	# c
   3	12.01	# ca
   4	1.008	# hn
   5	16.0	# o
   6	1.008	# ha
   7	12.01	# c3
   8	1.008	# hc

Pair Coeffs

   1	0.17	3.249998523775958	# n
   2	0.086	3.3996695084235347	# c
   3	0.086	3.3996695084235347	# ca
   4	0.0157	1.069078461768407	# hn
   5	0.21	2.959921901149463	# o
   6	0.015	2.59964245953351	# ha
   7	0.1094	3.3996695084235347	# c3
   8	0.0157	2.649532787749369	# hc

Bond Coeffs

   1	461.1	1.3984	# ca,ca
   2	427.6	1.3789	# c,n
   3	345.9	1.4906	# c,ca
   4	300.9	1.5375	# c3,c3
   5	345.8	1.086	# ca,ha
   6	384.2	1.4121	# ca,n
   7	637.7	1.2183	# c,o
   8	321.0	1.5156	# c3,ca
   9	330.6	1.0969	# c3,hc
  10	403.2	1.0129	# hn,n

Angle Coeffs

   1	68.72	122.6	# ca,c,o
   2	62.86	111.51	# c3,c3,c3
   3	63.82	123.71	# c,n,ca
   4	67.87	120.19	# ca,ca,n
   5	67.68	115.25	# ca,c,n
   6	63.0	118.11	# ca,c,ca
   7	63.56	112.24	# ca,c3,ca
   8	63.15	112.07	# c3,c3,ca
   9	46.34	109.8	# c3,c3,hc
  10	74.22	123.05	# n,c,o
  11	48.33	117.55	# c,n,hn
  12	64.28	120.33	# c,ca,ca
  13	39.4	107.58	# hc,c3,hc
  14	66.62	120.02	# ca,ca,ca
  15	63.53	120.77	# c3,ca,ca
  16	63.74	127.08	# c,n,c
  17	48.18	119.88	# ca,ca,ha

Dihedral Coeffs

   1	1	2.5	2	180	# X,c,n,X
   2	1	0.45	2	180	# X,ca,n,X
   3	3	0.18	3	0	0.25	2	180	0.2	1	180	# c3,c3,c3,c3
   4	2	2.5	2	180	2.0	1	0	# hn,n,c,o
   5	1	3.625	2	180	# X,ca,ca,X
   6	1	0.16	3	0	# hc,c3,c3,c3
   7	1	1.0	2	180	# X,c,ca,X
   8	1	0.15555555555555556	3	0	# X,c3,c3,X
   9	1	0.0	2	0	# X,c3,ca,X

Improper Coeffs

   1	10.5	-1	2	# c,X,X,o
   2	1.1	-1	2	# ca,X,X,ha
   3	1.1	-1	2	# ca,ca,ca,c3
   4	1.1	-1	2	# n,X,X,hn

Atoms

   1	1	1	0.463181	-26.1925	65.0656	-8.57834
   2	1	2	0.074399	-24.9967	65.2059	-7.87813
   3	1	3	0.034296	-24.2414	63.9605	-8.15763
   4	1	2	0.051625	-26.2732	63.8696	-9.28834
   5	1	3	0.019035	-24.9932	63.1706	-9.0068
   6	1	5	-0.389616	-24.6601	66.1002	-7.11896
   7	1	5	-0.380104	-27.2178	63.4286	-9.92177
   8	1	3	-0.045097	-23.0147	63.5295	-7.64321
   9	1	3	-0.056032	-24.5407	61.9149	-9.42491
  10	1	3	-0.174781	-23.302	61.4621	-8.92495
  11	1	3	-0.129342	-22.553	62.2416	-8.00429
  12	1	6	0.168842	-22.4596	64.172	-6.96351
  13	1	6	0.15893	-25.144	61.3009	-10.0891
  14	1	6	0.147704	-22.9408	60.4752	-9.20942
  15	1	2	0.584577	-21.2841	61.6781	-7.41992
  16	1	3	-0.046755	-20.9273	61.9441	-5.97318
  17	1	3	-0.110868	-21.9065	62.2935	-5.00625
  18	1	3	-0.046132	-21.5047	62.4577	-3.67139
  19	1	3	-0.135873	-19.5805	61.7711	-5.56014
  20	1	3	-0.117662	-19.1978	61.9392	-4.2152
  21	1	3	-0.064457	-20.1907	62.2805	-3.2913
  22	1	2	0.492569	-20.0929	62.5052	-1.82805
  23	1	1	-0.072087	-21.3785	62.8239	-1.401
  24	1	2	0.477555	-22.2924	62.8036	-2.45258
  25	1	3	0.042617	-21.7022	63.132	-0.0446386
  26	1	3	-0.20367	-22.5686	64.1938	0.273753
  27	1	3	-0.057018	-22.797	64.5578	1.61297
  28	1	3	-0.18182	-21.1142	62.4087	1.00873
  29	1	3	-0.14326	-21.3465	62.766	2.34508
  30	1	3	0.043342	-22.1594	63.8716	2.67005
  31	1	6	0.163244	-23.043	64.7669	-0.519128
  32	1	6	0.101178	-23.4493	65.4015	1.81155
  33	1	6	0.165346	-18.1665	61.799	-3.89657
  34	1	6	0.135111	-18.826	61.4899	-6.29308
  35	1	6	0.171751	-22.9591	62.3935	-5.26405
  36	1	5	-0.478239	-23.4896	63.04	-2.41529
  37	1	5	-0.481107	-19.0694	62.4339	-1.16837
  38	1	5	-0.49957	-20.5591	60.9804	-8.1114
  39	1	6	0.151248	-20.4383	61.5853	0.795576
  40	1	6	0.146138	-20.849	62.203	3.13123
  41	1	7	0.044043	-22.2941	64.3059	4.14534
  42	1	7	-0.215975	-22.7771	65.7718	4.31869
  43	1	8	0.063789	-22.1355	66.462	3.75555
  44	1	8	0.072206	-22.7386	66.0749	5.37264
  45	1	8	0.045489	-23.8109	65.9015	3.97604
  46	1	7	0.005306	-23.2194	63.3271	4.93479
  47	1	7	0.164932	-22.5027	62.9036	6.25474
  48	1	8	0.005277	-23.3938	62.4368	4.32168
  49	1	8	0.017604	-24.2055	63.7639	5.13553
  50	1	3	0.008363	-21.0797	63.3662	6.01752
  51	1	7	-0.151488	-22.5873	61.3718	6.46216
  52	1	7	-0.269275	-23.1096	63.6316	7.47827
  53	1	3	0.096378	-20.969	64.1489	4.87417
  54	1	8	0.063418	-23.0473	64.7206	7.36118
  55	1	8	0.061085	-22.5741	63.3639	8.39775
  56	1	8	0.065045	-24.1654	63.3637	7.61173
  57	1	3	-0.142025	-19.9522	63.0852	6.80703
  58	1	3	-0.448546	-19.7282	64.6744	4.47776
  59	1	3	0.277842	-18.5898	64.3988	5.2521
  60	1	3	-0.409063	-18.7047	63.6065	6.40989
  61	1	6	0.203923	-19.6433	65.2747	3.57773
  62	1	8	0.016419	-22.1191	60.836	5.62627
  63	1	8	0.049665	-23.6332	61.0472	6.53284
  64	1	8	0.035794	-22.0775	61.0682	7.38468
  65	1	6	0.161583	-20.0436	62.4762	7.70378
  66	1	6	0.199011	-17.8157	63.4003	6.99848
  67	1	1	0.463181	-21.3806	58.4908	0.208665
  68	1	2	0.074399	-22.3054	59.4855	-0.0950612
  69	1	3	0.034296	-23.0771	59.6904	1.15321
  70	1	2	0.051625	-21.4877	58.0212	1.51315
  71	1	3	0.019035	-22.6059	58.8041	2.10322
  72	1	5	-0.389616	-22.4915	60.0409	-1.16561
  73	1	5	-0.380104	-20.8329	57.1521	2.06322
  74	1	3	-0.045097	-24.0979	60.6068	1.43102
  75	1	3	-0.056032	-23.1678	58.7484	3.38025
  76	1	3	-0.174781	-24.2247	59.6345	3.67196
  77	1	3	-0.129342	-24.6973	60.5765	2.71568
  78	1	6	0.168842	-24.3742	61.3279	0.666092
  79	1	6	0.15893	-22.793	58.0445	4.12021
  80	1	6	0.147704	-24.6652	59.6091	4.66759
  81	1	2	0.584577	-25.7628	61.5674	3.13498
  82	1	3	-0.046755	-26.2466	62.6301	2.18339
  83	1	3	-0.110868	-26.7674	62.3133	0.903874
  84	1	3	-0.046132	-27.2476	63.3644	0.106559
  85	1	3	-0.135873	-26.253	63.9764	2.6292
  86	1	3	-0.117662	-26.7306	65.0161	1.81075
  87	1	3	-0.064457	-27.222	64.6733	0.547479
  88	1	2	0.492569	-27.8279	65.5322	-0.499119
  89	1	1	-0.072087	-28.2038	64.673	-1.52319
  90	1	2	0.477555	-27.881	63.3495	-1.24221
  91	1	3	0.042617	-28.8299	65.115	-2.72208
  92	1	3	-0.20367	-29.9919	64.4918	-3.21233
  93	1	3	-0.057018	-30.5911	64.9328	-4.40709
  94	1	3	-0.18182	-28.2954	66.2048	-3.42806
  95	1	3	-0.14326	-28.8944	66.6468	-4.61591
  96	1	3	0.043342	-30.0365	66.0049	-5.14037
  97	1	6	0.163244	-30.4297	63.6576	-2.67263
  98	1	6	0.101178	-31.4772	64.4173	-4.76347
  99	1	6	0.165346	-26.7434	66.0496	2.15336
 100	1	6	0.135111	-25.8949	64.213	3.62797
 101	1	6	0.171751	-26.8262	61.286	0.548737
 102	1	5	-0.478239	-28.1001	62.3598	-1.92131
 103	1	5	-0.481107	-27.968	66.7412	-0.435984
 104	1	5	-0.49957	-26.1358	61.6047	4.29673
 105	1	6	0.151248	-27.4073	66.7138	-3.05991
 106	1	6	0.146138	-28.4443	67.482	-5.14717
 107	1	7	0.044043	-30.5761	66.453	-6.51562
 108	1	7	-0.215975	-31.6177	65.4854	-7.1408
 109	1	8	0.063789	-31.2132	64.4709	-7.23604
 110	1	8	0.072206	-31.9053	65.8164	-8.14665
 111	1	8	0.045489	-32.5316	65.4364	-6.53529
 112	1	7	0.005306	-31.1539	67.9053	-6.46659
 113	1	7	0.164932	-30.4805	68.7488	-7.59968
 114	1	8	0.005277	-30.9346	68.3543	-5.48887
 115	1	8	0.017604	-32.2481	67.9099	-6.55902
 116	1	3	0.008363	-29.3258	67.8656	-8.0324
 117	1	7	-0.151488	-29.9901	70.1121	-7.05452
 118	1	7	-0.269275	-31.4511	68.978	-8.78281
 119	1	3	0.096378	-29.4033	66.6019	-7.46592
 120	1	8	0.063418	-31.8054	68.024	-9.19273
 121	1	8	0.061085	-30.9553	69.5263	-9.59382
 122	1	8	0.065045	-32.3268	69.5588	-8.46659
 123	1	3	-0.142025	-28.2379	68.2158	-8.84936
 124	1	3	-0.448546	-28.3923	65.6531	-7.67279
 125	1	3	0.277842	-27.2715	65.9878	-8.45881
 126	1	3	-0.409063	-27.2091	67.272	-9.05029
 127	1	6	0.203923	-28.4547	64.6887	-7.1832
 128	1	8	0.016419	-29.2625	69.9723	-6.2446
 129	1	8	0.049665	-30.8295	70.6983	-6.65942
 130	1	8	0.035794	-29.5076	70.7037	-7.84233
 131	1	6	0.161583	-28.1758	69.2103	-9.28658
 132	1	6	0.199011	-26.3409	67.5473	-9.6445
 133	1	1	0.463181	-35.3527	59.7724	-0.347136
 134	1	2	0.074399	-35.3809	60.0449	-1.71665
 135	1	3	0.034296	-33.9742	60.3461	-2.08319
 136	1	2	0.051625	-34.0697	59.8763	0.193754
 137	1	3	0.019035	-33.1949	60.241	-0.948419
 138	1	5	-0.389616	-36.3353	60.0408	-2.47735
 139	1	5	-0.380104	-33.7091	59.6943	1.3453
 140	1	3	-0.045097	-33.4226	60.6889	-3.3229
 141	1	3	-0.056032	-31.8163	60.4696	-0.986464
 142	1	3	-0.174781	-31.2372	60.8113	-2.22599
 143	1	3	-0.129342	-32.0273	60.9127	-3.40454
 144	1	6	0.168842	-34.0634	60.7793	-4.19881
 145	1	6	0.15893	-31.2194	60.3912	-0.0803665
 146	1	6	0.147704	-30.1709	61.0177	-2.25736
 147	1	2	0.584577	-31.4393	61.3248	-4.73323
 148	1	3	-0.046755	-29.9747	61.1093	-5.02326
 149	1	3	-0.110868	-29.2729	59.988	-4.5146
 150	1	3	-0.046132	-27.9097	59.8657	-4.81495
 151	1	3	-0.135873	-29.2981	62.0322	-5.86185
 152	1	3	-0.117662	-27.9268	61.8923	-6.14768
 153	1	3	-0.064457	-27.2557	60.8001	-5.59199
 154	1	2	0.492569	-25.8342	60.3963	-5.70848
 155	1	1	-0.072087	-25.7231	59.2005	-5.01158
 156	1	2	0.477555	-26.9264	58.817	-4.4313
 157	1	3	0.042617	-24.5057	58.4771	-4.89151
 158	1	3	-0.20367	-24.445	57.0954	-5.1446
 159	1	3	-0.057018	-23.2357	56.3929	-4.98664
 160	1	3	-0.18182	-23.3352	59.1494	-4.51513
 161	1	3	-0.14326	-22.1222	58.4604	-4.39435
 162	1	3	0.043342	-22.0574	57.0625	-4.58761
 163	1	6	0.163244	-25.3444	56.5553	-5.42928
 164	1	6	0.101178	-23.2376	55.3201	-5.1479
 165	1	6	0.165346	-27.4013	62.5988	-6.78386
 166	1	6	0.135111	-29.8444	62.8701	-6.2849
 167	1	6	0.171751	-29.7639	59.2296	-3.90841
 168	1	5	-0.478239	-27.1569	57.8279	-3.75601
 169	1	5	-0.481107	-24.9583	61.0231	-6.27994
 170	1	5	-0.49957	-32.1493	61.8829	-5.55453
 171	1	6	0.151248	-23.3728	60.2077	-4.28286
 172	1	6	0.146138	-21.2415	59.0144	-4.0784
 173	1	7	0.044043	-20.7511	56.3192	-4.22863
 174	1	7	-0.215975	-20.9172	54.7849	-4.06049
 175	1	8	0.063789	-21.1844	54.3054	-5.01059
 176	1	8	0.072206	-21.6954	54.5523	-3.32219
 177	1	8	0.045489	-19.9836	54.3268	-3.71033
 178	1	7	0.005306	-19.598	56.6383	-5.23355
 179	1	7	0.164932	-18.3543	57.1353	-4.42312
 180	1	8	0.005277	-19.9288	57.4218	-5.92841
 181	1	8	0.017604	-19.35	55.7685	-5.85625
 182	1	3	0.008363	-18.9361	57.4007	-3.04701
 183	1	7	-0.151488	-17.7687	58.419	-5.05841
 184	1	7	-0.269275	-17.259	56.0461	-4.34367
 185	1	3	0.096378	-20.226	56.9038	-2.93225
 186	1	8	0.063418	-16.415	56.387	-3.73057
 187	1	8	0.061085	-16.875	55.8013	-5.3421
 188	1	8	0.065045	-17.6499	55.1254	-3.89326
 189	1	3	-0.142025	-18.3684	58.1566	-2.00691
 190	1	3	-0.448546	-21.0064	57.1701	-1.79937
 191	1	3	0.277842	-20.4895	57.9861	-0.776768
 192	1	3	-0.409063	-19.1598	58.4591	-0.878712
 193	1	6	0.203923	-22.0479	56.8598	-1.77989
 194	1	8	0.016419	-16.9111	58.7939	-4.48623
 195	1	8	0.049665	-18.526	59.2102	-5.09173
 196	1	8	0.035794	-17.4333	58.2288	-6.08589
 197	1	6	0.161583	-17.3633	58.5614	-2.10523
 198	1	6	0.199011	-18.7585	59.113	-0.107038
 199	1	1	0.463181	-39.1114	41.9156	-3.31929
 200	1	2	0.074399	-38.0165	42.0051	-2.45817
 201	1	3	0.034296	-38.2909	43.1845	-1.60076
 202	1	2	0.051625	-40.0612	42.9116	-3.0864
 203	1	3	0.019035	-39.5051	43.725	-1.9743
 204	1	5	-0.389616	-37.0351	41.2824	-2.39324
 205	1	5	-0.380104	-41.1182	43.107	-3.664
 206	1	3	-0.045097	-37.5271	43.7374	-0.567309
 207	1	3	-0.056032	-40.0307	44.8489	-1.32847
 208	1	3	-0.174781	-39.2788	45.4241	-0.281264
 209	1	3	-0.129342	-38.0153	44.8886	0.0957229
 210	1	6	0.168842	-36.5786	43.2808	-0.287887
 211	1	6	0.15893	-40.997	45.2516	-1.62518
 212	1	6	0.147704	-39.699	46.274	0.251812
 213	1	2	0.584577	-37.201	45.4609	1.23258
 214	1	3	-0.046755	-37.3273	46.9159	1.61908
 215	1	3	-0.110868	-37.6239	47.9188	0.662065
 216	1	3	-0.046132	-37.7106	49.2495	1.09612
 217	1	3	-0.135873	-37.0902	47.2914	2.96775
 218	1	3	-0.117662	-37.1763	48.6363	3.38083
 219	1	3	-0.064457	-37.4933	49.5974	2.4143
 220	1	2	0.492569	-37.6699	51.0681	2.54323
 221	1	1	-0.072087	-38.0064	51.5197	1.27342
 222	1	2	0.477555	-38.0409	50.4888	0.341788
 223	1	3	0.042617	-38.347	52.8705	0.985758
 224	1	3	-0.20367	-39.5651	53.1736	0.355748
 225	1	3	-0.057018	-39.9403	54.509	0.137005
 226	1	3	-0.18182	-37.502	53.9244	1.37536
 227	1	3	-0.14326	-37.8732	55.2615	1.14754
 228	1	3	0.043342	-39.1048	55.5759	0.529874
 229	1	6	0.163244	-40.234	52.374	0.0480891
 230	1	6	0.101178	-40.9021	54.7108	-0.323719
 231	1	6	0.165346	-37.0043	48.9246	4.41658
 232	1	6	0.135111	-36.8396	46.5267	3.70115
 233	1	6	0.171751	-37.7713	47.683	-0.390238
 234	1	5	-0.478239	-38.3375	50.548	-0.839061
 235	1	5	-0.481107	-37.5734	51.7145	3.57204
 236	1	5	-0.49957	-36.4363	44.7341	1.84608
 237	1	6	0.151248	-36.5639	53.7097	1.882
 238	1	6	0.146138	-37.2035	56.0469	1.48658
 239	1	7	0.044043	-39.5819	57.03	0.330538
 240	1	7	-0.215975	-40.0739	57.2697	-1.12362
 241	1	8	0.063789	-40.9922	56.7116	-1.34093
 242	1	8	0.072206	-39.3111	56.9638	-1.85062
 243	1	8	0.045489	-40.2887	58.3332	-1.29182
 244	1	7	0.005306	-40.7073	57.3711	1.36036
 245	1	7	0.164932	-40.0651	58.1658	2.53979
 246	1	8	0.005277	-41.2378	56.4761	1.71126
 247	1	8	0.017604	-41.4602	58.0038	0.871473
 248	1	3	0.008363	-38.7887	58.6838	1.90674
 249	1	7	-0.151488	-39.7377	57.2355	3.73255
 250	1	7	-0.269275	-40.9941	59.3106	3.01264
 251	1	3	0.096378	-38.5231	58.0613	0.693815
 252	1	8	0.063418	-41.9555	58.9133	3.3623
 253	1	8	0.061085	-41.1937	60.0163	2.19603
 254	1	8	0.065045	-40.5408	59.8719	3.83897
 255	1	3	-0.142025	-37.9231	59.6654	2.41235
 256	1	3	-0.448546	-37.3905	58.4075	-0.0611254
 257	1	3	0.277842	-36.5073	59.4032	0.412869
 258	1	3	-0.409063	-36.787	60.0189	1.65782
 259	1	6	0.203923	-37.2094	57.9203	-1.01562
 260	1	8	0.016419	-39.0831	56.4104	3.4278
 261	1	8	0.049665	-40.6531	56.8014	4.15413
 262	1	8	0.035794	-39.2274	57.7891	4.53084
 263	1	6	0.161583	-38.1291	60.1421	3.36833
 264	1	6	0.199011	-36.1069	60.7743	2.04703
 265	1	1	0.463181	-22.9373	37.6504	2.73141
 266	1	2	0.074399	-23.227	36.7098	1.7435
 267	1	3	0.034296	-24.5804	37.068	1.25469
 268	1	2	0.051625	-23.9718	38.5631	2.93347
 269	1	3	0.019035	-25.0262	38.1666	1.96478
 270	1	5	-0.389616	-22.5206	35.8085	1.31985
 271	1	5	-0.380104	-24.0157	39.5058	3.70668
 272	1	3	-0.045097	-25.3496	36.483	0.243248
 273	1	3	-0.056032	-26.2803	38.7337	1.71704
 274	1	3	-0.174781	-27.0744	38.1618	0.700943
 275	1	3	-0.129342	-26.6095	37.0508	-0.0561982
 276	1	6	0.168842	-24.9711	35.6204	-0.303391
 277	1	6	0.15893	-26.6239	39.5884	2.29629
 278	1	6	0.147704	-28.0614	38.5801	0.512146
 279	1	2	0.584577	-27.4448	36.4306	-1.14814
 280	1	3	-0.046755	-28.4046	37.2908	-1.93112
 281	1	3	-0.110868	-29.5996	36.7201	-2.42976
 282	1	3	-0.046132	-30.4729	37.5359	-3.16228
 283	1	3	-0.135873	-28.1061	38.6511	-2.21563
 284	1	3	-0.117662	-28.9942	39.4505	-2.96243
 285	1	3	-0.064457	-30.177	38.8597	-3.42053
 286	1	2	0.492569	-31.2831	39.434	-4.22845
 287	1	1	-0.072087	-32.1953	38.4022	-4.40456
 288	1	2	0.477555	-31.7866	37.2256	-3.78936
 289	1	3	0.042617	-33.4123	38.5505	-5.12203
 290	1	3	-0.20367	-33.4091	39.0883	-6.41989
 291	1	3	-0.057018	-34.6152	39.3052	-7.10577
 292	1	3	-0.18182	-34.6371	38.1983	-4.53224
 293	1	3	-0.14326	-35.8433	38.4142	-5.2184
 294	1	3	0.043342	-35.855	38.9995	-6.50407
 295	1	6	0.163244	-32.47	39.3654	-6.89148
 296	1	6	0.101178	-34.5698	39.7326	-8.10132
 297	1	6	0.165346	-28.7707	40.492	-3.18781
 298	1	6	0.135111	-27.1712	39.089	-1.87354
 299	1	6	0.171751	-29.8432	35.6738	-2.24846
 300	1	5	-0.478239	-32.3668	36.1544	-3.75105
 301	1	5	-0.481107	-31.346	40.578	-4.64558
 302	1	5	-0.49957	-27.333	35.2428	-1.40265
 303	1	6	0.151248	-34.6588	37.7723	-3.53185
 304	1	6	0.146138	-36.7756	38.1454	-4.72863
 305	1	7	0.044043	-37.1961	39.2922	-7.20893
 306	1	7	-0.215975	-37.1014	40.4227	-8.27119
 307	1	8	0.063789	-36.4999	40.1181	-9.1363
 308	1	8	0.072206	-36.6538	41.3272	-7.83899
 309	1	8	0.045489	-38.0967	40.6936	-8.64553
 310	1	7	0.005306	-37.7925	37.9945	-7.84096
 311	1	7	0.164932	-39.2919	37.8754	-7.41411
 312	1	8	0.005277	-37.2337	37.1235	-7.47306
 313	1	8	0.017604	-37.6801	37.9861	-8.93324
 314	1	3	0.008363	-39.4098	38.9122	-6.31291
 315	1	7	-0.151488	-39.6049	36.4512	-6.89512
 316	1	7	-0.269275	-40.2371	38.2227	-8.58927
 317	1	3	0.096378	-38.2641	39.6865	-6.20518
 318	1	8	0.063418	-40.0398	39.2328	-8.96911
 319	1	8	0.061085	-41.2868	38.1835	-8.27202
 320	1	8	0.065045	-40.108	37.5159	-9.41884
 321	1	3	-0.142025	-40.5008	39.1316	-5.45691
 322	1	3	-0.448546	-38.1579	40.6918	-5.23258
 323	1	3	0.277842	-39.2274	40.9217	-4.34072
 324	1	3	-0.409063	-40.3995	40.137	-4.47301
 325	1	6	0.203923	-37.2371	41.2642	-5.15009
 326	1	8	0.016419	-39.4238	35.7021	-7.67663
 327	1	8	0.049665	-40.6526	36.3657	-6.58152
 328	1	8	0.035794	-38.9735	36.2015	-6.03257
 329	1	6	0.161583	-41.404	38.5326	-5.55226
 330	1	6	0.199011	-41.2414	40.3163	-3.80709
 331	1	1	0.463181	-21.6198	20.3582	-3.47179
 332	1	2	0.074399	-20.3681	20.9738	-3.38326
 333	1	3	0.034296	-20.5987	22.2201	-2.61051
 334	1	2	0.051625	-22.6216	21.0918	-2.8305
 335	1	3	0.019035	-21.9387	22.292	-2.28723
 336	1	5	-0.389616	-19.3009	20.6096	-3.85077
 337	1	5	-0.380104	-23.8074	20.8287	-2.71101
 338	1	3	-0.045097	-19.698	23.2227	-2.23336
 339	1	3	-0.056032	-22.4625	23.3813	-1.58483
 340	1	3	-0.174781	-21.5757	24.4086	-1.20083
 341	1	3	-0.129342	-20.1859	24.3294	-1.49748
 342	1	6	0.168842	-18.6474	23.1432	-2.50987
 343	1	6	0.15893	-23.5263	23.4327	-1.36176
 344	1	6	0.147704	-21.9831	25.2785	-0.690314
 345	1	2	0.584577	-19.2194	25.4256	-1.11226
 346	1	3	-0.046755	-19.5328	26.3491	0.0396708
 347	1	3	-0.110868	-19.0786	27.6892	-0.0084574
 348	1	3	-0.046132	-19.3747	28.5354	1.06911
 349	1	3	-0.135873	-20.2277	25.8882	1.19084
 350	1	3	-0.117662	-20.5156	26.7565	2.26304
 351	1	3	-0.064457	-20.0787	28.0827	2.16646
 352	1	2	0.492569	-20.2049	29.2041	3.13143
 353	1	1	-0.072087	-19.5448	30.2811	2.55113
 354	1	2	0.477555	-19.0263	29.9646	1.30049
 355	1	3	0.042617	-19.402	31.5464	3.18743
 356	1	3	-0.20367	-18.995	31.6159	4.53031
 357	1	3	-0.057018	-18.9139	32.8515	5.19002
 358	1	3	-0.18182	-19.6789	32.7417	2.50134
 359	1	3	-0.14326	-19.5899	33.9808	3.16056
 360	1	3	0.043342	-19.246	34.0525	4.53015
 361	1	6	0.163244	-18.7634	30.7063	5.07787
 362	1	6	0.101178	-18.6015	32.8634	6.22863
 363	1	6	0.165346	-21.0477	26.4115	3.14813
 364	1	6	0.135111	-20.5332	24.8468	1.26453
 365	1	6	0.171751	-18.512	28.0619	-0.861316
 366	1	5	-0.478239	-18.3938	30.6798	0.543114
 367	1	5	-0.481107	-20.7604	29.1509	4.21564
 368	1	5	-0.49957	-18.1896	25.5756	-1.74926
 369	1	6	0.151248	-19.9737	32.7154	1.45451
 370	1	6	0.146138	-19.8082	34.8805	2.59194
 371	1	7	0.044043	-19.2016	35.3893	5.30233
 372	1	7	-0.215975	-19.8519	35.2588	6.70867
 373	1	8	0.063789	-19.2649	34.6196	7.37817
 374	1	8	0.072206	-20.8608	34.8336	6.62938
 375	1	8	0.045489	-19.9443	36.2381	7.19435
 376	1	7	0.005306	-17.7337	35.9098	5.41268
 377	1	7	0.164932	-17.7262	37.4466	5.13084
 378	1	8	0.005277	-17.1197	35.4001	4.65776
 379	1	8	0.017604	-17.2853	35.6684	6.38536
 380	1	3	0.008363	-19.0933	37.6728	4.5148
 381	1	7	-0.151488	-16.5914	37.8242	4.14791
 382	1	7	-0.269275	-17.5714	38.2568	6.44036
 383	1	3	0.096378	-19.8932	36.5404	4.5903
 384	1	8	0.063418	-17.6197	39.3347	6.24075
 385	1	8	0.061085	-16.6076	38.045	6.92048
 386	1	8	0.065045	-18.3674	38.0133	7.1543
 387	1	3	-0.142025	-19.5722	38.8489	3.91634
 388	1	3	-0.448546	-21.1952	36.5415	4.06633
 389	1	3	0.277842	-21.6818	37.6901	3.40741
 390	1	3	-0.409063	-20.8659	38.8458	3.35735
 391	1	6	0.203923	-21.7977	35.6382	4.11788
 392	1	8	0.016419	-16.5899	38.9015	3.93965
 393	1	8	0.049665	-16.7108	37.2975	3.19208
 394	1	8	0.035794	-15.6106	37.5585	4.56221
 395	1	6	0.161583	-18.9456	39.7372	3.87081
 396	1	6	0.199011	-21.2386	39.7447	2.87039
 397	1	1	0.463181	-17.9545	9.53828	10.9687
 398	1	2	0.074399	-17.5255	10.2955	9.87825
 399	1	3	0.034296	-18.7491	10.9538	9.35621
 400	1	2	0.051625	-19.3256	9.63673	11.1919
 401	1	3	0.019035	-19.8207	10.555	10.1339
 402	1	5	-0.389616	-16.3956	10.4149	9.4319
 403	1	5	-0.380104	-19.9938	9.10305	12.0615
 404	1	3	-0.045097	-18.9006	11.857	8.29536
 405	1	3	-0.056032	-21.1126	11.0305	9.89204
 406	1	3	-0.174781	-21.2906	11.9345	8.82503
 407	1	3	-0.129342	-20.1998	12.3434	8.01274
 408	1	6	0.168842	-18.0288	12.1837	7.73183
 409	1	6	0.15893	-21.9443	10.7193	10.5207
 410	1	6	0.147704	-22.2845	12.3352	8.62866
 411	1	2	0.584577	-20.447	13.3604	6.9267
 412	1	3	-0.046755	-19.9078	13.1642	5.5242
 413	1	3	-0.110868	-20.1576	14.1767	4.56476
 414	1	3	-0.046132	-19.7675	13.9638	3.23714
 415	1	3	-0.135873	-19.2576	11.9683	5.10694
 416	1	3	-0.117662	-18.857	11.783	3.76556
 417	1	3	-0.064457	-19.1362	12.8021	2.84628
 418	1	2	0.492569	-18.9562	12.8493	1.36892
 419	1	1	-0.072087	-19.5328	14.0452	0.955291
 420	1	2	0.477555	-20.0129	14.7903	2.02649
 421	1	3	0.042617	-19.7032	14.4204	-0.408453
 422	1	3	-0.20367	-18.6452	14.3204	-1.32947
 423	1	3	-0.057018	-18.832	14.6817	-2.67618
 424	1	3	-0.18182	-20.9542	14.8738	-0.862043
 425	1	3	-0.14326	-21.1406	15.2356	-2.20498
 426	1	3	0.043342	-20.0813	15.1574	-3.13321
 427	1	6	0.163244	-17.6748	13.9524	-1.00577
 428	1	6	0.101178	-17.9918	14.5846	-3.35546
 429	1	6	0.165346	-18.3871	10.8572	3.437
 430	1	6	0.135111	-19.0981	11.1504	5.80292
 431	1	6	0.171751	-20.6901	15.0893	4.83189
 432	1	5	-0.478239	-20.5809	15.8687	2.00289
 433	1	5	-0.481107	-18.458	11.9746	0.681218
 434	1	5	-0.49957	-21.1823	14.304	7.1677
 435	1	6	0.151248	-21.7901	14.9531	-0.171023
 436	1	6	0.146138	-22.1199	15.5853	-2.5224
 437	1	7	0.044043	-20.3276	15.5763	-4.59782
 438	1	7	-0.215975	-19.0248	15.8445	-5.40026
 439	1	8	0.063789	-18.442	14.926	-5.54225
 440	1	8	0.072206	-18.3938	16.5816	-4.88679
 441	1	8	0.045489	-19.2528	16.2454	-6.39583
 442	1	7	0.005306	-21.2153	14.5235	-5.33846
 443	1	7	0.164932	-22.3689	15.2752	-6.07899
 444	1	8	0.005277	-21.6441	13.8282	-4.60443
 445	1	8	0.017604	-20.6252	13.9058	-6.02824
 446	1	3	0.008363	-22.3049	16.6617	-5.46885
 447	1	7	-0.151488	-23.7348	14.5957	-5.81617
 448	1	7	-0.269275	-22.1063	15.3426	-7.60285
 449	1	3	0.096378	-21.1884	16.8254	-4.66193
 450	1	8	0.063418	-21.15	15.8351	-7.81748
 451	1	8	0.061085	-22.8957	15.9108	-8.11087
 452	1	8	0.065045	-22.0772	14.3373	-8.04173
 453	1	3	-0.142025	-23.2165	17.7133	-5.64566
 454	1	3	-0.448546	-20.949	18.0359	-3.99394
 455	1	3	0.277842	-21.8485	19.1148	-4.14647
 456	1	3	-0.409063	-22.9793	18.9337	-4.98219
 457	1	6	0.203923	-20.0658	18.1357	-3.36775
 458	1	8	0.016419	-23.9643	14.577	-4.74291
 459	1	8	0.049665	-23.7325	13.5609	-6.18177
 460	1	8	0.035794	-24.5468	15.1306	-6.32435
 461	1	6	0.161583	-24.0904	17.5842	-6.28079
 462	1	6	0.199011	-23.6906	19.7481	-5.10673
 463	1	1	0.463181	-3.24534	10.1406	-0.00676498
 464	1	2	0.074399	-3.81462	9.62232	1.15848
 465	1	3	0.034296	-4.84032	10.6131	1.56323
 466	1	2	0.051625	-3.81139	11.3626	-0.381552
 467	1	3	0.019035	-4.84003	11.6471	0.648289
 468	1	5	-0.389616	-3.56408	8.57801	1.73841
 469	1	5	-0.380104	-3.53146	12.0783	-1.32976
 470	1	3	-0.045097	-5.69718	10.6071	2.66781
 471	1	3	-0.056032	-5.69574	12.7443	0.78516
 472	1	3	-0.174781	-6.57293	12.7583	1.88869
 473	1	3	-0.129342	-6.59461	11.6901	2.82454
 474	1	6	0.168842	-5.64349	9.79058	3.38488
 475	1	6	0.15893	-5.67242	13.5592	0.0645714
 476	1	6	0.147704	-7.24236	13.6069	2.02521
 477	1	2	0.584577	-7.52572	11.7596	4.00676
 478	1	3	-0.046755	-8.09771	10.4941	4.59911
 479	1	3	-0.110868	-8.51984	10.5099	5.94822
 480	1	3	-0.046132	-9.1345	9.36663	6.47084
 481	1	3	-0.135873	-8.31611	9.32692	3.8152
 482	1	3	-0.117662	-8.9396	8.18601	4.36366
 483	1	3	-0.064457	-9.3457	8.24024	5.70281
 484	1	2	0.492569	-10.1456	7.27701	6.50714
 485	1	1	-0.072087	-10.4023	7.91783	7.71468
 486	1	2	0.477555	-9.7767	9.15697	7.79176
 487	1	3	0.042617	-11.3322	7.44477	8.68361
 488	1	3	-0.20367	-11.3406	6.10293	9.10291
 489	1	3	-0.057018	-12.3157	5.64705	10.0084
 490	1	3	-0.18182	-12.3067	8.31888	9.19487
 491	1	3	-0.14326	-13.2732	7.86718	10.1038
 492	1	3	0.043342	-13.304	6.51724	10.5168
 493	1	6	0.163244	-10.6069	5.40398	8.7094
 494	1	6	0.101178	-12.309	4.60287	10.3071
 495	1	6	0.165346	-9.14798	7.30567	3.75736
 496	1	6	0.135111	-8.05371	9.31634	2.76012
 497	1	6	0.171751	-8.41422	11.4042	6.56201
 498	1	5	-0.478239	-9.80041	9.96341	8.70552
 499	1	5	-0.481107	-10.5646	6.19935	6.12027
 500	1	5	-0.49957	-7.82777	12.8451	4.47475
 501	1	6	0.151248	-12.3272	9.36048	8.88303
 502	1	6	0.146138	-13.9975	8.58895	10.4675
 503	1	7	0.044043	-14.3863	5.97463	11.4732
 504	1	7	-0.215975	-15.1792	4.82367	10.7982
 505	1	8	0.063789	-15.5885	5.14603	9.83243
 506	1	8	0.072206	-16.0196	4.50476	11.4286
 507	1	8	0.045489	-14.5438	3.94773	10.6195
 508	1	7	0.005306	-13.7576	5.5014	12.8236
 509	1	7	0.164932	-13.9375	6.64789	13.8649
 510	1	8	0.005277	-12.7066	5.20251	12.7194
 511	1	8	0.017604	-14.2986	4.61339	13.1772
 512	1	3	0.008363	-15.1043	7.41772	13.2775
 513	1	7	-0.151488	-12.6804	7.55001	13.9149
 514	1	7	-0.269275	-14.2363	6.08838	15.2765
 515	1	3	0.096378	-15.3423	7.056	11.9576
 516	1	8	0.063418	-14.3638	6.89971	16.0037
 517	1	8	0.061085	-13.4127	5.45158	15.6239
 518	1	8	0.065045	-15.155	5.48812	15.2757
 519	1	3	-0.142025	-15.8591	8.42979	13.8913
 520	1	3	-0.448546	-16.3234	7.71192	11.1961
 521	1	3	0.277842	-17.064	8.76593	11.7722
 522	1	3	-0.409063	-16.8394	9.09825	13.1299
 523	1	6	0.203923	-16.4549	7.45383	10.1491
 524	1	8	0.016419	-11.8036	6.9848	14.2553
 525	1	8	0.049665	-12.8298	8.39078	14.6039
 526	1	8	0.035794	-12.4499	7.96642	12.9264
 527	1	6	0.161583	-15.6667	8.71044	14.9247
 528	1	6	0.199011	-17.4145	9.9005	13.5878
 529	1	1	0.463181	8.5219	17.141	-2.01361
 530	1	2	0.074399	7.77646	16.4657	-2.97865
 531	1	3	0.034296	7.29262	17.5236	-3.90285
 532	1	2	0.051625	8.60204	18.5111	-2.24796
 533	1	3	0.019035	7.7876	18.7383	-3.46821
 534	1	5	-0.389616	7.50152	15.2782	-3.03197
 535	1	5	-0.380104	9.157	19.3647	-1.57626
 536	1	3	-0.045097	6.44076	17.4274	-5.01131
 537	1	3	-0.056032	7.47293	19.9295	-4.12617
 538	1	3	-0.174781	6.60353	19.8588	-5.23327
 539	1	3	-0.129342	6.05512	18.6225	-5.67225
 540	1	6	0.168842	6.09807	16.446	-5.3309
 541	1	6	0.15893	7.87679	20.8779	-3.77801
 542	1	6	0.147704	6.34151	20.7788	-5.75435
 543	1	2	0.584577	5.11784	18.6288	-6.86257
 544	1	3	-0.046755	4.11113	17.5208	-7.08835
 545	1	3	-0.110868	3.56752	16.7562	-6.02422
 546	1	3	-0.046132	2.66699	15.7268	-6.33459
 547	1	3	-0.135873	3.66702	17.2686	-8.41447
 548	1	3	-0.117662	2.74563	16.2414	-8.70077
 549	1	3	-0.064457	2.27443	15.4722	-7.632
 550	1	2	0.492569	1.38092	14.2846	-7.62454
 551	1	1	-0.072087	1.31185	13.8695	-6.29948
 552	1	2	0.477555	2.03082	14.7104	-5.45531
 553	1	3	0.042617	0.678366	12.6667	-5.8687
 554	1	3	-0.20367	-0.0707018	12.6333	-4.6809
 555	1	3	-0.057018	-0.603152	11.425	-4.20342
 556	1	3	-0.18182	0.834729	11.4737	-6.59749
 557	1	3	-0.14326	0.283572	10.2689	-6.13057
 558	1	3	0.043342	-0.407451	10.211	-4.90156
 559	1	6	0.163244	-0.215915	13.5403	-4.09915
 560	1	6	0.101178	-1.15362	11.4561	-3.27062
 561	1	6	0.165346	2.42342	16.0335	-9.71973
 562	1	6	0.135111	4.05619	17.8702	-9.23429
 563	1	6	0.171751	3.83137	16.939	-4.98481
 564	1	5	-0.478239	2.19422	14.6166	-4.25115
 565	1	5	-0.481107	0.887477	13.758	-8.60679
 566	1	5	-0.49957	5.17736	19.5508	-7.66038
 567	1	6	0.151248	1.39825	11.4718	-7.52714
 568	1	6	0.146138	0.417665	9.37352	-6.72782
 569	1	7	0.044043	-0.932068	8.86022	-4.35991
 570	1	7	-0.215975	-2.22324	8.45602	-5.11539
 571	1	8	0.063789	-2.01686	8.27892	-6.1782
 572	1	8	0.072206	-2.97855	9.24922	-5.0485
 573	1	8	0.045489	-2.65765	7.53991	-4.69459
 574	1	7	0.005306	0.145334	7.72473	-4.44781
 575	1	7	0.164932	0.949893	7.72695	-3.11461
 576	1	8	0.005277	0.804849	7.79055	-5.3195
 577	1	8	0.017604	-0.374324	6.76093	-4.5367
 578	1	3	0.008363	-0.07137	8.31804	-2.16488
 579	1	7	-0.151488	2.19935	8.63581	-3.20963
 580	1	7	-0.269275	1.37253	6.29254	-2.71463
 581	1	3	0.096378	-1.13527	8.89654	-2.8478
 582	1	8	0.063418	1.94115	6.29628	-1.7765
 583	1	8	0.061085	2.00589	5.84256	-3.49036
 584	1	8	0.065045	0.495673	5.64779	-2.57406
 585	1	3	-0.142025	-0.0281491	8.32327	-0.763387
 586	1	3	-0.448546	-2.21647	9.45583	-2.14626
 587	1	3	0.277842	-2.19195	9.49984	-0.733688
 588	1	3	-0.409063	-1.08587	8.92817	-0.0577029
 589	1	6	0.203923	-3.03604	9.91003	-2.69605
 590	1	8	0.016419	2.7304	8.66994	-2.24994
 591	1	8	0.049665	1.92858	9.66484	-3.47595
 592	1	8	0.035794	2.89758	8.26148	-3.96907
 593	1	6	0.161583	0.814114	7.87984	-0.236223
 594	1	6	0.199011	-1.05096	8.94591	1.03006
 595	1	1	0.463181	16.6116	2.10279	-8.73671
 596	1	2	0.074399	16.2483	3.12902	-7.85963
 597	1	3	0.034296	15.4316	4.06833	-8.66982
 598	1	2	0.051625	16.1201	2.3089	-10.0283
 599	1	3	0.019035	15.358	3.57999	-9.95912
 600	1	5	-0.389616	16.4931	3.24195	-6.66932
 601	1	5	-0.380104	16.2594	1.61245	-11.0203
 602	1	3	-0.045097	14.8056	5.26534	-8.29853
 603	1	3	-0.056032	14.6561	4.25978	-10.9587
 604	1	3	-0.174781	14.0218	5.46965	-10.6102
 605	1	3	-0.129342	14.0806	5.97922	-9.2853
 606	1	6	0.168842	14.9139	5.63231	-7.28012
 607	1	6	0.15893	14.6171	3.86621	-11.9725
 608	1	6	0.147704	13.4863	6.02758	-11.3776
 609	1	2	0.584577	13.4432	7.31334	-8.9791
 610	1	3	-0.046755	13.0393	7.65515	-7.56785
 611	1	3	-0.110868	13.2253	8.97933	-7.10724
 612	1	3	-0.046132	12.8177	9.29783	-5.80576
 613	1	3	-0.135873	12.4251	6.69648	-6.71752
 614	1	3	-0.117662	12.0068	7.04474	-5.41489
 615	1	3	-0.064457	12.2198	8.36182	-4.98596
 616	1	2	0.492569	11.8939	9.02348	-3.69277
 617	1	1	-0.072087	12.3412	10.3329	-3.81517
 618	1	2	0.477555	12.9092	10.58	-5.0583
 619	1	3	0.042617	12.2545	11.3027	-2.77902
 620	1	3	-0.20367	11.0272	11.578	-2.15247
 621	1	3	-0.057018	10.9498	12.5416	-1.13256
 622	1	3	-0.18182	13.4022	11.9981	-2.3635
 623	1	3	-0.14326	13.3265	12.9573	-1.34009
 624	1	3	0.043342	12.0952	13.2539	-0.714904
 625	1	6	0.163244	10.1294	11.0431	-2.45186
 626	1	6	0.101178	9.98781	12.7339	-0.664449
 627	1	6	0.165346	11.5259	6.32103	-4.7587
 628	1	6	0.135111	12.2448	5.68532	-7.07693
 629	1	6	0.171751	13.6755	9.73944	-7.74511
 630	1	5	-0.478239	13.4148	11.6122	-5.46399
 631	1	5	-0.481107	11.3577	8.49852	-2.73237
 632	1	5	-0.49957	13.3016	8.14048	-9.8647
 633	1	6	0.151248	14.3593	11.7988	-2.83929
 634	1	6	0.146138	14.239	13.4654	-1.04739
 635	1	7	0.044043	11.9771	14.3072	0.406843
 636	1	7	-0.215975	13.1839	15.2854	0.466416
 637	1	8	0.063789	13.3553	15.7549	-0.51071
 638	1	8	0.072206	14.1039	14.7718	0.772245
 639	1	8	0.045489	13.0057	16.0916	1.18816
 640	1	7	0.005306	11.7692	13.623	1.797
 641	1	7	0.164932	10.6379	14.3842	2.56031
 642	1	8	0.005277	12.6998	13.5817	2.37834
 643	1	8	0.017604	11.4623	12.5799	1.64292
 644	1	3	0.008363	9.99207	15.1981	1.45484