pySIMM System Object

2840 atoms
3140 bonds
5547 angles
8897 dihedrals
903 impropers

8 atom types
10 bond types
17 angle types
9 dihedral types
4 improper types

-212.809629 212.809629 xlo xhi
-212.809629 212.809629 ylo yhi
-212.809629 212.809629 zlo zhi

Masses

   1	14.01	# n
   2	12.01	# c
   3	12.01	# ca
   4	1.008	# hn
   5	16.0	# o
   6	1.008	# ha
   7	12.01	# c3
   8	1.008	# hc

Pair Coeffs

   1	0.17	3.249998523775958	# n
   2	0.086	3.3996695084235347	# c
   3	0.086	3.3996695084235347	# ca
   4	0.0157	1.069078461768407	# hn
   5	0.21	2.959921901149463	# o
   6	0.015	2.59964245953351	# ha
   7	0.1094	3.3996695084235347	# c3
   8	0.0157	2.649532787749369	# hc

Bond Coeffs

   1	461.1	1.3984	# ca,ca
   2	427.6	1.3789	# c,n
   3	345.9	1.4906	# c,ca
   4	300.9	1.5375	# c3,c3
   5	345.8	1.086	# ca,ha
   6	384.2	1.4121	# ca,n
   7	637.7	1.2183	# c,o
   8	321.0	1.5156	# c3,ca
   9	330.6	1.0969	# c3,hc
  10	403.2	1.0129	# hn,n

Angle Coeffs

   1	68.72	122.6	# ca,c,o
   2	62.86	111.51	# c3,c3,c3
   3	63.82	123.71	# c,n,ca
   4	67.87	120.19	# ca,ca,n
   5	67.68	115.25	# ca,c,n
   6	63.0	118.11	# ca,c,ca
   7	63.56	112.24	# ca,c3,ca
   8	63.15	112.07	# c3,c3,ca
   9	46.34	109.8	# c3,c3,hc
  10	74.22	123.05	# n,c,o
  11	48.33	117.55	# c,n,hn
  12	64.28	120.33	# c,ca,ca
  13	39.4	107.58	# hc,c3,hc
  14	66.62	120.02	# ca,ca,ca
  15	63.53	120.77	# c3,ca,ca
  16	63.74	127.08	# c,n,c
  17	48.18	119.88	# ca,ca,ha

Dihedral Coeffs

   1	1	2.5	2	180	# X,c,n,X
   2	1	0.45	2	180	# X,ca,n,X
   3	3	0.18	3	0	0.25	2	180	0.2	1	180	# c3,c3,c3,c3
   4	2	2.5	2	180	2.0	1	0	# hn,n,c,o
   5	1	3.625	2	180	# X,ca,ca,X
   6	1	0.16	3	0	# hc,c3,c3,c3
   7	1	1.0	2	180	# X,c,ca,X
   8	1	0.15555555555555556	3	0	# X,c3,c3,X
   9	1	0.0	2	0	# X,c3,ca,X

Improper Coeffs

   1	10.5	-1	2	# c,X,X,o
   2	1.1	-1	2	# ca,X,X,ha
   3	1.1	-1	2	# ca,ca,ca,c3
   4	1.1	-1	2	# n,X,X,hn

Atoms

   1	1	1	0.463181	78.0269	15.3444	5.59075
   2	1	2	0.074399	78.0875	14.8372	4.29439
   3	1	3	0.034296	76.7279	14.3087	4.02467
   4	1	2	0.051625	76.7686	15.21	6.17181
   5	1	3	0.019035	75.9413	14.5349	5.13854
   6	1	5	-0.389616	79.0588	14.7399	3.56166
   7	1	5	-0.380104	76.4262	15.4926	7.30792
   8	1	3	-0.045097	76.2441	13.6208	2.90609
   9	1	3	-0.056032	74.6108	14.1077	5.18788
  10	1	3	-0.174781	74.1014	13.4119	4.07192
  11	1	3	-0.129342	74.916	13.1315	2.94203
  12	1	6	0.168842	76.8976	13.4566	2.05286
  13	1	6	0.15893	74.0039	14.2868	6.0721
  14	1	6	0.147704	73.0763	13.0458	4.09686
  15	1	2	0.584577	74.3417	12.3191	1.80744
  16	1	3	-0.046755	75.2058	11.356	1.01756
  17	1	3	-0.110868	76.4183	10.821	1.52802
  18	1	3	-0.046132	77.1154	9.87613	0.758387
  19	1	3	-0.135873	74.7412	10.915	-0.249693
  20	1	3	-0.117662	75.4556	9.9667	-1.0073
  21	1	3	-0.064457	76.6448	9.46363	-0.470569
  22	1	2	0.492569	77.5861	8.45524	-1.01809
  23	1	1	-0.072087	78.5963	8.31623	-0.0703651
  24	1	2	0.477555	78.3768	9.13073	1.03928
  25	1	3	0.042617	79.7045	7.42613	-0.218747
  26	1	3	-0.20367	81.0019	7.8091	0.169117
  27	1	3	-0.057018	82.0986	6.95359	-0.040332
  28	1	3	-0.18182	79.527	6.15269	-0.790513
  29	1	3	-0.14326	80.6202	5.29801	-1.00002
  30	1	3	0.043342	81.928	5.69097	-0.650172
  31	1	6	0.163244	81.1715	8.78587	0.615507
  32	1	6	0.101178	83.0823	7.2997	0.257724
  33	1	6	0.165346	75.0935	9.62346	-1.97465
  34	1	6	0.135111	73.8055	11.3073	-0.644398
  35	1	6	0.171751	76.7949	11.0857	2.51276
  36	1	5	-0.478239	79.0599	9.23116	2.04641
  37	1	5	-0.481107	77.4691	7.88961	-2.09246
  38	1	5	-0.49957	73.1542	12.4247	1.5413
  39	1	6	0.151248	78.5394	5.82706	-1.10555
  40	1	6	0.146138	80.4502	4.33178	-1.46873
  41	1	7	0.044043	83.1066	4.74505	-0.964868
  42	1	7	-0.215975	84.5017	5.41842	-0.849087
  43	1	8	0.063789	84.5612	6.30658	-1.49159
  44	1	8	0.072206	85.2952	4.73038	-1.16804
  45	1	8	0.045489	84.7226	5.72175	0.181211
  46	1	7	0.005306	83.0472	3.46216	-0.0739184
  47	1	7	0.164932	83.1797	2.20315	-0.987457
  48	1	8	0.005277	82.0832	3.42952	0.44563
  49	1	8	0.017604	83.8161	3.47066	0.7086
  50	1	3	0.008363	83.001	2.78127	-2.37631
  51	1	7	-0.151488	82.0852	1.15936	-0.655565
  52	1	7	-0.269275	84.5797	1.55852	-0.847422
  53	1	3	0.096378	82.9692	4.17065	-2.36491
  54	1	8	0.063418	85.3713	2.27827	-1.08994
  55	1	8	0.061085	84.6858	0.70323	-1.52686
  56	1	8	0.065045	84.7469	1.20014	0.176349
  57	1	3	-0.142025	82.8834	2.06936	-3.58148
  58	1	3	-0.448546	82.8146	4.89735	-3.55666
  59	1	3	0.277842	82.6926	4.20162	-4.76999
  60	1	3	-0.409063	82.7266	2.79471	-4.77928
  61	1	6	0.203923	82.7822	5.9817	-3.544
  62	1	8	0.016419	81.0823	1.58511	-0.789672
  63	1	8	0.049665	82.1751	0.818374	0.383637
  64	1	8	0.035794	82.1682	0.280311	-1.30711
  65	1	6	0.161583	82.9144	0.981983	-3.58589
  66	1	6	0.199011	82.6313	2.27039	-5.72556
  67	1	1	0.463181	76.0823	4.47427	0.835531
  68	1	2	0.074399	77.0367	5.30444	1.4171
  69	1	3	0.034296	78.166	4.41077	1.76829
  70	1	2	0.051625	76.4761	3.14146	0.779994
  71	1	3	0.019035	77.8255	3.12142	1.40464
  72	1	5	-0.389616	76.9532	6.49846	1.65474
  73	1	5	-0.380104	75.8554	2.18374	0.350429
  74	1	3	-0.045097	79.3989	4.71741	2.35705
  75	1	3	-0.056032	78.6896	2.05079	1.64475
  76	1	3	-0.174781	79.9254	2.32951	2.26314
  77	1	3	-0.129342	80.299	3.65465	2.62249
  78	1	6	0.168842	79.6368	5.7574	2.56746
  79	1	6	0.15893	78.4097	1.03865	1.36057
  80	1	6	0.147704	80.6137	1.50578	2.44813
  81	1	2	0.584577	81.6752	3.89262	3.20524
  82	1	3	-0.046755	82.1261	5.28256	3.56742
  83	1	3	-0.110868	81.41	6.08986	4.48644
  84	1	3	-0.046132	81.9381	7.35047	4.80947
  85	1	3	-0.135873	83.351	5.74969	3.02848
  86	1	3	-0.117662	83.8523	7.02417	3.34835
  87	1	3	-0.064457	83.1153	7.80395	4.2444
  88	1	2	0.492569	83.4138	9.14775	4.7959
  89	1	1	-0.072087	82.3929	9.41997	5.69426
  90	1	2	0.477555	81.4586	8.39297	5.7621
  91	1	3	0.042617	82.3176	10.6324	6.42874
  92	1	3	-0.20367	82.2797	10.6357	7.83388
  93	1	3	-0.057018	82.2143	11.851	8.54152
  94	1	3	-0.18182	82.323	11.8561	5.74279
  95	1	3	-0.14326	82.257	13.066	6.44731
  96	1	3	0.043342	82.1659	13.0861	7.85654
  97	1	6	0.163244	82.2952	9.69731	8.38097
  98	1	6	0.101178	82.1712	11.8168	9.62572
  99	1	6	0.165346	84.7932	7.38592	2.93663
 100	1	6	0.135111	83.921	5.10894	2.36121
 101	1	6	0.171751	80.4927	5.74203	4.95812
 102	1	5	-0.478239	80.4733	8.31776	6.47805
 103	1	5	-0.481107	84.3739	9.84241	4.5115
 104	1	5	-0.49957	82.4819	2.97824	3.25959
 105	1	6	0.151248	82.3801	11.8732	4.6566
 106	1	6	0.146138	82.2527	13.9949	5.88206
 107	1	7	0.044043	81.9722	14.4369	8.58218
 108	1	7	-0.215975	81.3849	14.2999	10.0137
 109	1	8	0.063789	80.4535	13.7205	10.0063
 110	1	8	0.072206	81.1534	15.2837	10.4402
 111	1	8	0.045489	82.0913	13.8063	10.6927
 112	1	7	0.005306	83.2961	15.2667	8.60913
 113	1	7	0.164932	82.9828	16.7207	8.12349
 114	1	8	0.005277	84.0242	14.8033	7.92992
 115	1	8	0.017604	83.7627	15.2615	9.60305
 116	1	3	0.008363	81.6199	16.5627	7.47565
 117	1	7	-0.151488	84.0509	17.2085	7.11468
 118	1	7	-0.269275	82.9033	17.7071	9.31335
 119	1	3	0.096378	81.0559	15.3278	7.76172
 120	1	8	0.063418	82.1458	17.3915	10.0407
 121	1	8	0.061085	82.6345	18.7135	8.96817
 122	1	8	0.065045	83.8671	17.7738	9.83374
 123	1	3	-0.142025	80.965	17.4652	6.62058
 124	1	3	-0.448546	79.8331	14.9432	7.19413
 125	1	3	0.277842	79.1798	15.8047	6.29041
 126	1	3	-0.409063	79.7498	17.072	6.02068
 127	1	6	0.203923	79.4344	13.9588	7.40328
 128	1	8	0.016419	84.0881	16.5538	6.2344
 129	1	8	0.049665	85.047	17.2157	7.57506
 130	1	8	0.035794	83.833	18.2264	6.76825
 131	1	6	0.161583	81.4137	18.4297	6.39146
 132	1	6	0.199011	79.2627	17.7409	5.315
 133	1	1	0.463181	81.8762	5.12959	13.6867
 134	1	2	0.074399	81.4922	6.45782	13.8876
 135	1	3	0.034296	81.0428	6.94071	12.5578
 136	1	2	0.051625	81.7166	4.72326	12.3593
 137	1	3	0.019035	81.1745	5.90956	11.6498
 138	1	5	-0.389616	81.51	7.11254	14.9174
 139	1	5	-0.380104	81.9425	3.63206	11.8618
 140	1	3	-0.045097	80.5582	8.19675	12.1764
 141	1	3	-0.056032	80.8328	6.07503	10.3037
 142	1	3	-0.174781	80.3395	7.33247	9.89554
 143	1	3	-0.129342	80.1823	8.39649	10.8267
 144	1	6	0.168842	80.4765	8.99588	12.9119
 145	1	6	0.15893	80.9569	5.25478	9.59979
 146	1	6	0.147704	80.1005	7.48014	8.8448
 147	1	2	0.584577	79.6927	9.76306	10.4112
 148	1	3	-0.046755	78.7902	9.92369	9.21283
 149	1	3	-0.110868	77.8534	8.92544	8.84391
 150	1	3	-0.046132	77.0615	9.14584	7.7083
 151	1	3	-0.135873	78.8599	11.1244	8.46053
 152	1	3	-0.117662	78.0667	11.318	7.31506
 153	1	3	-0.064457	77.1789	10.3005	6.96252
 154	1	2	0.492569	76.2367	10.2206	5.82379
 155	1	1	-0.072087	75.5799	9.00568	5.96091
 156	1	2	0.477555	76.02	8.2943	7.07126
 157	1	3	0.042617	74.6122	8.53381	5.03288
 158	1	3	-0.20367	73.3834	7.99945	5.45788
 159	1	3	-0.057018	72.4638	7.49284	4.52061
 160	1	3	-0.18182	74.8869	8.59193	3.65966
 161	1	3	-0.14326	73.9556	8.12834	2.72269
 162	1	3	0.043342	72.7474	7.52521	3.13654
 163	1	6	0.163244	73.1553	7.93792	6.51896
 164	1	6	0.101178	71.5467	7.04582	4.8893
 165	1	6	0.165346	78.1344	12.2213	6.71622
 166	1	6	0.135111	79.5506	11.9052	8.76205
 167	1	6	0.171751	77.7361	8.00791	9.41635
 168	1	5	-0.478239	75.6533	7.19703	7.45667
 169	1	5	-0.481107	76.1101	11.0562	4.94565
 170	1	5	-0.49957	80.0587	10.7449	11.0381
 171	1	6	0.151248	75.8447	8.96686	3.31619
 172	1	6	0.146138	74.2171	8.17312	1.66804
 173	1	7	0.044043	71.8615	6.8192	2.08451
 174	1	7	-0.215975	70.8627	5.79767	2.69316
 175	1	8	0.063789	70.0968	6.29882	3.29821
 176	1	8	0.072206	71.385	5.06932	3.32669
 177	1	8	0.045489	70.3448	5.23442	1.90786
 178	1	7	0.005306	71.118	7.83579	1.16003
 179	1	7	0.164932	71.329	7.39702	-0.327775
 180	1	8	0.005277	71.5473	8.83549	1.31094
 181	1	8	0.017604	70.0531	7.91937	1.41359
 182	1	3	0.008363	72.5065	6.44507	-0.220064
 183	1	7	-0.151488	71.6482	8.62006	-1.2211
 184	1	7	-0.269275	70.0873	6.66199	-0.886424
 185	1	3	0.096378	72.7616	6.09699	1.09892
 186	1	8	0.063418	70.2664	6.32314	-1.91467
 187	1	8	0.061085	69.2111	7.32257	-0.895541
 188	1	8	0.065045	69.8413	5.77941	-0.284609
 189	1	3	-0.142025	73.3635	6.01705	-1.24868
 190	1	3	-0.448546	73.8919	5.3428	1.44223
 191	1	3	0.277842	74.8091	4.97102	0.442197
 192	1	3	-0.409063	74.5247	5.29182	-0.90634
 193	1	6	0.203923	74.1218	5.1664	2.48986
 194	1	8	0.016419	71.8043	8.32127	-2.26519
 195	1	8	0.049665	72.5567	9.126	-0.875108
 196	1	8	0.035794	70.8256	9.34606	-1.19712
 197	1	6	0.161583	73.1706	6.30227	-2.28073
 198	1	6	0.199011	75.2354	5.0254	-1.68598
 199	1	1	0.463181	67.8124	0.544793	24.0628
 200	1	2	0.074399	67.6329	0.127026	22.7423
 201	1	3	0.034296	68.9448	-0.429107	22.3272
 202	1	2	0.051625	69.1063	0.305243	24.5299
 203	1	3	0.019035	69.8211	-0.320644	23.3891
 204	1	5	-0.389616	66.6258	0.179	22.0545
 205	1	5	-0.380104	69.5812	0.55201	25.6266
 206	1	3	-0.045097	69.336	-0.99089	21.1065
 207	1	3	-0.056032	71.1408	-0.773406	23.2957
 208	1	3	-0.174781	71.5607	-1.33775	22.0729
 209	1	3	-0.129342	70.672	-1.43416	20.9663
 210	1	6	0.168842	68.6226	-1.0728	20.2878
 211	1	6	0.15893	71.8117	-0.694054	24.1487
 212	1	6	0.147704	72.5775	-1.71771	21.9954
 213	1	2	0.584577	71.1013	-2.04415	19.6548
 214	1	3	-0.046755	72.5218	-1.867	19.1753
 215	1	3	-0.110868	73.2789	-0.726242	19.5387
 216	1	3	-0.046132	74.5868	-0.611738	19.0524
 217	1	3	-0.135873	73.0933	-2.83148	18.3039
 218	1	3	-0.117662	74.412	-2.69281	17.8222
 219	1	3	-0.064457	75.1398	-1.56521	18.2226
 220	1	2	0.492569	76.525	-1.13785	17.887
 221	1	1	-0.072087	76.7208	0.0681818	18.552
 222	1	2	0.477555	75.5972	0.454045	19.2737
 223	1	3	0.042617	77.9278	0.822531	18.5022
 224	1	3	-0.20367	78.4913	1.34763	19.6783
 225	1	3	-0.057018	79.6725	2.10548	19.6271
 226	1	3	-0.18182	78.5745	1.06154	17.2769
 227	1	3	-0.14326	79.758	1.81767	17.2259
 228	1	3	0.043342	80.3231	2.35981	18.4021
 229	1	6	0.163244	78.0102	1.17873	20.638
 230	1	6	0.101178	80.0848	2.49628	20.5525
 231	1	6	0.165346	74.8538	-3.4327	17.1568
 232	1	6	0.135111	72.505	-3.69629	18.0012
 233	1	6	0.171751	72.8667	0.0625866	20.1652
 234	1	5	-0.478239	75.4447	1.44412	19.9686
 235	1	5	-0.481107	77.3085	-1.74438	17.1771
 236	1	5	-0.49957	70.2914	-2.6536	18.9759
 237	1	6	0.151248	78.1638	0.65551	16.3553
 238	1	6	0.146138	80.2293	1.96647	16.2592
 239	1	7	0.044043	81.6188	3.19716	18.3898
 240	1	7	-0.215975	81.3892	4.57889	19.0608
 241	1	8	0.063789	81.177	4.47889	20.132
 242	1	8	0.072206	80.5441	5.1035	18.5975
 243	1	8	0.045489	82.2766	5.21686	18.9564
 244	1	7	0.005306	82.7788	2.42286	19.095
 245	1	7	0.164932	83.6388	1.73374	17.9915
 246	1	8	0.005277	82.4153	1.70398	19.8407
 247	1	8	0.017604	83.4074	3.14092	19.6387
 248	1	3	0.008363	83.3022	2.57046	16.7729
 249	1	7	-0.151488	83.1986	0.265875	17.7759
 250	1	7	-0.269275	85.1454	1.78129	18.3447
 251	1	3	0.096378	82.1944	3.37868	16.9923
 252	1	8	0.063418	85.3398	1.26544	19.2936
 253	1	8	0.061085	85.4928	2.81784	18.4429
 254	1	8	0.065045	85.7488	1.2964	17.5675
 255	1	3	-0.142025	83.9626	2.58287	15.5355
 256	1	3	-0.448546	81.713	4.23177	15.9854
 257	1	3	0.277842	82.3595	4.27384	14.7291
 258	1	3	-0.409063	83.4857	3.43853	14.5227
 259	1	6	0.203923	80.8484	4.86067	16.1813
 260	1	8	0.016419	82.1327	0.201797	17.5259
 261	1	8	0.049665	83.3695	-0.331639	18.6802
 262	1	8	0.035794	83.7624	-0.194116	16.9546
 263	1	6	0.161583	84.8224	1.93902	15.3633
 264	1	6	0.199011	83.987	3.44338	13.5566
 265	1	1	0.463181	56.911	-1.23631	9.33644
 266	1	2	0.074399	56.1578	-0.957773	10.478
 267	1	3	0.034296	57.1535	-0.723752	11.553
 268	1	2	0.051625	58.2856	-1.19924	9.57566
 269	1	3	0.019035	58.4185	-0.868809	11.0178
 270	1	5	-0.389616	54.9444	-0.888431	10.5929
 271	1	5	-0.380104	59.2016	-1.39255	8.79307
 272	1	3	-0.045097	56.9581	-0.409509	12.9024
 273	1	3	-0.056032	59.5649	-0.721641	11.8058
 274	1	3	-0.174781	59.3936	-0.402458	13.1697
 275	1	3	-0.129342	58.0953	-0.224017	13.7236
 276	1	6	0.168842	55.9488	-0.30941	13.2995
 277	1	6	0.15893	60.5528	-0.861629	11.3719
 278	1	6	0.147704	60.2765	-0.314898	13.8003
 279	1	2	0.584577	57.8872	0.0989101	15.1832
 280	1	3	-0.046755	58.9162	0.906169	15.9378
 281	1	3	-0.110868	59.0528	0.715125	17.3336
 282	1	3	-0.046132	59.9974	1.48531	18.0256
 283	1	3	-0.135873	59.7068	1.89364	15.2891
 284	1	3	-0.117662	60.6476	2.66116	16.0064
 285	1	3	-0.064457	60.7731	2.4274	17.3813
 286	1	2	0.492569	61.6516	3.07419	18.392
 287	1	1	-0.072087	61.3466	2.46656	19.605
 288	1	2	0.477555	60.358	1.49781	19.4686
 289	1	3	0.042617	61.9752	2.79547	20.8404
 290	1	3	-0.20367	62.1493	4.13728	21.2226
 291	1	3	-0.057018	62.7792	4.46085	22.4364
 292	1	3	-0.18182	62.4305	1.78328	21.7029
 293	1	3	-0.14326	63.0554	2.10626	22.9186
 294	1	3	0.043342	63.2603	3.4511	23.2976
 295	1	6	0.163244	61.803	4.93797	20.5742
 296	1	6	0.101178	62.8872	5.50817	22.6963
 297	1	6	0.165346	61.2528	3.42174	15.5158
 298	1	6	0.135111	59.5779	2.08621	14.2267
 299	1	6	0.171751	58.4408	-0.0125866	17.8659
 300	1	5	-0.478239	59.8655	0.793937	20.3334
 301	1	5	-0.481107	62.4577	3.96221	18.1719
 302	1	5	-0.49957	56.8785	-0.287927	15.7496
 303	1	6	0.151248	62.2984	0.73743	21.4357
 304	1	6	0.146138	63.3846	1.29526	23.5627
 305	1	7	0.044043	63.9494	3.7936	24.6363
 306	1	7	-0.215975	64.721	5.14218	24.5936
 307	1	8	0.063789	64.0413	5.99953	24.5184
 308	1	8	0.072206	65.4084	5.16984	23.7383
 309	1	8	0.045489	65.3195	5.28188	25.5025
 310	1	7	0.005306	62.9096	3.78858	25.8025
 311	1	7	0.164932	63.5093	2.98892	27.0035
 312	1	8	0.005277	61.9904	3.29436	25.46
 313	1	8	0.017604	62.6165	4.80556	26.0946
 314	1	3	0.008363	64.6827	2.27074	26.3663
 315	1	7	-0.151488	62.4737	1.99423	27.5818
 316	1	7	-0.269275	63.9986	3.94024	28.1221
 317	1	3	0.096378	64.9253	2.71339	25.0736
 318	1	8	0.063418	64.7417	4.65086	27.7404
 319	1	8	0.061085	64.4653	3.37583	28.9391
 320	1	8	0.065045	63.1631	4.51463	28.5419
 321	1	3	-0.142025	65.4822	1.27078	26.9406
 322	1	3	-0.448546	65.9699	2.17139	24.3086
 323	1	3	0.277842	66.7768	1.14463	24.8477
 324	1	3	-0.409063	66.5217	0.710296	26.1721
 325	1	6	0.203923	66.1279	2.52234	23.2917
 326	1	8	0.016419	61.5853	2.5239	27.9489
 327	1	8	0.049665	62.8969	1.42519	28.4188
 328	1	8	0.035794	62.15	1.27662	26.8168
 329	1	6	0.161583	65.2976	0.934953	27.9588
 330	1	6	0.199011	67.1458	-0.0658674	26.6111
 331	1	1	0.463181	39.7432	2.27444	15.2666
 332	1	2	0.074399	39.8285	2.54737	13.9
 333	1	3	0.034296	41.1795	2.08332	13.4947
 334	1	2	0.051625	40.9128	1.70969	15.7769
 335	1	3	0.019035	41.8207	1.5803	14.6103
 336	1	5	-0.389616	38.9777	3.01612	13.1611
 337	1	5	-0.380104	41.1448	1.33187	16.9139
 338	1	3	-0.045097	41.7836	2.0685	12.2318
 339	1	3	-0.056032	43.104	1.03133	14.5308
 340	1	3	-0.174781	43.7286	0.994788	13.2672
 341	1	3	-0.129342	43.0719	1.49682	12.1099
 342	1	6	0.168842	41.2581	2.47246	11.3676
 343	1	6	0.15893	43.5941	0.642831	15.4212
 344	1	6	0.147704	44.7341	0.585047	13.1935
 345	1	2	0.584577	43.7359	1.46881	10.7563
 346	1	3	-0.046755	44.6939	0.353184	10.4243
 347	1	3	-0.110868	45.7981	0.615128	9.57981
 348	1	3	-0.046132	46.6828	-0.433964	9.29549
 349	1	3	-0.135873	44.488	-0.962412	10.9209
 350	1	3	-0.117662	45.3841	-2.00571	10.6109
 351	1	3	-0.064457	46.4821	-1.70461	9.79625
 352	1	2	0.492569	47.5963	-2.5697	9.32727
 353	1	1	-0.072087	48.4249	-1.74485	8.57569
 354	1	2	0.477555	47.9373	-0.445074	8.49662
 355	1	3	0.042617	49.6577	-2.17041	8.00525
 356	1	3	-0.20367	49.7404	-3.37229	7.28099
 357	1	3	-0.057018	50.9719	-3.80932	6.76465
 358	1	3	-0.18182	50.8241	-1.40813	8.18849
 359	1	3	-0.14326	52.0547	-1.84393	7.67147
 360	1	3	0.043342	52.1516	-3.06085	6.96008
 361	1	6	0.163244	48.8534	-3.98311	7.13366
 362	1	6	0.101178	51.0081	-4.74611	6.21668
 363	1	6	0.165346	45.2354	-3.0152	10.991
 364	1	6	0.135111	43.6218	-1.18184	11.5416
 365	1	6	0.171751	45.9715	1.6101	9.17089
 366	1	5	-0.478239	48.4295	0.512899	7.92604
 367	1	5	-0.481107	47.7348	-3.75436	9.58037
 368	1	5	-0.49957	43.5035	2.34728	9.94234
 369	1	6	0.151248	50.784	-0.473326	8.7428
 370	1	6	0.146138	52.9275	-1.22168	7.84456
 371	1	7	0.044043	53.4916	-3.59563	6.41333
 372	1	7	-0.215975	53.7821	-5.01382	6.97503
 373	1	8	0.063789	53.0588	-5.75072	6.60573
 374	1	8	0.072206	53.7348	-5.01629	8.07135
 375	1	8	0.045489	54.7836	-5.35416	6.6811
 376	1	7	0.005306	53.4934	-3.60606	4.8504
 377	1	7	0.164932	54.2483	-2.33266	4.3588
 378	1	8	0.005277	52.4822	-3.67172	4.42831
 379	1	8	0.017604	54.0325	-4.49646	4.49987
 380	1	3	0.008363	55.0769	-1.97255	5.57611
 381	1	7	-0.151488	53.2552	-1.19212	4.03016
 382	1	7	-0.269275	55.1225	-2.64118	3.11918
 383	1	3	0.096378	54.6621	-2.66756	6.70424
 384	1	8	0.063418	55.6501	-1.74305	2.77513
 385	1	8	0.061085	54.5062	-3.00898	2.28903
 386	1	8	0.065045	55.8751	-3.40589	3.35042
 387	1	3	-0.142025	56.1266	-1.04423	5.65251
 388	1	3	-0.448546	55.2784	-2.45608	7.94806
 389	1	3	0.277842	56.3248	-1.51431	8.06225
 390	1	3	-0.409063	56.7446	-0.822486	6.89972
 391	1	6	0.203923	54.9148	-2.98447	8.82564
 392	1	8	0.016419	53.7903	-0.2769	3.74678
 393	1	8	0.049665	52.6222	-0.955803	4.89467
 394	1	8	0.035794	52.598	-1.47176	3.197
 395	1	6	0.161583	56.4459	-0.500359	4.766
 396	1	6	0.199011	57.5587	-0.103361	6.96841
 397	1	1	0.463181	30.6096	-13.9865	15.2237
 398	1	2	0.074399	31.2528	-12.8517	14.7152
 399	1	3	0.034296	32.3424	-12.5517	15.672
 400	1	2	0.051625	31.2152	-14.448	16.4006
 401	1	3	0.019035	32.3391	-13.5126	16.6617
 402	1	5	-0.389616	31.0187	-12.218	13.6986
 403	1	5	-0.380104	30.8845	-15.373	17.1248
 404	1	3	-0.045097	33.2435	-11.4832	15.6849
 405	1	3	-0.056032	33.2768	-13.4918	17.7016
 406	1	3	-0.174781	34.2137	-12.4359	17.7244
 407	1	3	-0.129342	34.1816	-11.4154	16.7394
 408	1	6	0.168842	33.2026	-10.7264	14.9036
 409	1	6	0.15893	33.2682	-14.2628	18.4692
 410	1	6	0.147704	34.9496	-12.3872	18.5258
 411	1	2	0.584577	35.1117	-10.2386	16.8278
 412	1	3	-0.046755	34.5019	-8.85848	16.8378
 413	1	3	-0.110868	35.2869	-7.73748	16.4757
 414	1	3	-0.046132	34.7006	-6.46443	16.5378
 415	1	3	-0.135873	33.1579	-8.66331	17.2602
 416	1	3	-0.117662	32.5955	-7.37334	17.3283
 417	1	3	-0.064457	33.3995	-6.28891	16.9616
 418	1	2	0.492569	33.1018	-4.83351	16.9662
 419	1	1	-0.072087	34.2608	-4.20436	16.5221
 420	1	2	0.477555	35.2679	-5.123	16.2332
 421	1	3	0.042617	34.4001	-2.78838	16.3966
 422	1	3	-0.20367	33.3434	-2.00117	15.9025
 423	1	3	-0.057018	33.4732	-0.606493	15.8005
 424	1	3	-0.18182	35.589	-2.14437	16.7855
 425	1	3	-0.14326	35.7244	-0.750171	16.6707
 426	1	3	0.043342	34.6682	0.0436714	16.1697
 427	1	6	0.163244	32.4061	-2.46434	15.6059
 428	1	6	0.101178	32.63	-0.0289091	15.4345
 429	1	6	0.165346	31.5743	-7.21455	17.6707
 430	1	6	0.135111	32.5507	-9.50948	17.5732
 431	1	6	0.171751	36.3245	-7.85277	16.1638
 432	1	5	-0.478239	36.3895	-4.90817	15.8071
 433	1	5	-0.481107	32.05	-4.32792	17.3199
 434	1	5	-0.49957	36.3149	-10.4018	16.9357
 435	1	6	0.151248	36.4206	-2.72393	17.1793
 436	1	6	0.146138	36.6606	-0.299865	16.9873
 437	1	7	0.044043	34.7771	1.57748	16.0341
 438	1	7	-0.215975	34.3626	2.04443	14.6115
 439	1	8	0.063789	33.2934	1.8871	14.4267
 440	1	8	0.072206	34.9233	1.49869	13.8421
 441	1	8	0.045489	34.5667	3.11481	14.4772
 442	1	7	0.005306	33.9183	2.2926	17.1262
 443	1	7	0.164932	34.8684	2.72013	18.2884
 444	1	8	0.005277	33.0893	1.66651	17.4815
 445	1	8	0.017604	33.462	3.19157	16.6904
 446	1	3	0.008363	36.221	2.71845	17.6024
 447	1	7	-0.151488	34.8447	1.68218	19.436
 448	1	7	-0.269275	34.4894	4.11625	18.8395
 449	1	3	0.096378	36.1681	2.09509	16.3629
 450	1	8	0.063418	34.5562	4.87957	18.0536
 451	1	8	0.061085	35.1599	4.41403	19.6551
 452	1	8	0.065045	33.4634	4.11666	19.229
 453	1	3	-0.142025	37.4326	3.22713	18.0953
 454	1	3	-0.448546	37.32	1.95936	15.573
 455	1	3	0.277842	38.5551	2.45864	16.0407
 456	1	3	-0.409063	38.5941	3.09199	17.3076
 457	1	6	0.203923	37.2566	1.46193	14.6087
 458	1	8	0.016419	35.1097	0.68165	19.0736
 459	1	8	0.049665	33.8476	1.62305	19.8902
 460	1	8	0.035794	35.5597	1.95313	20.223
 461	1	6	0.161583	37.4734	3.70064	19.074
 462	1	6	0.199011	39.543	3.45931	17.6938
 463	1	1	0.463181	24.9232	-7.39549	-1.80569
 464	1	2	0.074399	24.9431	-8.10045	-0.602925
 465	1	3	0.034296	26.378	-8.20028	-0.235737
 466	1	2	0.051625	26.1902	-6.99447	-2.22198
 467	1	3	0.019035	27.1202	-7.54324	-1.20023
 468	1	5	-0.389616	24.0101	-8.61569	-0.00886181
 469	1	5	-0.380104	26.4991	-6.3981	-3.24023
 470	1	3	-0.045097	26.9868	-8.90487	0.811244
 471	1	3	-0.056032	28.519	-7.55114	-1.1737
 472	1	3	-0.174781	29.155	-8.27145	-0.140757
 473	1	3	-0.129342	28.4006	-8.94619	0.853542
 474	1	6	0.168842	26.3755	-9.45808	1.52205
 475	1	6	0.15893	29.0888	-7.05332	-1.95539
 476	1	6	0.147704	30.2421	-8.33369	-0.123312
 477	1	2	0.584577	29.1015	-9.79932	1.87546
 478	1	3	-0.046755	28.7366	-9.6544	3.32863
 479	1	3	-0.110868	28.7963	-10.7838	4.17901
 480	1	3	-0.046132	28.4944	-10.6126	5.53716
 481	1	3	-0.135873	28.3894	-8.38717	3.86687
 482	1	3	-0.117662	28.1162	-8.2342	5.24269
 483	1	3	-0.064457	28.1781	-9.37347	6.0559
 484	1	2	0.492569	27.8986	-9.53746	7.50794
 485	1	1	-0.072087	28.015	-10.8992	7.76668
 486	1	2	0.477555	28.4014	-11.6117	6.63547
 487	1	3	0.042617	27.6551	-11.5111	9.00385
 488	1	3	-0.20367	26.4594	-11.1474	9.64804
 489	1	3	-0.057018	26.0393	-11.8111	10.8115
 490	1	3	-0.18182	28.4337	-12.5413	9.56141
 491	1	3	-0.14326	28.0122	-13.2083	10.7262
 492	1	3	0.043342	26.8059	-12.8545	11.3711
 493	1	6	0.163244	25.8325	-10.362	9.23432
 494	1	6	0.101178	25.0907	-11.5247	11.2522
 495	1	6	0.165346	27.8608	-7.26466	5.66696
 496	1	6	0.135111	28.3625	-7.51073	3.22287
 497	1	6	0.171751	29.0601	-11.768	3.7925
 498	1	5	-0.478239	28.5435	-12.8162	6.5139
 499	1	5	-0.481107	27.5779	-8.64699	8.2767
 500	1	5	-0.49957	29.9449	-10.6062	1.52412
 501	1	6	0.151248	29.352	-12.8554	9.07071
 502	1	6	0.146138	28.6191	-14.0268	11.1039
 503	1	7	0.044043	26.2742	-13.6652	12.5725
 504	1	7	-0.215975	25.4725	-12.7973	13.5822
 505	1	8	0.063789	26.0521	-11.9146	13.8812
 506	1	8	0.072206	25.2424	-13.3674	14.4914
 507	1	8	0.045489	24.5185	-12.4557	13.1633
 508	1	7	0.005306	25.407	-14.8553	12.0478
 509	1	7	0.164932	25.8631	-16.1661	12.763
 510	1	8	0.005277	25.5558	-14.9626	10.9647
 511	1	8	0.017604	24.334	-14.6682	12.186
 512	1	3	0.008363	27.1559	-15.7457	13.4333
 513	1	7	-0.151488	26.0963	-17.3081	11.7448
 514	1	7	-0.269275	24.8196	-16.6073	13.8172
 515	1	3	0.096378	27.3728	-14.3794	13.342
 516	1	8	0.063418	25.1639	-17.494	14.3639
 517	1	8	0.061085	23.8623	-16.8542	13.3405
 518	1	8	0.065045	24.6386	-15.8104	14.5494
 519	1	3	-0.142025	28.0733	-16.5681	14.1028
 520	1	3	-0.448546	28.489	-13.7836	13.948
 521	1	3	0.277842	29.4465	-14.5812	14.62
 522	1	3	-0.409063	29.2191	-15.9809	14.6754
 523	1	6	0.203923	28.6106	-12.7064	13.8724
 524	1	8	0.016419	25.1776	-17.5294	11.1868
 525	1	8	0.049665	26.4143	-18.2284	12.2503
 526	1	8	0.035794	26.876	-17.0345	11.0221
 527	1	6	0.161583	27.8992	-17.6395	14.1782
 528	1	6	0.199011	29.9301	-16.6247	15.189
 529	1	1	0.463181	14.8875	2.05276	-12.135
 530	1	2	0.074399	14.7182	3.11547	-11.2419
 531	1	3	0.034296	15.8613	3.02299	-10.2941
 532	1	2	0.051625	16.0462	1.31924	-11.8746
 533	1	3	0.019035	16.6419	1.94632	-10.6675
 534	1	5	-0.389616	13.8093	3.92776	-11.1903
 535	1	5	-0.380104	16.4708	0.332404	-12.4538
 536	1	3	-0.045097	16.1678	3.79533	-9.16298
 537	1	3	-0.056032	17.7612	1.56359	-9.92345
 538	1	3	-0.174781	18.0829	2.31653	-8.77589
 539	1	3	-0.129342	17.2981	3.4383	-8.38608
 540	1	6	0.168842	15.5342	4.63694	-8.88642
 541	1	6	0.15893	18.3525	0.700602	-10.2224
 542	1	6	0.147704	18.9559	2.02223	-8.19733
 543	1	2	0.584577	17.6551	4.24683	-7.15923
 544	1	3	-0.046755	18.6051	3.62136	-6.1786
 545	1	3	-0.110868	18.1323	2.6106	-5.31365
 546	1	3	-0.046132	19.0699	1.88971	-4.56432
 547	1	3	-0.135873	19.9912	3.91559	-6.23307
 548	1	3	-0.117662	20.9179	3.17229	-5.4696
 549	1	3	-0.064457	20.4234	2.145	-4.65276
 550	1	2	0.492569	21.1451	1.07073	-3.91333
 551	1	1	-0.072087	20.1595	0.188161	-3.4757
 552	1	2	0.477555	18.8795	0.659848	-3.75827
 553	1	3	0.042617	20.3978	-1.15077	-3.03778
 554	1	3	-0.20367	19.5638	-1.73924	-2.07272
 555	1	3	-0.057018	19.5902	-3.12335	-1.84645
 556	1	3	-0.18182	21.3264	-1.97032	-3.70849
 557	1	3	-0.14326	21.3616	-3.35766	-3.47696
 558	1	3	0.043342	20.4629	-3.96164	-2.57267
 559	1	6	0.163244	18.8197	-1.13728	-1.56218
 560	1	6	0.101178	18.8603	-3.5389	-1.1613
 561	1	6	0.165346	21.9896	3.34302	-5.55623
 562	1	6	0.135111	20.3512	4.68164	-6.91717
 563	1	6	0.171751	17.0764	2.34601	-5.2742
 564	1	5	-0.478239	17.8063	0.11704	-3.55167
 565	1	5	-0.481107	22.3554	0.928735	-3.87577
 566	1	5	-0.49957	17.1749	5.3488	-6.95884
 567	1	6	0.151248	21.9768	-1.54868	-4.47055
 568	1	6	0.146138	22.0354	-3.9703	-4.07035
 569	1	7	0.044043	20.2779	-5.49239	-2.55671
 570	1	7	-0.215975	19.7646	-6.03052	-1.19449
 571	1	8	0.063789	18.7427	-5.69486	-0.986748
 572	1	8	0.072206	20.4137	-5.7006	-0.373398
 573	1	8	0.045489	19.7534	-7.12849	-1.18906
 574	1	7	0.005306	19.2876	-5.87601	-3.70636
 575	1	7	0.164932	19.8753	-7.08362	-4.4986
 576	1	8	0.005277	19.1693	-5.02278	-4.38843
 577	1	8	0.017604	18.2816	-6.09066	-3.32235
 578	1	3	0.008363	21.2961	-7.16282	-3.97519
 579	1	7	-0.151488	19.8427	-6.82903	-6.02582
 580	1	7	-0.269275	19.0952	-8.3802	-4.16974
 581	1	3	0.096378	21.5243	-6.28573	-2.92036
 582	1	8	0.063418	19.5507	-9.24918	-4.66042
 583	1	8	0.061085	18.0545	-8.30691	-4.50985
 584	1	8	0.065045	19.0848	-8.5714	-3.08881
 585	1	3	-0.142025	22.2905	-8.06098	-4.39084
 586	1	3	-0.448546	22.7387	-6.31205	-2.21205
 587	1	3	0.277842	23.7406	-7.23572	-2.58564
 588	1	3	-0.409063	23.5124	-8.08752	-3.69231
 589	1	6	0.203923	22.8732	-5.66864	-1.34772
 590	1	8	0.016419	20.3054	-7.65926	-6.57427
 591	1	8	0.049665	20.3876	-5.91182	-6.28361
 592	1	8	0.035794	18.8104	-6.72367	-6.38328
 593	1	6	0.161583	22.0984	-8.75555	-5.20622
 594	1	6	0.199011	24.2739	-8.80794	-3.98276
 595	1	1	0.463181	7.05122	8.34553	-28.7852
 596	1	2	0.074399	7.64999	7.41797	-27.9251
 597	1	3	0.034296	9.04527	7.89133	-27.7424
 598	1	2	0.051625	7.94349	9.3466	-29.1844
 599	1	3	0.019035	9.22175	9.03257	-28.4983
 600	1	5	-0.389616	7.16446	6.42626	-27.4045
 601	1	5	-0.380104	7.73957	10.3165	-29.8964
 602	1	3	-0.045097	10.0728	7.36907	-26.947
 603	1	3	-0.056032	10.4458	9.70927	-28.524
 604	1	3	-0.174781	11.4972	9.19944	-27.7342
 605	1	3	-0.129342	11.3159	8.04834	-26.9231
 606	1	6	0.168842	9.89984	6.4638	-26.3685
 607	1	6	0.15893	10.5716	10.6029	-29.1318
 608	1	6	0.147704	12.4606	9.70812	-27.7369
 609	1	2	0.584577	12.4597	7.54843	-26.0752
 610	1	3	-0.046755	12.1871	6.98501	-24.7003
 611	1	3	-0.110868	13.1249	6.09707	-24.1196
 612	1	3	-0.046132	12.8697	5.59802	-22.8346
 613	1	3	-0.135873	11.0372	7.36673	-23.9552
 614	1	3	-0.117662	10.8011	6.85192	-22.6638
 615	1	3	-0.064457	11.7415	5.96313	-22.1293
 616	1	2	0.492569	11.7546	5.24414	-20.8276
 617	1	1	-0.072087	12.9013	4.45751	-20.8393
 618	1	2	0.477555	13.6374	4.62852	-22.0072
 619	1	3	0.042617	13.2099	3.50303	-19.8267
 620	1	3	-0.20367	13.134	3.84039	-18.4629
 621	1	3	-0.057018	13.3078	2.859	-17.4698
 622	1	3	-0.18182	13.5092	2.17581	-20.1786
 623	1	3	-0.14326	13.674	1.19439	-19.1884
 624	1	3	0.043342	13.5459	1.51119	-17.8196
 625	1	6	0.163244	12.8882	4.85728	-18.1673
 626	1	6	0.101178	13.1915	3.15034	-16.4301
 627	1	6	0.165346	9.9183	7.13379	-22.0921
 628	1	6	0.135111	10.3285	8.08198	-24.3659
 629	1	6	0.171751	14.0249	5.7981	-24.6564
 630	1	5	-0.478239	14.6636	4.06259	-22.3413
 631	1	5	-0.481107	10.8908	5.30936	-19.9694
 632	1	5	-0.49957	13.6048	7.62739	-26.49
 633	1	6	0.151248	13.576	1.891	-21.2259
 634	1	6	0.146138	13.8524	0.168088	-19.4952
 635	1	7	0.044043	13.5495	0.372026	-16.7786
 636	1	7	-0.215975	14.8382	-0.487594	-16.8891
 637	1	8	0.063789	15.735	0.138825	-16.8069
 638	1	8	0.072206	14.8877	-1.02266	-17.845
 639	1	8	0.045489	14.8772	-1.23815	-16.0888
 640	1	7	0.005306	12.2735	-0.508922	-16.9852
 641	1	7	0.164932	11.1671	0.0175387	-16.0216
 642	1	8	0.005277	12.513	-1.54697	-16.7171
 643	1	8	0.017604	11.9298	-0.53081	-18.0273
 644	1	3	0.008363	12.0085	0.670134	-14.9418
 645	1	7	-0.151488	10.3044	-1.14784	-15.4786
 646	1	7	-0.269275	10.2471	1.05566	-16.7113
 647	1	3	0.096378	13.3282	0.849502	-15.3449
 648	1	8	0.063418	10.8165	1.90215	-17.1092
 649	1	8	0.061085	9.51459	1.45767	-16.0002
 650	1	8	0.065045	9.69619	0.600748	-17.5439
 651	1	3	-0.142025	11.5999	1.015	-13.646
 652	1	3	-0.448546	14.2933	1.34283	-14.4453
 653	1	3	0.277842	13.9177	1.66499	-13.118
 654	1	3	-0.409063	12.5602	1.51016	-12.744
 655	1	6	0.203923	15.3317	1.42079	-14.7552
 656	1	8	0.016419	9.52266	-0.77975	-14.8022