pySIMM System Object

1256 atoms
1388 bonds
2451 angles
3929 dihedrals
399 impropers

8 atom types
10 bond types
17 angle types
9 dihedral types
4 improper types

-160.447275 160.447275 xlo xhi
-160.447275 160.447275 ylo yhi
-160.447275 160.447275 zlo zhi

Masses

   1	14.01	# n
   2	12.01	# c
   3	12.01	# ca
   4	1.008	# hn
   5	16.0	# o
   6	1.008	# ha
   7	12.01	# c3
   8	1.008	# hc

Pair Coeffs

   1	0.17	3.249998523775958	# n
   2	0.086	3.3996695084235347	# c
   3	0.086	3.3996695084235347	# ca
   4	0.0157	1.069078461768407	# hn
   5	0.21	2.959921901149463	# o
   6	0.015	2.59964245953351	# ha
   7	0.1094	3.3996695084235347	# c3
   8	0.0157	2.649532787749369	# hc

Bond Coeffs

   1	461.1	1.3984	# ca,ca
   2	427.6	1.3789	# c,n
   3	345.9	1.4906	# c,ca
   4	300.9	1.5375	# c3,c3
   5	345.8	1.086	# ca,ha
   6	384.2	1.4121	# ca,n
   7	637.7	1.2183	# c,o
   8	321.0	1.5156	# c3,ca
   9	330.6	1.0969	# c3,hc
  10	403.2	1.0129	# hn,n

Angle Coeffs

   1	68.72	122.6	# ca,c,o
   2	62.86	111.51	# c3,c3,c3
   3	63.82	123.71	# c,n,ca
   4	67.87	120.19	# ca,ca,n
   5	67.68	115.25	# ca,c,n
   6	63.0	118.11	# ca,c,ca
   7	63.56	112.24	# ca,c3,ca
   8	63.15	112.07	# c3,c3,ca
   9	46.34	109.8	# c3,c3,hc
  10	74.22	123.05	# n,c,o
  11	48.33	117.55	# c,n,hn
  12	64.28	120.33	# c,ca,ca
  13	39.4	107.58	# hc,c3,hc
  14	66.62	120.02	# ca,ca,ca
  15	63.53	120.77	# c3,ca,ca
  16	63.74	127.08	# c,n,c
  17	48.18	119.88	# ca,ca,ha

Dihedral Coeffs

   1	1	2.5	2	180	# X,c,n,X
   2	1	0.45	2	180	# X,ca,n,X
   3	3	0.18	3	0	0.25	2	180	0.2	1	180	# c3,c3,c3,c3
   4	2	2.5	2	180	2.0	1	0	# hn,n,c,o
   5	1	3.625	2	180	# X,ca,ca,X
   6	1	0.16	3	0	# hc,c3,c3,c3
   7	1	1.0	2	180	# X,c,ca,X
   8	1	0.15555555555555556	3	0	# X,c3,c3,X
   9	1	0.0	2	0	# X,c3,ca,X

Improper Coeffs

   1	10.5	-1	2	# c,X,X,o
   2	1.1	-1	2	# ca,X,X,ha
   3	1.1	-1	2	# ca,ca,ca,c3
   4	1.1	-1	2	# n,X,X,hn

Atoms

   1	1	1	0.463181	29.5403	37.6269	-29.8897
   2	1	2	0.074399	28.4785	38.1224	-29.1324
   3	1	3	0.034296	28.0658	36.9947	-28.2681
   4	1	2	0.051625	29.8718	36.3104	-29.556
   5	1	3	0.019035	28.8928	35.9174	-28.5114
   6	1	5	-0.389616	27.9196	39.2049	-29.2086
   7	1	5	-0.380104	30.7163	35.5847	-30.0563
   8	1	3	-0.045097	26.9795	36.9089	-27.3977
   9	1	3	-0.056032	28.6918	34.6876	-27.8748
  10	1	3	-0.174781	27.6069	34.5787	-26.9785
  11	1	3	-0.129342	26.7382	35.6779	-26.7422
  12	1	6	0.168842	26.3389	37.7782	-27.2715
  13	1	6	0.15893	29.3445	33.8434	-28.0849
  14	1	6	0.147704	27.4213	33.6297	-26.4777
  15	1	2	0.584577	25.559	35.5353	-25.8167
  16	1	3	-0.046755	24.5806	36.6707	-25.7679
  17	1	3	-0.110868	23.6099	36.7952	-26.785
  18	1	3	-0.046132	22.7297	37.8828	-26.7267
  19	1	3	-0.135873	24.6587	37.6389	-24.736
  20	1	3	-0.117662	23.764	38.7288	-24.7003
  21	1	3	-0.064457	22.8015	38.8186	-25.7148
  22	1	2	0.492569	21.6689	39.7669	-25.8824
  23	1	1	-0.072087	20.9413	39.3009	-26.9732
  24	1	2	0.477555	21.5569	38.2093	-27.5764
  25	1	3	0.042617	19.6296	39.7493	-27.3106
  26	1	3	-0.20367	19.2127	39.8553	-28.6502
  27	1	3	-0.057018	17.8774	40.1691	-28.9597
  28	1	3	-0.18182	18.6839	39.9718	-26.2931
  29	1	3	-0.14326	17.3523	40.2889	-26.6018
  30	1	3	0.043342	16.9253	40.397	-27.9425
  31	1	6	0.163244	19.9121	39.6552	-29.4586
  32	1	6	0.101178	17.5812	40.2058	-30.003
  33	1	6	0.165346	23.7972	39.466	-23.8997
  34	1	6	0.135111	25.412	37.5365	-23.9577
  35	1	6	0.171751	23.5292	36.0568	-27.5797
  36	1	5	-0.478239	21.1791	37.5657	-28.5394
  37	1	5	-0.481107	21.4032	40.6939	-25.1366
  38	1	5	-0.49957	25.4007	34.5444	-25.1235
  39	1	6	0.151248	18.9689	39.8725	-25.2485
  40	1	6	0.146138	16.6553	40.4266	-25.7808
  41	1	7	0.044043	15.4525	40.6844	-28.3025
  42	1	7	-0.215975	15.3344	41.7494	-29.427
  43	1	8	0.063789	15.8917	42.6576	-29.1644
  44	1	8	0.072206	14.2853	42.0339	-29.5824
  45	1	8	0.045489	15.7189	41.3778	-30.3843
  46	1	7	0.005306	14.7338	39.3587	-28.7194
  47	1	7	0.164932	13.6844	38.983	-27.624
  48	1	8	0.005277	15.4556	38.5441	-28.8693
  49	1	8	0.017604	14.231	39.495	-29.6859
  50	1	3	0.008363	13.6669	40.2103	-26.7353
  51	1	7	-0.151488	14.1359	37.7393	-26.8212
  52	1	7	-0.269275	12.2953	38.7214	-28.2563
  53	1	3	0.096378	14.6295	41.1413	-27.1064
  54	1	8	0.063418	11.9411	39.6068	-28.8003
  55	1	8	0.061085	11.55	38.4787	-27.4885
  56	1	8	0.065045	12.338	37.8826	-28.9626
  57	1	3	-0.142025	12.8217	40.4479	-25.6379
  58	1	3	-0.448546	14.774	42.3471	-26.3973
  59	1	3	0.277842	13.9359	42.601	-25.3002
  60	1	3	-0.409063	12.9661	41.6539	-24.923
  61	1	6	0.203923	15.5292	43.0719	-26.6833
  62	1	8	0.016419	15.1195	37.9029	-26.3631
  63	1	8	0.049665	14.2036	36.8567	-27.4697
  64	1	8	0.035794	13.4234	37.5121	-26.0179
  65	1	6	0.161583	12.0746	39.7127	-25.3473
  66	1	6	0.199011	12.3269	41.8634	-24.07
  67	1	1	0.463181	18.2761	33.6171	-32.2205
  68	1	2	0.074399	18.9213	34.4687	-33.1154
  69	1	3	0.034296	18.9681	33.7188	-34.3937
  70	1	2	0.051625	17.881	32.4147	-32.8024
  71	1	3	0.019035	18.347	32.4981	-34.2107
  72	1	5	-0.389616	19.4264	35.5588	-32.9025
  73	1	5	-0.380104	17.3328	31.4622	-32.274
  74	1	3	-0.045097	19.5572	34.0719	-35.6121
  75	1	3	-0.056032	18.264	31.5612	-35.2462
  76	1	3	-0.174781	18.8521	31.8949	-36.4846
  77	1	3	-0.129342	19.5218	33.1332	-36.6704
  78	1	6	0.168842	20.0272	35.047	-35.7212
  79	1	6	0.15893	17.7694	30.6048	-35.0892
  80	1	6	0.147704	18.8026	31.1831	-37.3081
  81	1	2	0.584577	20.149	33.4478	-38.0048
  82	1	3	-0.046755	21.4696	34.1844	-38.0603
  83	1	3	-0.110868	22.369	34.1951	-36.9614
  84	1	3	-0.046132	23.5977	34.8548	-37.1084
  85	1	3	-0.135873	21.8435	34.8325	-39.267
  86	1	3	-0.117662	23.087	35.482	-39.3959
  87	1	3	-0.064457	23.9501	35.4617	-38.2964
  88	1	2	0.492569	25.3189	36.0132	-38.1496
  89	1	1	-0.072087	25.7061	35.7229	-36.8491
  90	1	2	0.477555	24.7286	35.023	-36.1525
  91	1	3	0.042617	26.933	36.1712	-36.2914
  92	1	3	-0.20367	28.1496	35.9292	-36.951
  93	1	3	-0.057018	29.3478	36.4717	-36.4581
  94	1	3	-0.18182	26.9328	36.9604	-35.1298
  95	1	3	-0.14326	28.1292	37.5144	-34.6443
  96	1	3	0.043342	29.3614	37.2676	-35.2928
  97	1	6	0.163244	28.1662	35.358	-37.8758
  98	1	6	0.101178	30.2641	36.2932	-37.0116
  99	1	6	0.165346	23.3784	35.9751	-40.3214
 100	1	6	0.135111	21.1676	34.8073	-40.12
 101	1	6	0.171751	22.1478	33.6811	-36.0289
 102	1	5	-0.478239	24.7647	34.6203	-35.0014
 103	1	5	-0.481107	25.9577	36.5786	-39.0189
 104	1	5	-0.49957	19.5895	33.0935	-39.0294
 105	1	6	0.151248	25.9973	37.173	-34.6172
 106	1	6	0.146138	28.0787	38.1571	-33.7701
 107	1	7	0.044043	30.6789	37.9074	-34.8043
 108	1	7	-0.215975	31.874	36.9165	-34.8594
 109	1	8	0.063789	31.6432	35.9943	-34.3105
 110	1	8	0.072206	32.7673	37.3614	-34.4008
 111	1	8	0.045489	32.1377	36.6449	-35.8881
 112	1	7	0.005306	30.9849	39.1974	-35.6329
 113	1	7	0.164932	31.0867	40.418	-34.6607
 114	1	8	0.005277	30.1913	39.3674	-36.3732
 115	1	8	0.017604	31.9105	39.0789	-36.2114
 116	1	3	0.008363	30.8146	39.8018	-33.3038
 117	1	7	-0.151488	30.0143	41.4826	-34.9978
 118	1	7	-0.269275	32.4955	41.0542	-34.7144
 119	1	3	0.096378	30.5817	38.4381	-33.386
 120	1	8	0.063418	33.2682	40.3143	-34.4694
 121	1	8	0.061085	32.5815	41.8816	-33.9991
 122	1	8	0.065045	32.7074	41.4492	-35.7162
 123	1	3	-0.142025	30.7332	40.4659	-32.0702
 124	1	3	-0.448546	30.2427	37.6929	-32.2479
 125	1	3	0.277842	30.0889	38.34	-31.0029
 126	1	3	-0.409063	30.3642	39.7282	-30.9274
 127	1	6	0.203923	30.062	36.627	-32.3441
 128	1	8	0.016419	29.0045	41.0574	-34.9272
 129	1	8	0.049665	30.1503	41.8677	-36.0163
 130	1	8	0.035794	30.0704	42.3323	-34.3059
 131	1	6	0.161583	30.9072	41.5384	-32.0101
 132	1	6	0.199011	30.2345	40.2511	-29.9815
 133	1	1	0.463181	25.4676	32.5679	-40.8891
 134	1	2	0.074399	26.7715	32.6226	-40.3886
 135	1	3	0.034296	26.6448	32.3455	-38.9347
 136	1	2	0.051625	24.5308	32.2496	-39.9054
 137	1	3	0.019035	25.3139	32.1174	-38.6539
 138	1	5	-0.389616	27.8075	32.8754	-40.9822
 139	1	5	-0.380104	23.3215	32.1277	-40.0095
 140	1	3	-0.045097	27.6168	32.3505	-37.9257
 141	1	3	-0.056032	24.8775	31.868	-37.3528
 142	1	3	-0.174781	25.8293	31.9146	-36.3153
 143	1	3	-0.129342	27.2068	32.1596	-36.582
 144	1	6	0.168842	28.6571	32.551	-38.178
 145	1	6	0.15893	23.8237	31.6906	-37.1514
 146	1	6	0.147704	25.4631	31.7852	-35.3041
 147	1	2	0.584577	28.2467	32.299	-35.4861
 148	1	3	-0.046755	27.812	32.7915	-34.1302
 149	1	3	-0.110868	26.9514	32.0379	-33.2981
 150	1	3	-0.046132	26.4508	32.6485	-32.1398
 151	1	3	-0.135873	28.227	34.082	-33.7176
 152	1	3	-0.117662	27.7157	34.6743	-32.546
 153	1	3	-0.064457	26.8075	33.934	-31.7835
 154	1	2	0.492569	25.9781	34.3451	-30.6205
 155	1	1	-0.072087	25.1324	33.2725	-30.3711
 156	1	2	0.477555	25.3843	32.1942	-31.2115
 157	1	3	0.042617	23.9944	33.3421	-29.5237
 158	1	3	-0.20367	23.7172	32.329	-28.5906
 159	1	3	-0.057018	22.4974	32.3204	-27.8892
 160	1	3	-0.18182	23.0611	34.3753	-29.7041
 161	1	3	-0.14326	21.8458	34.3658	-29.0044
 162	1	3	0.043342	21.5206	33.3165	-28.1188
 163	1	6	0.163244	24.4195	31.5109	-28.452
 164	1	6	0.101178	22.303	31.4962	-27.2109
 165	1	6	0.165346	27.9593	35.6971	-32.2754
 166	1	6	0.135111	28.9019	34.6503	-34.3518
 167	1	6	0.171751	26.625	31.0369	-33.5715
 168	1	5	-0.478239	24.7752	31.1409	-31.2887
 169	1	5	-0.481107	25.9674	35.4477	-30.0987
 170	1	5	-0.49957	29.4323	32.2986	-35.7731
 171	1	6	0.151248	23.2492	35.1656	-30.4281
 172	1	6	0.146138	21.1217	35.1503	-29.2107
 173	1	7	0.044043	20.0897	33.2303	-27.5367
 174	1	7	-0.215975	19.721	31.8	-27.0541
 175	1	8	0.063789	20.2923	31.5183	-26.1607
 176	1	8	0.072206	19.9192	31.0606	-27.8408
 177	1	8	0.045489	18.6578	31.7215	-26.8032
 178	1	7	0.005306	19.8379	34.2852	-26.4098
 179	1	7	0.164932	18.4284	34.9275	-26.6423
 180	1	8	0.005277	20.6052	35.0682	-26.481
 181	1	8	0.017604	19.9319	33.8501	-25.4064
 182	1	3	0.008363	18.1801	34.6105	-28.1054
 183	1	7	-0.151488	18.4492	36.4495	-26.3714
 184	1	7	-0.269275	17.3423	34.2801	-25.7487
 185	1	3	0.096378	19.0735	33.66	-28.5827
 186	1	8	0.063418	16.3551	34.7048	-25.9712
 187	1	8	0.061085	17.5536	34.4545	-24.6862
 188	1	8	0.065045	17.277	33.1991	-25.9084
 189	1	3	-0.142025	17.2442	35.208	-28.9664
 190	1	3	-0.448546	19.0694	33.2783	-29.9326
 191	1	3	0.277842	18.1725	33.8949	-30.8275
 192	1	3	-0.409063	17.2533	34.8505	-30.3312
 193	1	6	0.203923	19.8038	32.5627	-30.2932
 194	1	8	0.016419	17.4521	36.8897	-26.496
 195	1	8	0.049665	19.1194	36.9529	-27.0726
 196	1	8	0.035794	18.7896	36.6651	-25.3508
 197	1	6	0.161583	16.5603	35.9665	-28.592
 198	1	6	0.199011	16.5695	35.3446	-31.0169
 199	1	1	0.463181	24.7782	17.2478	-36.9197
 200	1	2	0.074399	23.7898	18.2394	-36.936
 201	1	3	0.034296	24.5257	19.5198	-37.0723
 202	1	2	0.051625	26.069	17.7881	-36.9196
 203	1	3	0.019035	25.88	19.2515	-37.0539
 204	1	5	-0.389616	22.5757	18.1174	-36.9513
 205	1	5	-0.380104	27.144	17.2114	-36.968
 206	1	3	-0.045097	24.0362	20.7981	-37.3609
 207	1	3	-0.056032	26.831	20.2494	-37.2908
 208	1	3	-0.174781	26.363	21.5415	-37.6036
 209	1	3	-0.129342	24.9708	21.8107	-37.6687
 210	1	6	0.168842	22.9641	20.9759	-37.4295
 211	1	6	0.15893	27.8925	20.0104	-37.291
 212	1	6	0.147704	27.0806	22.3267	-37.8358
 213	1	2	0.584577	24.4674	23.1358	-38.1588
 214	1	3	-0.046755	24.8827	23.5933	-39.5373
 215	1	3	-0.110868	24.61	24.9234	-39.9296
 216	1	3	-0.046132	24.9652	25.3231	-41.2234
 217	1	3	-0.135873	25.4912	22.7052	-40.4697
 218	1	3	-0.117662	25.843	23.1332	-41.7674
 219	1	3	-0.064457	25.5652	24.4591	-42.1173
 220	1	2	0.492569	25.8222	25.2016	-43.3826
 221	1	1	-0.072087	25.3525	26.4877	-43.1565
 222	1	2	0.477555	24.8188	26.6421	-41.8834
 223	1	3	0.042617	25.4813	27.573	-44.0603
 224	1	3	-0.20367	26.745	27.958	-44.5383
 225	1	3	-0.057018	26.9078	29.1848	-45.2052
 226	1	3	-0.18182	24.3656	28.375	-44.3441
 227	1	3	-0.14326	24.5275	29.5969	-45.0097
 228	1	3	0.043342	25.8062	30.0462	-45.4046
 229	1	6	0.163244	27.6169	27.3436	-44.3283
 230	1	6	0.101178	27.9112	29.4881	-45.4846
 231	1	6	0.165346	26.3087	22.4577	-42.483
 232	1	6	0.135111	25.679	21.6681	-40.2039
 233	1	6	0.171751	24.1317	25.6272	-39.2489
 234	1	5	-0.478239	24.3796	27.6549	-41.3658
 235	1	5	-0.481107	26.3827	24.768	-44.374
 236	1	5	-0.49957	23.6454	23.7572	-37.5072
 237	1	6	0.151248	23.3844	28.1015	-43.9632
 238	1	6	0.146138	23.6631	30.2455	-45.1189
 239	1	7	0.044043	25.9728	31.5273	-45.799
 240	1	7	-0.215975	27.4311	31.9584	-46.1119
 241	1	8	0.063789	27.8383	31.3932	-46.9597
 242	1	8	0.072206	28.0852	31.8051	-45.2437
 243	1	8	0.045489	27.4758	33.0253	-46.3655
 244	1	7	0.005306	25.0191	31.9567	-46.9632
 245	1	7	0.164932	24.101	33.1179	-46.4521
 246	1	8	0.005277	24.4106	31.1028	-47.2879
 247	1	8	0.017604	25.5883	32.2662	-47.8498
 248	1	3	0.008363	24.3916	33.1536	-44.9636
 249	1	7	-0.151488	22.6099	32.8162	-46.7403
 250	1	7	-0.269275	24.4948	34.4651	-47.1028
 251	1	3	0.096378	25.4518	32.3285	-44.6239
 252	1	8	0.063418	24.3425	34.4369	-48.1891
 253	1	8	0.061085	25.5501	34.6989	-46.9126
 254	1	8	0.065045	23.8913	35.2868	-46.6968
 255	1	3	-0.142025	23.6825	33.843	-43.9676
 256	1	3	-0.448546	25.8367	32.1508	-43.2864
 257	1	3	0.277842	25.1294	32.8061	-42.2592
 258	1	3	-0.409063	24.0526	33.6547	-42.6198
 259	1	6	0.203923	26.6444	31.4651	-43.044
 260	1	8	0.016419	22.2903	31.8924	-46.2421
 261	1	8	0.049665	22.4375	32.6976	-47.8175
 262	1	8	0.035794	21.9655	33.6296	-46.3844
 263	1	6	0.161583	22.836	34.4735	-44.2305
 264	1	6	0.199011	23.4686	34.1348	-41.8414
 265	1	1	0.463181	22.2481	9.28418	-21.0143
 266	1	2	0.074399	23.1667	8.6767	-21.8789
 267	1	3	0.034296	22.3417	7.99594	-22.9036
 268	1	2	0.051625	20.9305	8.89523	-21.2878
 269	1	3	0.019035	21.0138	8.10261	-22.5407
 270	1	5	-0.389616	24.3793	8.8094	-21.9326
 271	1	5	-0.380104	19.8957	9.30433	-20.7871
 272	1	3	-0.045097	22.7217	7.56347	-24.1789
 273	1	3	-0.056032	19.9863	7.70777	-23.4051
 274	1	3	-0.174781	20.3447	7.27022	-24.6968
 275	1	3	-0.129342	21.7016	7.25791	-25.1087
 276	1	6	0.168842	23.7704	7.58525	-24.4699
 277	1	6	0.15893	18.9442	7.82679	-23.1159
 278	1	6	0.147704	19.5631	7.02436	-25.4145
 279	1	2	0.584577	22.0277	7.04685	-26.5625
 280	1	3	-0.046755	22.7254	8.1562	-27.3284
 281	1	3	-0.110868	22.9767	7.98033	-28.7119
 282	1	3	-0.046132	23.5751	9.02681	-29.4283
 283	1	3	-0.135873	23.0764	9.39789	-26.722
 284	1	3	-0.117662	23.6948	10.429	-27.4582
 285	1	3	-0.064457	23.9308	10.2124	-28.8189
 286	1	2	0.492569	24.5097	11.1145	-29.85
 287	1	1	-0.072087	24.4559	10.403	-31.0411
 288	1	2	0.477555	23.9102	9.13571	-30.8728
 289	1	3	0.042617	24.8791	10.9164	-32.2974
 290	1	3	-0.20367	25.7292	10.1612	-33.1217
 291	1	3	-0.057018	26.1012	10.6399	-34.3873
 292	1	3	-0.18182	24.4287	12.1691	-32.7484
 293	1	3	-0.14326	24.7918	12.6433	-34.0204
 294	1	3	0.043342	25.6174	11.8737	-34.8699
 295	1	6	0.163244	26.0843	9.18775	-32.7933
 296	1	6	0.101178	26.7513	10.03	-35.0077
 297	1	6	0.165346	23.9617	11.3777	-26.9951
 298	1	6	0.135111	22.8534	9.59597	-25.6792
 299	1	6	0.171751	22.6917	7.06198	-29.2246
 300	1	5	-0.478239	23.7154	8.2811	-31.7198
 301	1	5	-0.481107	24.9205	12.2473	-29.6646
 302	1	5	-0.49957	21.5924	6.06649	-27.1424
 303	1	6	0.151248	23.7807	12.7742	-32.1187
 304	1	6	0.146138	24.4054	13.6059	-34.3392
 305	1	7	0.044043	25.9815	12.3253	-36.2978
 306	1	7	-0.215975	27.4997	12.6292	-36.3939
 307	1	8	0.063789	28.0981	11.7282	-36.2113
 308	1	8	0.072206	27.7956	13.3837	-35.6542
 309	1	8	0.045489	27.7626	13.0134	-37.3882
 310	1	7	0.005306	25.5617	11.2425	-37.3477
 311	1	7	0.164932	24.1369	11.6055	-37.8599
 312	1	8	0.005277	25.6069	10.2154	-36.9667
 313	1	8	0.017604	26.26	11.2863	-38.1945
 314	1	3	0.008363	24.1247	13.1027	-37.6345
 315	1	7	-0.151488	23.0371	10.9227	-37.0115
 316	1	7	-0.269275	23.9634	11.2213	-39.3497
 317	1	3	0.096378	25.1437	13.5051	-36.7797
 318	1	8	0.063418	24.694	11.745	-39.9796
 319	1	8	0.061085	22.9602	11.479	-39.7109
 320	1	8	0.065045	24.1039	10.1421	-39.4908
 321	1	3	-0.142025	23.2626	14.0416	-38.2149
 322	1	3	-0.448546	25.3424	14.866	-36.4889
 323	1	3	0.277842	24.5129	15.8456	-37.0855
 324	1	3	-0.409063	23.472	15.4061	-37.9436
 325	1	6	0.203923	26.167	15.1595	-35.845
 326	1	8	0.016419	23.0971	9.83036	-37.0967
 327	1	8	0.049665	22.0395	11.2349	-37.3447
 328	1	8	0.035794	23.1285	11.1837	-35.9504
 329	1	6	0.161583	22.4684	13.7219	-38.886
 330	1	6	0.199011	22.8223	16.1327	-38.427
 331	1	1	0.463181	20.9081	9.04031	-0.266365
 332	1	2	0.074399	20.8919	10.1234	-1.14354
 333	1	3	0.034296	21.3882	9.58632	-2.43319
 334	1	2	0.051625	21.329	7.85761	-0.879219
 335	1	3	0.019035	21.6368	8.23636	-2.28594
 336	1	5	-0.389616	20.6042	11.2868	-0.91242
 337	1	5	-0.380104	21.4888	6.75749	-0.376703
 338	1	3	-0.045097	21.6781	10.2609	-3.62181
 339	1	3	-0.056032	22.1723	7.47883	-3.33637
 340	1	3	-0.174781	22.46	8.13693	-4.55483
 341	1	3	-0.129342	22.2098	9.5284	-4.70802
 342	1	6	0.168842	21.5245	11.3372	-3.68652
 343	1	6	0.15893	22.3913	6.42247	-3.19423
 344	1	6	0.147704	22.9269	7.57394	-5.36056
 345	1	2	0.584577	22.614	10.3072	-5.93523
 346	1	3	-0.046755	22.2626	9.85261	-7.33767
 347	1	3	-0.110868	22.6461	10.6871	-8.41675
 348	1	3	-0.046132	22.2601	10.339	-9.71549
 349	1	3	-0.135873	21.4922	8.68778	-7.6129
 350	1	3	-0.117662	21.1309	8.34515	-8.93615
 351	1	3	-0.064457	21.5313	9.19723	-9.97457
 352	1	2	0.492569	21.2264	9.168	-11.4346
 353	1	1	-0.072087	21.7698	10.3362	-11.9527
 354	1	2	0.477555	22.4296	11.0845	-10.9887
 355	1	3	0.042617	21.5728	10.7987	-13.2807
 356	1	3	-0.20367	20.8125	11.9586	-13.4931
 357	1	3	-0.057018	20.665	12.4823	-14.7848
 358	1	3	-0.18182	22.1693	10.1585	-14.3816
 359	1	3	-0.14326	22.0357	10.6959	-15.6781
 360	1	3	0.043342	21.2867	11.8739	-15.8953
 361	1	6	0.163244	20.3594	12.4757	-12.6513
 362	1	6	0.101178	20.094	13.397	-14.9164
 363	1	6	0.165346	20.523	7.46715	-9.1483
 364	1	6	0.135111	21.1342	8.05779	-6.80431
 365	1	6	0.171751	23.1967	11.6126	-8.2492
 366	1	5	-0.478239	22.9578	12.1754	-11.1168
 367	1	5	-0.481107	20.5725	8.32218	-12.0192
 368	1	5	-0.49957	23.1432	11.3948	-5.77155
 369	1	6	0.151248	22.7608	9.25945	-14.2288
 370	1	6	0.146138	22.5401	10.2024	-16.5025
 371	1	7	0.044043	21.1711	12.5693	-17.2666
 372	1	7	-0.215975	19.6901	12.5952	-17.7312
 373	1	8	0.063789	19.0577	13.1675	-17.0416
 374	1	8	0.072206	19.2842	11.5771	-17.7904
 375	1	8	0.045489	19.5976	13.0496	-18.726
 376	1	7	0.005306	21.7379	14.0257	-17.1409
 377	1	7	0.164932	22.7057	14.3054	-18.3269
 378	1	8	0.005277	22.2967	14.127	-16.2008
 379	1	8	0.017604	20.9321	14.7703	-17.0931
 380	1	3	0.008363	22.8672	12.9378	-18.9496
 381	1	7	-0.151488	24.058	14.8794	-17.8402
 382	1	7	-0.269275	22.0585	15.2784	-19.3437
 383	1	3	0.096378	22.022	11.9848	-18.3921
 384	1	8	0.063418	22.7187	15.4464	-20.2038
 385	1	8	0.061085	21.8531	16.2521	-18.8815
 386	1	8	0.065045	21.1108	14.875	-19.7232
 387	1	3	-0.142025	23.6323	12.6493	-20.0843
 388	1	3	-0.448546	21.8579	10.7306	-19.0147
 389	1	3	0.277842	22.5666	10.43	-20.2051
 390	1	3	-0.409063	23.4733	11.4005	-20.7035
 391	1	6	0.203923	21.1027	10.045	-18.6384
 392	1	8	0.016419	24.7489	15.0284	-18.6796
 393	1	8	0.049665	24.5387	14.1991	-17.1254
 394	1	8	0.035794	23.9148	15.8485	-17.3456
 395	1	6	0.161583	24.2745	13.4103	-20.5231
 396	1	6	0.199011	24.0166	11.2201	-21.6279
 397	1	1	0.463181	6.28608	-1.76285	2.40431
 398	1	2	0.074399	6.38807	-0.939594	1.28355
 399	1	3	0.034296	7.23673	0.203765	1.72654
 400	1	2	0.051625	6.9615	-1.26247	3.51233
 401	1	3	0.019035	7.56227	0.0095368	3.05593
 402	1	5	-0.389616	5.87638	-1.08758	0.185979
 403	1	5	-0.380104	7.04622	-1.74204	4.63105
 404	1	3	-0.045097	7.71692	1.31489	1.01859
 405	1	3	-0.056032	8.35431	0.914933	3.76407
 406	1	3	-0.174781	8.84252	2.04123	3.07557
 407	1	3	-0.129342	8.54107	2.24615	1.701
 408	1	6	0.168842	7.47691	1.4365	-0.0370145
 409	1	6	0.15893	8.59874	0.732874	4.8085
 410	1	6	0.147704	9.48971	2.73094	3.61261
 411	1	2	0.584577	9.15773	3.39184	0.938051
 412	1	3	-0.046755	9.85925	4.47633	1.70746
 413	1	3	-0.110868	11.2509	4.65913	1.54221
 414	1	3	-0.046132	11.8763	5.68232	2.26756
 415	1	3	-0.135873	9.13246	5.32521	2.582
 416	1	3	-0.117662	9.77846	6.36691	3.28077
 417	1	3	-0.064457	11.1599	6.51944	3.10022
 418	1	2	0.492569	12.0939	7.54597	3.6359
 419	1	1	-0.072087	13.334	7.26042	3.07552
 420	1	2	0.477555	13.2947	6.13108	2.26681
 421	1	3	0.042617	14.4832	8.08814	3.22134
 422	1	3	-0.20367	14.3799	9.4732	3.00745
 423	1	3	-0.057018	15.5078	10.3024	3.1134
 424	1	3	-0.18182	15.7396	7.54328	3.53942
 425	1	3	-0.14326	16.8707	8.37313	3.6421
 426	1	3	0.043342	16.7751	9.7658	3.42675
 427	1	6	0.163244	13.4182	9.91594	2.76162
 428	1	6	0.101178	15.3754	11.3664	2.95155
 429	1	6	0.165346	9.22484	7.04745	3.92603
 430	1	6	0.135111	8.05778	5.19446	2.69271
 431	1	6	0.171751	11.8255	4.03109	0.862932
 432	1	5	-0.478239	14.2084	5.61405	1.64829
 433	1	5	-0.481107	11.7908	8.47675	4.36309
 434	1	5	-0.49957	9.19135	3.38253	-0.28048
 435	1	6	0.151248	15.8453	6.47248	3.69801
 436	1	6	0.146138	17.8293	7.92648	3.89376
 437	1	7	0.044043	18.0255	10.655	3.59357
 438	1	7	-0.215975	17.8615	12.09	3.01895
 439	1	8	0.063789	17.1091	12.6633	3.57505
 440	1	8	0.072206	17.5637	12.0607	1.96292
 441	1	8	0.045489	18.8071	12.6443	3.08008
 442	1	7	0.005306	18.4271	10.7258	5.10381
 443	1	7	0.164932	19.9046	10.2427	5.25711
 444	1	8	0.005277	17.7599	10.0911	5.70214
 445	1	8	0.017604	18.2998	11.7417	5.50124
 446	1	3	0.008363	20.2532	9.75487	3.86418
 447	1	7	-0.151488	20.0196	9.11022	6.30495
 448	1	7	-0.269275	20.8228	11.4226	5.66003
 449	1	3	0.096378	19.2421	10.0116	2.94854
 450	1	8	0.063418	20.7702	12.2299	4.91791
 451	1	8	0.061085	21.8694	11.1015	5.73265
 452	1	8	0.065045	20.5276	11.8363	6.63271
 453	1	3	-0.142025	21.4573	9.1628	3.45263
 454	1	3	-0.448546	19.4208	9.74008	1.58139
 455	1	3	0.277842	20.6396	9.18378	1.13079
 456	1	3	-0.409063	21.6385	8.87454	2.08536
 457	1	6	0.203923	18.6429	10.0092	0.872376
 458	1	8	0.016419	19.3992	8.24988	6.02353
 459	1	8	0.049665	19.6914	9.45858	7.29259
 460	1	8	0.035794	21.0564	8.76331	6.39759
 461	1	6	0.161583	22.2461	8.96173	4.17444
 462	1	6	0.199011	22.5786	8.43828	1.75374
 463	1	1	0.463181	-8.94666	-9.84003	-6.87388
 464	1	2	0.074399	-8.43839	-9.13902	-5.77929
 465	1	3	0.034296	-6.95967	-9.31049	-5.8661
 466	1	2	0.051625	-7.9511	-10.4414	-7.64069
 467	1	3	0.019035	-6.68018	-10.092	-6.97222
 468	1	5	-0.389616	-9.04861	-8.53367	-4.91337
 469	1	5	-0.380104	-8.07188	-11.1453	-8.62974
 470	1	3	-0.045097	-5.93907	-8.86802	-5.01134
 471	1	3	-0.056032	-5.37958	-10.4837	-7.295
 472	1	3	-0.174781	-4.34337	-10.0678	-6.44066
 473	1	3	-0.129342	-4.60899	-9.26361	-5.30187
 474	1	6	0.168842	-6.18694	-8.28955	-4.12372
 475	1	6	0.15893	-5.18849	-11.118	-8.15826
 476	1	6	0.147704	-3.32432	-10.3947	-6.64502
 477	1	2	0.584577	-3.47799	-8.96728	-4.35625
 478	1	3	-0.046755	-3.48445	-7.72185	-3.5145
 479	1	3	-0.110868	-2.95756	-7.80611	-2.20906
 480	1	3	-0.046132	-2.79292	-6.62698	-1.48003
 481	1	3	-0.135873	-3.85052	-6.45592	-4.04559
 482	1	3	-0.117662	-3.63972	-5.27192	-3.30121
 483	1	3	-0.064457	-3.08861	-5.38948	-2.01623
 484	1	2	0.492569	-2.56312	-4.35042	-1.08112
 485	1	1	-0.072087	-1.9701	-5.05921	-0.043495
 486	1	2	0.477555	-2.12126	-6.42878	-0.177536
 487	1	3	0.042617	-1.06784	-4.52959	0.909299
 488	1	3	-0.20367	-1.35676	-4.60689	2.28029
 489	1	3	-0.057018	-0.335109	-4.41521	3.22409
 490	1	3	-0.18182	0.228149	-4.18496	0.494138
 491	1	3	-0.14326	1.25006	-3.99517	1.43788
 492	1	3	0.043342	0.992042	-4.16301	2.81638
 493	1	6	0.163244	-2.34658	-4.90576	2.61387
 494	1	6	0.101178	-0.561697	-4.55032	4.27767
 495	1	6	0.165346	-3.83375	-4.28999	-3.73003
 496	1	6	0.135111	-4.21268	-6.38013	-5.06881
 497	1	6	0.171751	-2.61446	-8.75577	-1.79911
 498	1	5	-0.478239	-1.69235	-7.30976	0.547831
 499	1	5	-0.481107	-2.52967	-3.14969	-1.28359
 500	1	5	-0.49957	-2.55982	-9.76315	-4.24417
 501	1	6	0.151248	0.466902	-4.15061	-0.566055
 502	1	6	0.146138	2.25571	-3.80253	1.07552
 503	1	7	0.044043	2.12091	-4.20255	3.86327
 504	1	7	-0.215975	1.90121	-3.12508	4.95765
 505	1	8	0.063789	1.78547	-2.13116	4.50771
 506	1	8	0.072206	2.75653	-3.08675	5.64529
 507	1	8	0.045489	1.00269	-3.33275	5.55073
 508	1	7	0.005306	2.21772	-5.63285	4.48782
 509	1	7	0.164932	3.26613	-6.445	3.66652
 510	1	8	0.005277	1.25079	-6.1482	4.54421
 511	1	8	0.017604	2.57764	-5.53892	5.52138
 512	1	3	0.008363	4.13576	-5.32382	3.12529
 513	1	7	-0.151488	2.59868	-7.23724	2.51547
 514	1	7	-0.269275	4.04217	-7.42595	4.58016
 515	1	3	0.096378	3.50985	-4.087	3.2511
 516	1	8	0.063418	4.78595	-7.99547	4.00935
 517	1	8	0.061085	3.35635	-8.14492	5.04669
 518	1	8	0.065045	4.56893	-6.88979	5.37985
 519	1	3	-0.142025	5.44651	-5.4165	2.63023
 520	1	3	-0.448546	4.18527	-2.90026	2.92684
 521	1	3	0.277842	5.52241	-2.96169	2.48521
 522	1	3	-0.409063	6.13613	-4.22674	2.31747
 523	1	6	0.203923	3.70424	-1.94033	3.0864
 524	1	8	0.016419	1.82322	-7.91099	2.90207
 525	1	8	0.049665	3.33756	-7.84649	1.98031
 526	1	8	0.035794	2.12918	-6.57044	1.78411
 527	1	6	0.161583	5.93634	-6.38469	2.54795
 528	1	6	0.199011	7.1758	-4.28213	2.00286
 529	1	1	0.463181	-22.3895	-7.76888	6.44243
 530	1	2	0.074399	-21.4075	-8.23747	5.56487
 531	1	3	0.034296	-22.1435	-8.67271	4.34608
 532	1	2	0.051625	-23.6751	-7.86443	5.90761
 533	1	3	0.019035	-23.4907	-8.44077	4.55174
 534	1	5	-0.389616	-20.202	-8.31041	5.74217
 535	1	5	-0.380104	-24.7397	-7.56463	6.42477
 536	1	3	-0.045097	-21.6755	-9.27517	3.16772
 537	1	3	-0.056032	-24.447	-8.78423	3.59149
 538	1	3	-0.174781	-24.0052	-9.42214	2.41617
 539	1	3	-0.129342	-22.6271	-9.66172	2.19258
 540	1	6	0.168842	-20.6158	-9.49292	3.04862
 541	1	6	0.15893	-25.5056	-8.62546	3.78583
 542	1	6	0.147704	-24.74	-9.76535	1.6897
 543	1	2	0.584577	-22.2052	-10.4622	0.996412
 544	1	3	-0.046755	-21.2046	-9.89332	0.033503
 545	1	3	-0.110868	-20.0734	-10.6675	-0.281405
 546	1	3	-0.046132	-19.1848	-10.1864	-1.24247
 547	1	3	-0.135873	-21.4263	-8.66792	-0.649479
 548	1	3	-0.117662	-20.5475	-8.24014	-1.67546
 549	1	3	-0.064457	-19.4234	-9.034	-1.95795
 550	1	2	0.492569	-18.3722	-8.93906	-3.02134
 551	1	1	-0.072087	-17.5647	-10.0632	-2.8559
 552	1	2	0.477555	-17.9569	-10.8137	-1.75942
 553	1	3	0.042617	-16.5452	-10.5138	-3.74789
 554	1	3	-0.20367	-15.5346	-9.66539	-4.23911
 555	1	3	-0.057018	-14.5146	-10.1741	-5.07245
 556	1	3	-0.18182	-16.5257	-11.8696	-4.12241
 557	1	3	-0.14326	-15.5117	-12.3752	-4.94338
 558	1	3	0.043342	-14.4895	-11.5412	-5.43452
 559	1	6	0.163244	-15.5367	-8.61052	-3.97575
 560	1	6	0.101178	-13.7527	-9.49347	-5.44166
 561	1	6	0.165346	-20.7456	-7.33812	-2.25169
 562	1	6	0.135111	-22.3189	-8.08473	-0.43295
 563	1	6	0.171751	-19.9068	-11.6362	0.17912
 564	1	5	-0.478239	-17.4378	-11.8114	-1.30095
 565	1	5	-0.481107	-18.3173	-8.10101	-3.90391
 566	1	5	-0.49957	-22.6076	-11.6048	0.857971
 567	1	6	0.151248	-17.2937	-12.5503	-3.7626
 568	1	6	0.146138	-15.5306	-13.4286	-5.20748
 569	1	7	0.044043	-13.4366	-12.1558	-6.37903
 570	1	7	-0.215975	-12.6972	-13.3303	-5.67913
 571	1	8	0.063789	-13.3732	-14.169	-5.47324
 572	1	8	0.072206	-12.2675	-13.0059	-4.72293
 573	1	8	0.045489	-11.8804	-13.7112	-6.30577
 574	1	7	0.005306	-14.1409	-12.6396	-7.68702
 575	1	7	0.164932	-14.0587	-11.4814	-8.72545
 576	1	8	0.005277	-15.1737	-12.9746	-7.52924
 577	1	8	0.017604	-13.5925	-13.5076	-8.07791
 578	1	3	0.008363	-12.8297	-10.7396	-8.23576
 579	1	7	-0.151488	-15.3123	-10.5757	-8.68592
 580	1	7	-0.269275	-13.8736	-12.0507	-10.1545
 581	1	3	0.096378	-12.4499	-11.1466	-6.95954
 582	1	8	0.063418	-13.814	-11.2465	-10.8979
 583	1	8	0.061085	-14.7146	-12.7004	-10.4276
 584	1	8	0.065045	-12.9512	-12.6422	-10.2251
 585	1	3	-0.142025	-12.03	-9.86235	-8.98108
 586	1	3	-0.448546	-11.1948	-10.7793	-6.43582
 587	1	3	0.277842	-10.326	-9.97939	-7.21389
 588	1	3	-0.409063	-10.7798	-9.48549	-8.45965
 589	1	6	0.203923	-10.8594	-11.1895	-5.48813
 590	1	8	0.016419	-15.2122	-9.74472	-9.39555
 591	1	8	0.049665	-15.4694	-10.1457	-7.69058
 592	1	8	0.035794	-16.2121	-11.1431	-8.95508
 593	1	6	0.161583	-12.3313	-9.55486	-9.97995
 594	1	6	0.199011	-10.1097	-8.89128	-9.0769
 595	1	1	0.463181	-9.66196	-3.03169	18.0772
 596	1	2	0.074399	-10.2378	-3.14848	16.8118
 597	1	3	0.034296	-9.5757	-4.31747	16.1856
 598	1	2	0.051625	-8.71745	-4.01994	18.3366
 599	1	3	0.019035	-8.67774	-4.84142	17.0958
 600	1	5	-0.389616	-11.0771	-2.4337	16.2885
 601	1	5	-0.380104	-8.01511	-4.15462	19.3245
 602	1	3	-0.045097	-9.71222	-4.83367	14.8891
 603	1	3	-0.056032	-7.86525	-5.92635	16.7599
 604	1	3	-0.174781	-8.01468	-6.48837	15.4746
 605	1	3	-0.129342	-8.9475	-5.9722	14.5301
 606	1	6	0.168842	-10.3681	-4.32513	14.1877
 607	1	6	0.15893	-7.13452	-6.30981	17.469
 608	1	6	0.147704	-7.37966	-7.32901	15.1972
 609	1	2	0.584577	-8.99518	-6.60629	13.1507
 610	1	3	-0.046755	-10.2244	-6.59051	12.2513
 611	1	3	-0.110868	-11.5236	-6.21141	12.6858
 612	1	3	-0.046132	-12.5749	-6.2156	11.7534
 613	1	3	-0.135873	-10.065	-7.02835	10.9055
 614	1	3	-0.117662	-11.144	-7.07283	10.0005
 615	1	3	-0.064457	-12.3942	-6.6455	10.4544
 616	1	2	0.492569	-13.6904	-6.5284	9.73319
 617	1	1	-0.072087	-14.5776	-5.97912	10.6477
 618	1	2	0.477555	-13.9922	-5.77937	11.893
 619	1	3	0.042617	-15.9129	-5.61025	10.3265
 620	1	3	-0.20367	-16.8204	-6.55612	9.81962
 621	1	3	-0.057018	-18.1461	-6.18942	9.52722
 622	1	3	-0.18182	-16.3402	-4.28394	10.5045
 623	1	3	-0.14326	-17.6644	-3.91702	10.212
 624	1	3	0.043342	-18.5951	-4.86634	9.73968
 625	1	6	0.163244	-16.5027	-7.58275	9.65705
 626	1	6	0.101178	-18.8224	-6.95527	9.16005
 627	1	6	0.165346	-11.0108	-7.41297	8.97494
 628	1	6	0.135111	-9.08507	-7.34687	10.554
 629	1	6	0.171751	-11.7405	-5.92895	13.7111
 630	1	5	-0.478239	-14.4931	-5.28549	12.889
 631	1	5	-0.481107	-13.8998	-6.83697	8.57279
 632	1	5	-0.49957	-7.98997	-7.1762	12.7553
 633	1	6	0.151248	-15.6492	-3.53725	10.8879
 634	1	6	0.146138	-17.975	-2.88974	10.3794
 635	1	7	0.044043	-20.0649	-4.44701	9.52962
 636	1	7	-0.215975	-20.1705	-3.31419	8.47355
 637	1	8	0.063789	-19.6828	-3.60862	7.53585
 638	1	8	0.072206	-19.6937	-2.39108	8.82455
 639	1	8	0.045489	-21.2202	-3.08397	8.24875
 640	1	7	0.005306	-20.6967	-4.00483	10.8902
 641	1	7	0.164932	-21.3737	-5.25713	11.524
 642	1	8	0.005277	-21.4706	-3.25084	10.6901
 643	1	8	0.017604	-19.9764	-3.53601	11.572
 644	1	3	0.008363	-21.697	-6.06468	10.2792
 645	1	7	-0.151488	-22.6295	-4.86379	12.3393
 646	1	7	-0.269275	-20.3933	-6.02712	12.4433
 647	1	3	0.096378	-20.9802	-5.61424	9.17508
 648	1	8	0.063418	-19.4926	-6.34126	11.9051
 649	1	8	0.061085	-20.8667	-6.9301	12.8481