pySIMM System Object

1520 atoms
1680 bonds
2967 angles
4757 dihedrals
483 impropers

8 atom types
10 bond types
17 angle types
9 dihedral types
4 improper types

-171.546714 171.546714 xlo xhi
-171.546714 171.546714 ylo yhi
-171.546714 171.546714 zlo zhi

Masses

   1	14.01	# n
   2	12.01	# c
   3	12.01	# ca
   4	1.008	# hn
   5	16.0	# o
   6	1.008	# ha
   7	12.01	# c3
   8	1.008	# hc

Pair Coeffs

   1	0.17	3.249998523775958	# n
   2	0.086	3.3996695084235347	# c
   3	0.086	3.3996695084235347	# ca
   4	0.0157	1.069078461768407	# hn
   5	0.21	2.959921901149463	# o
   6	0.015	2.59964245953351	# ha
   7	0.1094	3.3996695084235347	# c3
   8	0.0157	2.649532787749369	# hc

Bond Coeffs

   1	461.1	1.3984	# ca,ca
   2	427.6	1.3789	# c,n
   3	345.9	1.4906	# c,ca
   4	300.9	1.5375	# c3,c3
   5	345.8	1.086	# ca,ha
   6	384.2	1.4121	# ca,n
   7	637.7	1.2183	# c,o
   8	321.0	1.5156	# c3,ca
   9	330.6	1.0969	# c3,hc
  10	403.2	1.0129	# hn,n

Angle Coeffs

   1	68.72	122.6	# ca,c,o
   2	62.86	111.51	# c3,c3,c3
   3	63.82	123.71	# c,n,ca
   4	67.87	120.19	# ca,ca,n
   5	67.68	115.25	# ca,c,n
   6	63.0	118.11	# ca,c,ca
   7	63.56	112.24	# ca,c3,ca
   8	63.15	112.07	# c3,c3,ca
   9	46.34	109.8	# c3,c3,hc
  10	74.22	123.05	# n,c,o
  11	48.33	117.55	# c,n,hn
  12	64.28	120.33	# c,ca,ca
  13	39.4	107.58	# hc,c3,hc
  14	66.62	120.02	# ca,ca,ca
  15	63.53	120.77	# c3,ca,ca
  16	63.74	127.08	# c,n,c
  17	48.18	119.88	# ca,ca,ha

Dihedral Coeffs

   1	1	2.5	2	180	# X,c,n,X
   2	1	0.45	2	180	# X,ca,n,X
   3	3	0.18	3	0	0.25	2	180	0.2	1	180	# c3,c3,c3,c3
   4	2	2.5	2	180	2.0	1	0	# hn,n,c,o
   5	1	3.625	2	180	# X,ca,ca,X
   6	1	0.16	3	0	# hc,c3,c3,c3
   7	1	1.0	2	180	# X,c,ca,X
   8	1	0.15555555555555556	3	0	# X,c3,c3,X
   9	1	0.0	2	0	# X,c3,ca,X

Improper Coeffs

   1	10.5	-1	2	# c,X,X,o
   2	1.1	-1	2	# ca,X,X,ha
   3	1.1	-1	2	# ca,ca,ca,c3
   4	1.1	-1	2	# n,X,X,hn

Atoms

   1	1	1	0.463181	-40.3533	6.99844	50.9882
   2	1	2	0.074399	-41.0813	7.28969	49.8369
   3	1	3	0.034296	-40.2562	6.771	48.7197
   4	1	2	0.051625	-39.1576	6.33426	50.7253
   5	1	3	0.019035	-39.1158	6.19451	49.2461
   6	1	5	-0.389616	-42.1146	7.93131	49.7337
   7	1	5	-0.380104	-38.2756	6.02713	51.5097
   8	1	3	-0.045097	-40.4655	6.86931	47.3404
   9	1	3	-0.056032	-38.1285	5.65096	48.4179
  10	1	3	-0.174781	-38.3203	5.73365	47.0224
  11	1	3	-0.129342	-39.4645	6.3718	46.4719
  12	1	6	0.168842	-41.3706	7.34301	46.9686
  13	1	6	0.15893	-37.2316	5.20691	48.8431
  14	1	6	0.147704	-37.5519	5.34452	46.3564
  15	1	2	0.584577	-39.5856	6.5139	44.9745
  16	1	3	-0.046755	-40.3069	7.69888	44.3683
  17	1	3	-0.110868	-40.3822	8.95466	45.0259
  18	1	3	-0.046132	-41.0064	10.0242	44.3653
  19	1	3	-0.135873	-40.8587	7.56757	43.0671
  20	1	3	-0.117662	-41.4922	8.64987	42.4258
  21	1	3	-0.064457	-41.5503	9.87058	43.1068
  22	1	2	0.492569	-42.1102	11.1768	42.6768
  23	1	1	-0.072087	-41.854	12.066	43.7169
  24	1	2	0.477555	-41.1856	11.4485	44.7717
  25	1	3	0.042617	-42.1817	13.455	43.6694
  26	1	3	-0.20367	-42.6982	14.1212	44.7957
  27	1	3	-0.057018	-43.0568	15.4794	44.7261
  28	1	3	-0.18182	-42.0023	14.1874	42.4818
  29	1	3	-0.14326	-42.3637	15.5415	42.4099
  30	1	3	0.043342	-42.9126	16.2078	43.5246
  31	1	6	0.163244	-42.8381	13.5837	45.7302
  32	1	6	0.101178	-43.4608	15.9491	45.6162
  33	1	6	0.165346	-41.9097	8.55139	41.4256
  34	1	6	0.135111	-40.7861	6.61384	42.5472
  35	1	6	0.171751	-39.931	9.11805	46.0021
  36	1	5	-0.478239	-40.7961	11.9533	45.8136
  37	1	5	-0.481107	-42.6809	11.3892	41.6198
  38	1	5	-0.49957	-39.0917	5.66776	44.2454
  39	1	6	0.151248	-41.6004	13.701	41.5964
  40	1	6	0.146138	-42.2347	16.0701	41.4688
  41	1	7	0.044043	-43.3202	17.6902	43.3894
  42	1	7	-0.215975	-44.184	18.2212	44.5666
  43	1	8	0.063789	-45.0874	17.6117	44.6973
  44	1	8	0.072206	-44.5072	19.2531	44.3754
  45	1	8	0.045489	-43.6278	18.2197	45.5111
  46	1	7	0.005306	-42.0562	18.5899	43.2001
  47	1	7	0.164932	-42.2037	19.4136	41.8822
  48	1	8	0.005277	-41.162	17.9591	43.1418
  49	1	8	0.017604	-41.903	19.2526	44.0611
  50	1	3	0.008363	-43.4744	18.8554	41.2722
  51	1	7	-0.151488	-40.9809	19.1908	40.9592
  52	1	7	-0.269275	-42.3578	20.9223	42.1894
  53	1	3	0.096378	-44.0832	17.9163	42.0963
  54	1	8	0.063418	-43.2256	21.1047	42.8362
  55	1	8	0.061085	-42.4989	21.4992	41.2668
  56	1	8	0.065045	-41.4658	21.3102	42.6982
  57	1	3	-0.142025	-44.0426	19.1978	40.0335
  58	1	3	-0.448546	-45.2745	17.2811	41.7099
  59	1	3	0.277842	-45.8542	17.6097	40.4746
  60	1	3	-0.409063	-45.2398	18.5645	39.6428
  61	1	6	0.203923	-45.7419	16.5433	42.3531
  62	1	8	0.016419	-40.8648	18.1287	40.7078
  63	1	8	0.049665	-40.0583	19.5255	41.451
  64	1	8	0.035794	-41.0868	19.75	40.0212
  65	1	6	0.161583	-43.5678	19.9383	39.394
  66	1	6	0.199011	-45.7024	18.8101	38.691
  67	1	1	0.463181	-37.798	13.1335	40.8647
  68	1	2	0.074399	-38.5481	13.2674	42.03
  69	1	3	0.034296	-38.3929	14.6872	42.4302
  70	1	2	0.051625	-37.1873	14.318	40.4665
  71	1	3	0.019035	-37.5784	15.31	41.5025
  72	1	5	-0.389616	-39.104	12.3892	42.6686
  73	1	5	-0.380104	-36.4254	14.5013	39.5321
  74	1	3	-0.045097	-38.8975	15.3642	43.5483
  75	1	3	-0.056032	-37.213	16.651	41.6429
  76	1	3	-0.174781	-37.7039	17.3525	42.7626
  77	1	3	-0.129342	-38.537	16.7233	43.7279
  78	1	6	0.168842	-39.5603	14.8398	44.2336
  79	1	6	0.15893	-36.5646	17.128	40.911
  80	1	6	0.147704	-37.4354	18.4012	42.8836
  81	1	2	0.584577	-39.0683	17.5451	44.8797
  82	1	3	-0.046755	-39.719	16.8833	46.0664
  83	1	3	-0.110868	-39.1347	15.7669	46.7156
  84	1	3	-0.046132	-39.7704	15.2605	47.8605
  85	1	3	-0.135873	-40.8974	17.4653	46.5984
  86	1	3	-0.117662	-41.5328	16.9275	47.7323
  87	1	3	-0.064457	-40.9421	15.8159	48.3397
  88	1	2	0.492569	-41.3283	15.0998	49.5798
  89	1	1	-0.072087	-40.3256	14.1694	49.8002
  90	1	2	0.477555	-39.3567	14.1829	48.8039
  91	1	3	0.042617	-40.295	13.3331	50.9448
  92	1	3	-0.20367	-39.2903	13.4764	51.9161
  93	1	3	-0.057018	-39.2791	12.6539	53.0575
  94	1	3	-0.18182	-41.3124	12.3894	51.146
  95	1	3	-0.14326	-41.3038	11.572	52.2858
  96	1	3	0.043342	-40.2711	11.6663	53.2457
  97	1	6	0.163244	-38.5171	14.227	51.7904
  98	1	6	0.101178	-38.4788	12.781	53.7795
  99	1	6	0.165346	-42.4315	17.3793	48.1491
 100	1	6	0.135111	-41.3127	18.3548	46.132
 101	1	6	0.171751	-38.1965	15.3328	46.3742
 102	1	5	-0.478239	-38.3179	13.5446	48.7586
 103	1	5	-0.481107	-42.3004	15.3377	50.2749
 104	1	5	-0.49957	-39.0463	18.7639	44.8154
 105	1	6	0.151248	-42.1151	12.2884	50.4191
 106	1	6	0.146138	-42.0992	10.8402	52.4065
 107	1	7	0.044043	-40.2376	10.6635	54.4209
 108	1	7	-0.215975	-38.8608	10.5716	55.1352
 109	1	8	0.063789	-38.0577	10.3409	54.4254
 110	1	8	0.072206	-38.8612	9.77773	55.8918
 111	1	8	0.045489	-38.6098	11.5099	55.6456
 112	1	7	0.005306	-41.3681	10.9543	55.4593
 113	1	7	0.164932	-42.1165	9.61497	55.7661
 114	1	8	0.005277	-42.0737	11.6779	55.0295
 115	1	8	0.017604	-40.9758	11.42	56.373
 116	1	3	0.008363	-41.6698	8.72158	54.6235
 117	1	7	-0.151488	-43.6494	9.8304	55.7671
 118	1	7	-0.269275	-41.6752	9.01955	57.1248
 119	1	3	0.096378	-40.6212	9.28614	53.912
 120	1	8	0.063418	-40.5932	8.84436	57.1501
 121	1	8	0.061085	-42.1718	8.05853	57.3089
 122	1	8	0.065045	-41.929	9.69578	57.951
 123	1	3	-0.142025	-42.2437	7.50893	54.2053
 124	1	3	-0.448546	-40.1297	8.68092	52.7476
 125	1	3	0.277842	-40.7248	7.49715	52.27
 126	1	3	-0.409063	-41.7723	6.90855	53.0182
 127	1	6	0.203923	-39.3515	9.17284	52.1788
 128	1	8	0.016419	-43.9957	10.1935	54.7907
 129	1	8	0.049665	-43.9383	10.5687	56.5259
 130	1	8	0.035794	-44.1808	8.8962	55.987
 131	1	6	0.161583	-43.073	7.07344	54.759
 132	1	6	0.199011	-42.2515	6.00365	52.652
 133	1	1	0.463181	-33.3597	18.2591	53.1624
 134	1	2	0.074399	-33.3469	17.0233	53.8096
 135	1	3	0.034296	-34.2184	16.1477	52.9871
 136	1	2	0.051625	-34.1703	18.2666	52.0274
 137	1	3	0.019035	-34.7002	16.885	51.9231
 138	1	5	-0.389616	-32.7196	16.6882	54.801
 139	1	5	-0.380104	-34.3668	19.1756	51.2375
 140	1	3	-0.045097	-34.5332	14.7936	53.144
 141	1	3	-0.056032	-35.5178	16.3102	50.9458
 142	1	3	-0.174781	-35.8403	14.9441	51.0764
 143	1	3	-0.129342	-35.3464	14.1742	52.1663
 144	1	6	0.168842	-34.1441	14.2362	53.9953
 145	1	6	0.15893	-35.8827	16.9061	50.112
 146	1	6	0.147704	-36.4879	14.491	50.3291
 147	1	2	0.584577	-35.7069	12.7203	52.341
 148	1	3	-0.046755	-36.0528	11.8879	51.1349
 149	1	3	-0.110868	-35.4016	12.0884	49.8928
 150	1	3	-0.046132	-35.7943	11.2987	48.8052
 151	1	3	-0.135873	-37.0311	10.8689	51.2561
 152	1	3	-0.117662	-37.4198	10.0959	50.1466
 153	1	3	-0.064457	-36.786	10.3476	48.9283
 154	1	2	0.492569	-36.9728	9.69774	47.6125
 155	1	1	-0.072087	-36.0371	10.2777	46.7679
 156	1	2	0.477555	-35.2992	11.2691	47.4028
 157	1	3	0.042617	-35.8609	9.87848	45.4164
 158	1	3	-0.20367	-34.5873	9.57564	44.9041
 159	1	3	-0.057018	-34.4338	9.17648	43.5637
 160	1	3	-0.18182	-36.978	9.7502	44.5801
 161	1	3	-0.14326	-36.8329	9.31487	43.2579
 162	1	3	0.043342	-35.5554	9.05441	42.7139
 163	1	6	0.163244	-33.7089	9.67485	45.5369
 164	1	6	0.101178	-33.4318	8.98831	43.1927
 165	1	6	0.165346	-38.1798	9.3239	50.2218
 166	1	6	0.135111	-37.5027	10.6929	52.2177
 167	1	6	0.171751	-34.6151	12.8298	49.7691
 168	1	5	-0.478239	-34.4071	11.9591	46.9387
 169	1	5	-0.481107	-37.7914	8.83246	47.3554
 170	1	5	-0.49957	-35.7661	12.2417	53.4622
 171	1	6	0.151248	-37.9634	10.0067	44.9516
 172	1	6	0.146138	-37.7223	9.23944	42.6364
 173	1	7	0.044043	-35.4341	8.77751	41.1993
 174	1	7	-0.215975	-33.9922	8.91216	40.6402
 175	1	8	0.063789	-33.3298	8.14241	41.0559
 176	1	8	0.072206	-33.5705	9.89806	40.8747
 177	1	8	0.045489	-33.9829	8.80168	39.5487
 178	1	7	0.005306	-36.0502	7.39615	40.8074
 179	1	7	0.164932	-37.0751	7.62194	39.6466
 180	1	8	0.005277	-36.5649	6.96864	41.6784
 181	1	8	0.017604	-35.2762	6.66921	40.5277
 182	1	3	0.008363	-37.2805	9.1256	39.6741
 183	1	7	-0.151488	-38.3904	6.85258	39.9215
 184	1	7	-0.269275	-36.4871	7.18298	38.2847
 185	1	3	0.096378	-36.3419	9.75462	40.4792
 186	1	8	0.063418	-37.1919	7.39253	37.4702
 187	1	8	0.061085	-36.2719	6.10689	38.2783
 188	1	8	0.065045	-35.5547	7.71767	38.0658
 189	1	3	-0.142025	-38.3393	9.85741	39.1094
 190	1	3	-0.448546	-36.4431	11.1197	40.7788
 191	1	3	0.277842	-37.54	11.856	40.2966
 192	1	3	-0.409063	-38.473	11.2225	39.4414
 193	1	6	0.203923	-35.7545	11.5662	41.4914
 194	1	8	0.016419	-39.1187	7.00767	39.1158
 195	1	8	0.049665	-38.8484	7.18708	40.8608
 196	1	8	0.035794	-38.2016	5.77447	40.0022
 197	1	6	0.161583	-39.0865	9.35881	38.4956
 198	1	6	0.199011	-39.3404	11.7742	39.0859
 199	1	1	0.463181	-17.3301	15.9158	44.7693
 200	1	2	0.074399	-18.377	16.0191	43.8502
 201	1	3	0.034296	-19.3035	17.0264	44.4229
 202	1	2	0.051625	-17.4984	16.7646	45.8668
 203	1	3	0.019035	-18.7819	17.4703	45.6212
 204	1	5	-0.389616	-18.5265	15.4309	42.7916
 205	1	5	-0.380104	-16.7787	16.9062	46.8422
 206	1	3	-0.045097	-20.5135	17.5177	43.9211
 207	1	3	-0.056032	-19.4364	18.442	46.3853
 208	1	3	-0.174781	-20.6589	18.9539	45.8998
 209	1	3	-0.129342	-21.2174	18.4841	44.6781
 210	1	6	0.168842	-20.8946	17.156	42.9668
 211	1	6	0.15893	-19.0001	18.7936	47.3179
 212	1	6	0.147704	-21.1571	19.7363	46.4683
 213	1	2	0.584577	-22.5096	19.0321	44.1206
 214	1	3	-0.046755	-23.5891	19.5421	45.0459
 215	1	3	-0.110868	-23.7581	19.013	46.3495
 216	1	3	-0.046132	-24.789	19.5259	47.1483
 217	1	3	-0.135873	-24.4877	20.5377	44.5791
 218	1	3	-0.117662	-25.5215	21.0353	45.3988
 219	1	3	-0.064457	-25.6433	20.5077	46.6896
 220	1	2	0.492569	-26.6035	20.8333	47.7778
 221	1	1	-0.072087	-26.2498	20.0201	48.8494
 222	1	2	0.477555	-25.1741	19.1934	48.5445
 223	1	3	0.042617	-26.8881	20.0615	50.1217
 224	1	3	-0.20367	-26.1269	20.1066	51.3031
 225	1	3	-0.057018	-26.7561	20.1768	52.557
 226	1	3	-0.18182	-28.2899	20.0864	50.2192
 227	1	3	-0.14326	-28.9191	20.1602	51.4726
 228	1	3	0.043342	-28.1616	20.2039	52.6658
 229	1	6	0.163244	-25.0413	20.0897	51.2546
 230	1	6	0.101178	-26.1408	20.2224	53.4504
 231	1	6	0.165346	-26.205	21.8056	45.0455
 232	1	6	0.135111	-24.3765	20.9299	43.5695
 233	1	6	0.171751	-23.1218	18.2188	46.7353
 234	1	5	-0.478239	-24.6066	18.3905	49.2655
 235	1	5	-0.481107	-27.485	21.674	47.7251
 236	1	5	-0.49957	-22.6811	19.0536	42.9128
 237	1	6	0.151248	-28.9007	20.0682	49.3194
 238	1	6	0.146138	-30.0038	20.2025	51.4935
 239	1	7	0.044043	-28.8173	20.3087	54.0594
 240	1	7	-0.215975	-28.3122	19.1826	55.0017
 241	1	8	0.063789	-27.2481	19.3002	55.2389
 242	1	8	0.072206	-28.4483	18.1962	54.5405
 243	1	8	0.045489	-28.8659	19.1883	55.9497
 244	1	7	0.005306	-28.5613	21.718	54.6834
 245	1	7	0.164932	-29.8109	22.6068	54.3946
 246	1	8	0.005277	-27.6346	22.1782	54.3164
 247	1	8	0.017604	-28.4443	21.6105	55.7702
 248	1	3	0.008363	-30.8811	21.5628	54.1389
 249	1	7	-0.151488	-29.5944	23.4801	53.1351
 250	1	7	-0.269275	-30.1478	23.5115	55.6044
 251	1	3	0.096378	-30.3352	20.2956	53.981
 252	1	8	0.063418	-29.3099	24.1814	55.8357
 253	1	8	0.061085	-30.3599	22.9097	56.4975
 254	1	8	0.065045	-31.0292	24.1317	55.3997
 255	1	3	-0.142025	-32.2633	21.7673	54.0059
 256	1	3	-0.448546	-31.1486	19.1884	53.6961
 257	1	3	0.277842	-32.5407	19.3638	53.5463
 258	1	3	-0.409063	-33.0848	20.6619	53.7041
 259	1	6	0.203923	-30.6989	18.2081	53.5618
 260	1	8	0.016419	-29.3536	22.8656	52.2595
 261	1	8	0.049665	-28.77	24.1883	53.2863
 262	1	8	0.035794	-30.4973	24.0574	52.8996
 263	1	6	0.161583	-32.6839	22.766	54.1035
 264	1	6	0.199011	-34.152	20.8164	53.557
 265	1	1	0.463181	-16.6347	9.72388	26.0308
 266	1	2	0.074399	-16.9612	8.71311	26.9401
 267	1	3	0.034296	-16.7326	9.30295	28.2842
 268	1	2	0.051625	-16.2198	10.897	26.6706
 269	1	3	0.019035	-16.2895	10.5996	28.1232
 270	1	5	-0.389616	-17.3407	7.57504	26.7159
 271	1	5	-0.380104	-15.8855	11.9626	26.1782
 272	1	3	-0.045097	-16.8861	8.73427	29.554
 273	1	3	-0.056032	-15.9657	11.4028	29.2218
 274	1	3	-0.174781	-16.1125	10.8518	30.5127
 275	1	3	-0.129342	-16.5856	9.52228	30.6921
 276	1	6	0.168842	-17.221	7.70223	29.6502
 277	1	6	0.15893	-15.5949	12.4147	29.0722
 278	1	6	0.147704	-15.8253	11.4556	31.3709
 279	1	2	0.584577	-16.6974	8.88946	32.0592
 280	1	3	-0.046755	-16.8302	9.74296	33.2963
 281	1	3	-0.110868	-16.2053	9.31119	34.4893
 282	1	3	-0.046132	-16.3679	10.0811	35.6477
 283	1	3	-0.135873	-17.6232	10.9225	33.3113
 284	1	3	-0.117662	-17.7843	11.6755	34.4951
 285	1	3	-0.064457	-17.1383	11.225	35.6545
 286	1	2	0.492569	-17.1433	11.7684	37.041
 287	1	1	-0.072087	-16.356	10.9017	37.7952
 288	1	2	0.477555	-15.8426	9.86575	37.0205
 289	1	3	0.042617	-16.1163	11.0389	39.1965
 290	1	3	-0.20367	-16.1271	9.91027	40.0365
 291	1	3	-0.057018	-15.8759	10.0354	41.4123
 292	1	3	-0.18182	-15.855	12.2972	39.7692
 293	1	3	-0.14326	-15.6198	12.4252	41.1498
 294	1	3	0.043342	-15.6307	11.2944	41.9976
 295	1	6	0.163244	-16.3193	8.92275	39.6252
 296	1	6	0.101178	-15.8712	9.13863	42.0235
 297	1	6	0.165346	-18.4053	12.5698	34.5204
 298	1	6	0.135111	-18.1436	11.2397	32.4101
 299	1	6	0.171751	-15.6157	8.39549	34.5169
 300	1	5	-0.478239	-15.1055	8.95736	37.3636
 301	1	5	-0.481107	-17.7431	12.7629	37.4107
 302	1	5	-0.49957	-16.6467	7.67528	32.1679
 303	1	6	0.151248	-15.8417	13.1885	39.1464
 304	1	6	0.146138	-15.4284	13.418	41.5469
 305	1	7	0.044043	-15.3684	11.3965	43.516
 306	1	7	-0.215975	-16.4261	10.598	44.3279
 307	1	8	0.063789	-16.3156	9.51617	44.1871
 308	1	8	0.072206	-17.4434	10.8776	44.0258
 309	1	8	0.045489	-16.3275	10.8004	45.4025
 310	1	7	0.005306	-13.9243	10.9097	43.862
 311	1	7	0.164932	-13.0165	12.1654	44.0546
 312	1	8	0.005277	-13.5244	10.2268	43.1008
 313	1	8	0.017604	-13.9518	10.3411	44.8013
 314	1	3	0.008363	-14.0375	13.2625	44.2849
 315	1	7	-0.151488	-12.1861	12.4515	42.7808
 316	1	7	-0.269275	-12.0702	11.9924	45.2678
 317	1	3	0.096378	-15.3279	12.8356	44.0045
 318	1	8	0.063418	-12.6425	11.8523	46.194
 319	1	8	0.061085	-11.4303	12.8737	45.399
 320	1	8	0.065045	-11.4189	11.1194	45.1342
 321	1	3	-0.142025	-13.7987	14.5742	44.7222
 322	1	3	-0.448546	-16.4241	13.6974	44.1642
 323	1	3	0.277842	-16.2206	15.0237	44.6076
 324	1	3	-0.409063	-14.895	15.4462	44.8786
 325	1	6	0.203923	-17.4231	13.3432	43.9233
 326	1	8	0.016419	-11.4838	11.6325	42.5792
 327	1	8	0.049665	-11.6049	13.3754	42.8924
 328	1	8	0.035794	-12.8327	12.5654	41.9023
 329	1	6	0.161583	-12.7859	14.9062	44.9402
 330	1	6	0.199011	-14.7169	16.4606	45.2308
 331	1	1	0.463181	-1.3708	0.0232005	17.4883
 332	1	2	0.074399	-2.5655	0.175548	16.7845
 333	1	3	0.034296	-3.37272	1.12422	17.5901
 334	1	2	0.051625	-1.33211	0.786309	18.6563
 335	1	3	0.019035	-2.63651	1.49832	18.6969
 336	1	5	-0.389616	-2.90586	-0.350533	15.737
 337	1	5	-0.380104	-0.442542	0.860709	19.488
 338	1	3	-0.045097	-4.67193	1.59626	17.3778
 339	1	3	-0.056032	-3.15383	2.38351	19.6494
 340	1	3	-0.174781	-4.4599	2.8824	19.4515
 341	1	3	-0.129342	-5.22637	2.49873	18.3161
 342	1	6	0.168842	-5.24006	1.25628	16.5128
 343	1	6	0.15893	-2.5661	2.6557	20.5237
 344	1	6	0.147704	-4.88726	3.53835	20.2072
 345	1	2	0.584577	-6.65405	2.94764	18.119
 346	1	3	-0.046755	-7.14402	4.25501	18.6912
 347	1	3	-0.110868	-8.50921	4.37346	19.0446
 348	1	3	-0.046132	-8.97516	5.60721	19.5152
 349	1	3	-0.135873	-6.29472	5.38956	18.7988
 350	1	3	-0.117662	-6.78764	6.62557	19.2685
 351	1	3	-0.064457	-8.14127	6.70181	19.6214
 352	1	2	0.492569	-8.95734	7.86068	20.0743
 353	1	1	-0.072087	-10.2552	7.38067	20.2051
 354	1	2	0.477555	-10.3467	6.02738	19.9055
 355	1	3	0.042617	-11.3779	8.19214	20.5278
 356	1	3	-0.20367	-11.614	9.38359	19.8219
 357	1	3	-0.057018	-12.7537	10.1569	20.0928
 358	1	3	-0.18182	-12.2938	7.79447	21.5175
 359	1	3	-0.14326	-13.4328	8.57145	21.7924
 360	1	3	0.043342	-13.6848	9.76303	21.0759
 361	1	6	0.163244	-10.9196	9.70902	19.0515
 362	1	6	0.101178	-12.9212	11.0624	19.5172
 363	1	6	0.165346	-6.14903	7.50531	19.3301
 364	1	6	0.135111	-5.25676	5.32632	18.4801
 365	1	6	0.171751	-9.19528	3.53374	18.9359
 366	1	5	-0.478239	-11.3386	5.31907	19.9137
 367	1	5	-0.481107	-8.55498	8.99995	20.2366
 368	1	5	-0.49957	-7.42404	2.23671	17.4942
 369	1	6	0.151248	-12.1369	6.86589	22.0614
 370	1	6	0.146138	-14.1263	8.21825	22.5498
 371	1	7	0.044043	-14.9489	10.616	21.3028
 372	1	7	-0.215975	-14.5678	12.0802	21.652
 373	1	8	0.063789	-14.0812	12.5838	20.8082
 374	1	8	0.072206	-13.8783	12.1113	22.5052
 375	1	8	0.045489	-15.4584	12.6639	21.9192
 376	1	7	0.005306	-15.8716	10.5643	20.042
 377	1	7	0.164932	-16.9456	9.45901	20.2794
 378	1	8	0.005277	-15.3135	10.4023	19.1108
 379	1	8	0.017604	-16.3787	11.5327	19.9347
 380	1	3	0.008363	-16.9719	9.39026	21.7948
 381	1	7	-0.151488	-16.5021	8.10561	19.6725
 382	1	7	-0.269275	-18.3134	9.87116	19.6825
 383	1	3	0.096378	-15.88	10.037	22.3597
 384	1	8	0.063418	-19.0654	9.08862	19.8429
 385	1	8	0.061085	-18.2315	10.0426	18.6017
 386	1	8	0.065045	-18.6831	10.794	20.1475
 387	1	3	-0.142025	-17.9537	8.80553	22.6077
 388	1	3	-0.448546	-15.7411	10.1343	23.7547
 389	1	3	0.277842	-16.7289	9.58375	24.6046
 390	1	3	-0.409063	-17.8262	8.91267	24.0071
 391	1	6	0.203923	-14.8892	10.6644	24.1718
 392	1	8	0.016419	-17.2332	7.31847	19.8961
 393	1	8	0.049665	-15.5332	7.7839	20.0721
 394	1	8	0.035794	-16.4078	8.17885	18.5815
 395	1	6	0.161583	-18.8046	8.29424	22.1622
 396	1	6	0.199011	-18.5936	8.46831	24.638
 397	1	1	0.463181	5.68232	13.5422	10.4721
 398	1	2	0.074399	5.19634	12.2775	10.7951
 399	1	3	0.034296	6.15734	11.7395	11.7835
 400	1	2	0.051625	6.83763	13.8808	11.174
 401	1	3	0.019035	7.13634	12.6876	12.0108
 402	1	5	-0.389616	4.22317	11.695	10.3429
 403	1	5	-0.380104	7.50312	14.9	11.0937
 404	1	3	-0.045097	6.1733	10.4917	12.4107
 405	1	3	-0.056032	8.19509	12.4377	12.8906
 406	1	3	-0.174781	8.23452	11.1821	13.5355
 407	1	3	-0.129342	7.24082	10.1959	13.2912
 408	1	6	0.168842	5.36771	9.78697	12.2148
 409	1	6	0.15893	8.9607	13.1912	13.063
 410	1	6	0.147704	9.04612	10.9656	14.2292
 411	1	2	0.584577	7.30066	8.86821	14.0063
 412	1	3	-0.046755	6.65716	7.65661	13.3775
 413	1	3	-0.110868	6.04253	6.69358	14.2108
 414	1	3	-0.046132	5.45474	5.57091	13.6131
 415	1	3	-0.135873	6.69011	7.44489	11.9717
 416	1	3	-0.117662	6.09803	6.30272	11.3927
 417	1	3	-0.064457	5.48298	5.37868	12.2469
 418	1	2	0.492569	4.81148	4.0848	11.9477
 419	1	1	-0.072087	4.41731	3.56704	13.1779
 420	1	2	0.477555	4.75191	4.41549	14.2287
 421	1	3	0.042617	3.77916	2.30258	13.3489
 422	1	3	-0.20367	2.74877	1.88716	12.4861
 423	1	3	-0.057018	2.13357	0.633548	12.6511
 424	1	3	-0.18182	4.17307	1.44134	14.3883
 425	1	3	-0.14326	3.54579	0.198021	14.565
 426	1	3	0.043342	2.52686	-0.237022	13.6919
 427	1	6	0.163244	2.42358	2.53387	11.6755
 428	1	6	0.101178	1.34375	0.357507	11.9611
 429	1	6	0.165346	6.12441	6.13194	10.3173
 430	1	6	0.135111	7.19449	8.15835	11.3232
 431	1	6	0.171751	6.02228	6.81612	15.2933
 432	1	5	-0.478239	4.51957	4.27644	15.4172
 433	1	5	-0.481107	4.66549	3.59637	10.8398
 434	1	5	-0.49957	7.82785	8.78355	15.1033
 435	1	6	0.151248	4.96179	1.73799	15.0759
 436	1	6	0.146138	3.85566	-0.430658	15.3947
 437	1	7	0.044043	1.85342	-1.60484	13.9377
 438	1	7	-0.215975	0.790023	-1.99135	12.8724
 439	1	8	0.063789	1.23394	-2.04465	11.8701
 440	1	8	0.072206	-0.0347801	-1.26782	12.851
 441	1	8	0.045489	0.352889	-2.97288	13.0975
 442	1	7	0.005306	2.9051	-2.76125	14.0603
 443	1	7	0.164932	2.70659	-3.47797	15.4371
 444	1	8	0.005277	3.92623	-2.36747	13.9805
 445	1	8	0.017604	2.80787	-3.47407	13.2305
 446	1	3	0.008363	1.68038	-2.60471	16.1338
 447	1	7	-0.151488	4.03313	-3.5456	16.232
 448	1	7	-0.269275	2.14881	-4.90811	15.2371
 449	1	3	0.096378	1.20233	-1.59898	15.3067
 450	1	8	0.063418	1.19789	-4.8844	14.6894
 451	1	8	0.061085	1.96754	-5.39798	16.2021
 452	1	8	0.065045	2.85309	-5.52942	14.6694
 453	1	3	-0.142025	1.19063	-2.74416	17.4424
 454	1	3	-0.448546	0.20955	-0.710546	15.7466
 455	1	3	0.277842	-0.314855	-0.835025	17.0514
 456	1	3	-0.409063	0.196106	-1.85224	17.8939
 457	1	6	0.203923	-0.169341	0.0514087	15.071
 458	1	8	0.016419	4.43068	-2.54136	16.4242
 459	1	8	0.049665	4.79211	-4.11133	15.6768
 460	1	8	0.035794	3.88709	-4.03971	17.2007
 461	1	6	0.161583	1.56651	-3.53424	18.089
 462	1	6	0.199011	-0.190093	-1.95248	18.9063
 463	1	1	0.463181	-5.64638	-0.293143	3.59067
 464	1	2	0.074399	-4.6254	0.13091	2.74101
 465	1	3	0.034296	-3.85047	1.11876	3.52231
 466	1	2	0.051625	-5.56912	0.294575	4.85574
 467	1	3	0.019035	-4.40277	1.22405	4.78184
 468	1	5	-0.389616	-4.41339	-0.185755	1.58174
 469	1	5	-0.380104	-6.32207	0.147577	5.80405
 470	1	3	-0.045097	-2.78724	1.92281	3.10916
 471	1	3	-0.056032	-3.90186	2.14996	5.70804
 472	1	3	-0.174781	-2.82668	2.98275	5.31153
 473	1	3	-0.129342	-2.26043	2.8789	4.00871
 474	1	6	0.168842	-2.41255	1.83175	2.09037
 475	1	6	0.15893	-4.36096	2.24481	6.68993
 476	1	6	0.147704	-2.47157	3.73817	6.0086
 477	1	2	0.584577	-1.19706	3.81535	3.47565
 478	1	3	-0.046755	-0.470266	4.79609	4.35759
 479	1	3	-0.110868	-0.250829	6.09692	3.84992
 480	1	3	-0.046132	0.507031	6.99438	4.60731
 481	1	3	-0.135873	0.0988322	4.42657	5.60547
 482	1	3	-0.117662	0.872323	5.34715	6.34865
 483	1	3	-0.064457	1.05858	6.63269	5.81852
 484	1	2	0.492569	1.84094	7.79411	6.3273
 485	1	1	-0.072087	1.69923	8.7968	5.37127
 486	1	2	0.477555	0.905773	8.39203	4.30503
 487	1	3	0.042617	2.29062	10.0896	5.46422
 488	1	3	-0.20367	2.93433	10.6654	4.35408
 489	1	3	-0.057018	3.50226	11.9476	4.43939
 490	1	3	-0.18182	2.21226	10.8286	6.65652
 491	1	3	-0.14326	2.7758	12.1126	6.74055
 492	1	3	0.043342	3.45414	12.6859	5.64018
 493	1	6	0.163244	2.98653	10.1251	3.41219
 494	1	6	0.101178	3.97652	12.3645	3.55704
 495	1	6	0.165346	1.3371	5.06663	7.29249
 496	1	6	0.135111	-0.0191939	3.41109	5.97738
 497	1	6	0.171751	-0.64155	6.39507	2.87751
 498	1	5	-0.478239	0.584115	9.02771	3.31566
 499	1	5	-0.481107	2.48134	7.82448	7.36451
 500	1	5	-0.49957	-0.980594	3.84735	2.27479
 501	1	6	0.151248	1.71471	10.4093	7.52803
 502	1	6	0.146138	2.68123	12.6495	7.68029
 503	1	7	0.044043	4.09874	14.0879	5.72512
 504	1	7	-0.215975	5.47186	14.1507	4.99984
 505	1	8	0.063789	6.13719	13.3546	5.35799
 506	1	8	0.072206	5.96943	15.1107	5.19066
 507	1	8	0.045489	5.36911	14.0475	3.91329
 508	1	7	0.005306	3.12962	15.1821	5.17286
 509	1	7	0.164932	2.97245	16.3108	6.2454
 510	1	8	0.005277	2.15196	14.7303	4.95746
 511	1	8	0.017604	3.48953	15.5875	4.21788
 512	1	3	0.008363	3.70802	15.7478	7.44595
 513	1	7	-0.151488	1.47832	16.5562	6.56701
 514	1	7	-0.269275	3.63024	17.6286	5.77143
 515	1	3	0.096378	4.31777	14.5366	7.15706
 516	1	8	0.063418	3.55397	18.4046	6.54348
 517	1	8	0.061085	3.1423	18.0061	4.86376
 518	1	8	0.065045	4.69438	17.4781	5.5495
 519	1	3	-0.142025	3.79986	16.3043	8.73318
 520	1	3	-0.448546	5.02343	13.8307	8.13987
 521	1	3	0.277842	5.09028	14.339	9.45189
 522	1	3	-0.409063	4.4902	15.5891	9.73472
 523	1	6	0.203923	5.45714	12.8636	7.89873
 524	1	8	0.016419	0.935107	16.8881	5.67292
 525	1	8	0.049665	1.36068	17.326	7.3395
 526	1	8	0.035794	1.00132	15.6371	6.93188
 527	1	6	0.161583	3.32774	17.2594	8.95387
 528	1	6	0.199011	4.54894	15.9984	10.7412
 529	1	1	0.463181	-17.0643	-1.69434	1.52228
 530	1	2	0.074399	-17.1318	-3.07703	1.69118
 531	1	3	0.034296	-18.1258	-3.28046	2.76927
 532	1	2	0.051625	-17.9963	-1.00604	2.30164
 533	1	3	0.019035	-18.6521	-2.05394	3.12776
 534	1	5	-0.389616	-16.4189	-3.94202	1.20667
 535	1	5	-0.380104	-18.1386	0.199349	2.42453
 536	1	3	-0.045097	-18.3509	-4.4272	3.53346
 537	1	3	-0.056032	-19.4947	-1.91891	4.23863
 538	1	3	-0.174781	-19.7325	-3.06296	5.03119
 539	1	3	-0.129342	-19.1225	-4.30204	4.71144
 540	1	6	0.168842	-17.8237	-5.3487	3.29134
 541	1	6	0.15893	-19.8696	-0.939953	4.52962
 542	1	6	0.147704	-20.3047	-2.96746	5.95268
 543	1	2	0.584577	-19.0497	-5.39574	5.73992
 544	1	3	-0.046755	-17.6635	-5.7365	6.23954
 545	1	3	-0.110868	-16.5999	-4.82201	6.03821
 546	1	3	-0.046132	-15.3053	-5.2082	6.38477
 547	1	3	-0.135873	-17.3907	-6.98326	6.86155
 548	1	3	-0.117662	-16.0708	-7.34649	7.21821
 549	1	3	-0.064457	-15.0379	-6.43537	6.94736
 550	1	2	0.492569	-13.5564	-6.5804	7.02954
 551	1	1	-0.072087	-13.0255	-5.43617	6.42967
 552	1	2	0.477555	-14.0234	-4.53179	6.08082
 553	1	3	0.042617	-11.6785	-5.3034	5.96878
 554	1	3	-0.20367	-11.0441	-4.04561	5.91011
 555	1	3	-0.057018	-9.84193	-3.87584	5.1979
 556	1	3	-0.18182	-11.0262	-6.40656	5.38983
 557	1	3	-0.14326	-9.81488	-6.24287	4.70344
 558	1	3	0.043342	-9.24219	-4.96609	4.53284
 559	1	6	0.163244	-11.5239	-3.17112	6.34192
 560	1	6	0.101178	-9.42546	-2.87654	5.10912
 561	1	6	0.165346	-15.8488	-8.32471	7.64115
 562	1	6	0.135111	-18.2029	-7.69002	7.02416
 563	1	6	0.171751	-16.7458	-3.84831	5.576
 564	1	5	-0.478239	-13.9217	-3.46993	5.48934
 565	1	5	-0.481107	-12.965	-7.57108	7.42323
 566	1	5	-0.49957	-20.0525	-5.94206	6.16564
 567	1	6	0.151248	-11.485	-7.39171	5.40664
 568	1	6	0.146138	-9.36481	-7.11027	4.22929
 569	1	7	0.044043	-8.07148	-4.79492	3.54408
 570	1	7	-0.215975	-6.80249	-5.50176	4.08563
 571	1	8	0.063789	-6.96035	-6.58357	4.17747
 572	1	8	0.072206	-6.53797	-5.11726	5.0787
 573	1	8	0.045489	-5.94551	-5.34077	3.41906
 574	1	7	0.005306	-8.48686	-5.36153	2.1437
 575	1	7	0.164932	-9.16006	-4.20407	1.34807
 576	1	8	0.005277	-9.12658	-6.25044	2.18519
 577	1	8	0.017604	-7.57552	-5.66799	1.61227
 578	1	3	0.008363	-8.44716	-3.01307	1.95616
 579	1	7	-0.151488	-10.6888	-4.12852	1.58976
 580	1	7	-0.269275	-8.8938	-4.35315	-0.170323
 581	1	3	0.096378	-7.80353	-3.34109	3.14882
 582	1	8	0.063418	-9.3546	-3.53287	-0.734658
 583	1	8	0.061085	-9.31328	-5.2946	-0.547395
 584	1	8	0.065045	-7.81753	-4.34765	-0.384961
 585	1	3	-0.142025	-8.2906	-1.74901	1.37446
 586	1	3	-0.448546	-6.91313	-2.43031	3.7544
 587	1	3	0.277842	-6.68223	-1.17333	3.1446
 588	1	3	-0.409063	-7.41106	-0.835733	1.97896
 589	1	6	0.203923	-6.36101	-2.71593	4.64516
 590	1	8	0.016419	-11.1329	-3.30358	1.01828
 591	1	8	0.049665	-10.9292	-3.96043	2.64489
 592	1	8	0.035794	-11.181	-5.05792	1.27599
 593	1	6	0.161583	-8.78294	-1.50881	0.435525
 594	1	6	0.199011	-7.22619	0.117312	1.48749
 595	1	1	0.463181	-9.41835	-12.7806	-11.201
 596	1	2	0.074399	-10.702	-12.3337	-10.8603
 597	1	3	0.034296	-10.826	-12.5519	-9.39611
 598	1	2	0.051625	-8.70922	-13.2363	-10.0835
 599	1	3	0.019035	-9.63197	-13.0676	-8.93243
 600	1	5	-0.389616	-11.5635	-11.8497	-11.5767
 601	1	5	-0.380104	-7.59849	-13.7403	-10.0328
 602	1	3	-0.045097	-11.9241	-12.3598	-8.54528
 603	1	3	-0.056032	-9.44794	-13.3862	-7.58254
 604	1	3	-0.174781	-10.5278	-13.1722	-6.70054
 605	1	3	-0.129342	-11.7678	-12.6714	-7.17477
 606	1	6	0.168842	-12.8715	-12.0034	-8.94484
 607	1	6	0.15893	-8.5045	-13.8049	-7.23838
 608	1	6	0.147704	-10.4177	-13.4398	-5.65135
 609	1	2	0.584577	-12.9341	-12.5691	-6.23487
 610	1	3	-0.046755	-12.9276	-11.4618	-5.22119
 611	1	3	-0.110868	-13.0032	-10.1148	-5.64296
 612	1	3	-0.046132	-13.0359	-9.11528	-4.66058
 613	1	3	-0.135873	-12.8949	-11.7665	-3.83647
 614	1	3	-0.117662	-12.8931	-10.7404	-2.86731
 615	1	3	-0.064457	-12.9594	-9.41446	-3.31678
 616	1	2	0.492569	-12.9991	-8.13629	-2.55522
 617	1	1	-0.072087	-13.1406	-7.1234	-3.50468
 618	1	2	0.477555	-13.1769	-7.64337	-4.79869
 619	1	3	0.042617	-13.274	-5.72941	-3.19796
 620	1	3	-0.20367	-13.9262	-5.30036	-2.02613
 621	1	3	-0.057018	-14.1006	-3.93402	-1.75209
 622	1	3	-0.18182	-12.7845	-4.74276	-4.07645
 623	1	3	-0.14326	-13.0036	-3.3777	-3.82637
 624	1	3	0.043342	-13.6799	-2.94451	-2.66802
 625	1	6	0.163244	-14.3155	-6.02025	-1.31118
 626	1	6	0.101178	-14.5861	-3.67442	-0.820725
 627	1	6	0.165346	-12.8605	-10.9643	-1.80225
 628	1	6	0.135111	-12.8676	-12.8066	-3.51704
 629	1	6	0.171751	-13.071	-9.84992	-6.69638
 630	1	5	-0.478239	-13.343	-7.05664	-5.8546
 631	1	5	-0.481107	-12.9009	-8.03846	-1.34377
 632	1	5	-0.49957	-13.7906	-13.4349	-6.21794
 633	1	6	0.151248	-12.257	-5.0255	-4.98308
 634	1	6	0.146138	-12.6516	-2.64895	-4.55105
 635	1	7	0.044043	-13.9572	-1.43369	-2.48129
 636	1	7	-0.215975	-14.9639	-0.951251	-3.55828
 637	1	8	0.063789	-15.9054	-1.51062	-3.48755
 638	1	8	0.072206	-14.5667	-1.09293	-4.57088
 639	1	8	0.045489	-15.1951	0.114359	-3.43257
 640	1	7	0.005306	-12.6238	-0.615179	-2.57032
 641	1	7	0.164932	-12.5034	0.312887	-1.32125
 642	1	8	0.005277	-12.573	-0.035719	-3.50207
 643	1	8	0.017604	-11.7655	-1.29922	-2.59634
 644	1	3	0.008363	-13.6708	-0.123035	-0.463165
 645	1	7	-0.151488	-12.6649	1.80114	-1.71401
 646	1	7	-0.269275	-11.1491	0.100958	-0.601982
 647	1	3	0.096378	-14.4877	-1.04266	-1.10763
 648	1	8	0.063418	-11.0337	-0.946229	-0.294824
 649	1	8	0.061085	-11.0742	0.726059	0.296352