pySIMM System Object

1718 atoms
1899 bonds
3354 angles
5378 dihedrals
546 impropers

8 atom types
10 bond types
17 angle types
9 dihedral types
4 improper types

-179.014488 179.014488 xlo xhi
-179.014488 179.014488 ylo yhi
-179.014488 179.014488 zlo zhi

Masses

   1	14.01	# n
   2	12.01	# c
   3	12.01	# ca
   4	1.008	# hn
   5	16.0	# o
   6	1.008	# ha
   7	12.01	# c3
   8	1.008	# hc

Pair Coeffs

   1	0.17	3.249998523775958	# n
   2	0.086	3.3996695084235347	# c
   3	0.086	3.3996695084235347	# ca
   4	0.0157	1.069078461768407	# hn
   5	0.21	2.959921901149463	# o
   6	0.015	2.59964245953351	# ha
   7	0.1094	3.3996695084235347	# c3
   8	0.0157	2.649532787749369	# hc

Bond Coeffs

   1	461.1	1.3984	# ca,ca
   2	427.6	1.3789	# c,n
   3	345.9	1.4906	# c,ca
   4	300.9	1.5375	# c3,c3
   5	345.8	1.086	# ca,ha
   6	384.2	1.4121	# ca,n
   7	637.7	1.2183	# c,o
   8	321.0	1.5156	# c3,ca
   9	330.6	1.0969	# c3,hc
  10	403.2	1.0129	# hn,n

Angle Coeffs

   1	68.72	122.6	# ca,c,o
   2	62.86	111.51	# c3,c3,c3
   3	63.82	123.71	# c,n,ca
   4	67.87	120.19	# ca,ca,n
   5	67.68	115.25	# ca,c,n
   6	63.0	118.11	# ca,c,ca
   7	63.56	112.24	# ca,c3,ca
   8	63.15	112.07	# c3,c3,ca
   9	46.34	109.8	# c3,c3,hc
  10	74.22	123.05	# n,c,o
  11	48.33	117.55	# c,n,hn
  12	64.28	120.33	# c,ca,ca
  13	39.4	107.58	# hc,c3,hc
  14	66.62	120.02	# ca,ca,ca
  15	63.53	120.77	# c3,ca,ca
  16	63.74	127.08	# c,n,c
  17	48.18	119.88	# ca,ca,ha

Dihedral Coeffs

   1	1	2.5	2	180	# X,c,n,X
   2	1	0.45	2	180	# X,ca,n,X
   3	3	0.18	3	0	0.25	2	180	0.2	1	180	# c3,c3,c3,c3
   4	2	2.5	2	180	2.0	1	0	# hn,n,c,o
   5	1	3.625	2	180	# X,ca,ca,X
   6	1	0.16	3	0	# hc,c3,c3,c3
   7	1	1.0	2	180	# X,c,ca,X
   8	1	0.15555555555555556	3	0	# X,c3,c3,X
   9	1	0.0	2	0	# X,c3,ca,X

Improper Coeffs

   1	10.5	-1	2	# c,X,X,o
   2	1.1	-1	2	# ca,X,X,ha
   3	1.1	-1	2	# ca,ca,ca,c3
   4	1.1	-1	2	# n,X,X,hn

Atoms

   1	1	1	0.463181	-52.2707	50.2181	16.9206
   2	1	2	0.074399	-52.9182	49.1998	16.2255
   3	1	3	0.034296	-52.0074	48.0351	16.3166
   4	1	2	0.051625	-51.051	49.82	17.4643
   5	1	3	0.019035	-50.9007	48.3963	17.0613
   6	1	5	-0.389616	-53.9474	49.2612	15.572
   7	1	5	-0.380104	-50.2233	50.5035	18.0435
   8	1	3	-0.045097	-52.1138	46.7796	15.7122
   9	1	3	-0.056032	-49.8472	47.5008	17.2758
  10	1	3	-0.174781	-49.9349	46.2241	16.6802
  11	1	3	-0.129342	-51.0427	45.8681	15.8654
  12	1	6	0.168842	-52.9928	46.5436	15.1172
  13	1	6	0.15893	-48.9769	47.7983	17.8556
  14	1	6	0.147704	-49.1137	45.5203	16.8042
  15	1	2	0.584577	-51.0558	44.5352	15.161
  16	1	3	-0.046755	-51.6987	44.4089	13.7974
  17	1	3	-0.110868	-51.7723	45.5081	12.9035
  18	1	3	-0.046132	-52.3273	45.3063	11.6314
  19	1	3	-0.135873	-52.1816	43.1426	13.3767
  20	1	3	-0.117662	-52.7492	42.9633	12.0994
  21	1	3	-0.064457	-52.8081	44.0722	11.2475
  22	1	2	0.492569	-53.3113	44.1823	9.85523
  23	1	1	-0.072087	-53.0832	45.5	9.46547
  24	1	2	0.477555	-52.4874	46.2425	10.4819
  25	1	3	0.042617	-53.3659	45.998	8.15671
  26	1	3	-0.20367	-53.8974	47.2864	7.95737
  27	1	3	-0.057018	-54.216	47.7405	6.66378
  28	1	3	-0.18182	-53.1244	45.1923	7.02988
  29	1	3	-0.14326	-53.4456	45.6409	5.74182
  30	1	3	0.043342	-54.0194	46.9119	5.53682
  31	1	6	0.163244	-54.0852	47.9359	8.80868
  32	1	6	0.101178	-54.6387	48.734	6.55602
  33	1	6	0.165346	-53.118	41.9925	11.7734
  34	1	6	0.135111	-52.1101	42.2902	14.0502
  35	1	6	0.171751	-51.3734	46.4855	13.1645
  36	1	5	-0.478239	-52.1424	47.4136	10.4582
  37	1	5	-0.481107	-53.8263	43.2788	9.2174
  38	1	5	-0.49957	-50.5422	43.5617	15.6892
  39	1	6	0.151248	-52.7074	44.1959	7.14964
  40	1	6	0.146138	-53.2741	44.9756	4.8996
  41	1	7	0.044043	-54.4174	47.3277	4.10573
  42	1	7	-0.215975	-55.3469	48.5699	4.04195
  43	1	8	0.063789	-56.2508	48.4146	4.64493
  44	1	8	0.072206	-55.6672	48.7613	3.00934
  45	1	8	0.045489	-54.84	49.4724	4.40406
  46	1	7	0.005306	-53.1463	47.5547	3.22554
  47	1	7	0.164932	-53.1922	46.594	1.99558
  48	1	8	0.005277	-52.2508	47.3483	3.82037
  49	1	8	0.017604	-53.0633	48.6006	2.90346
  50	1	3	0.008363	-54.4224	45.7525	2.26726
  51	1	7	-0.151488	-51.9127	45.7238	1.92807
  52	1	7	-0.269275	-53.3583	47.3876	0.677908
  53	1	3	0.096378	-55.1019	46.1664	3.40627
  54	1	8	0.063418	-54.2705	47.9977	0.701136
  55	1	8	0.061085	-53.429	46.7103	-0.182352
  56	1	8	0.065045	-52.5046	48.0572	0.51198
  57	1	3	-0.142025	-54.8827	44.659	1.51521
  58	1	3	-0.448546	-56.2593	45.4984	3.83869
  59	1	3	0.277842	-56.7323	44.4024	3.10012
  60	1	3	-0.409063	-56.0441	43.9863	1.94502
  61	1	6	0.203923	-56.7747	45.8113	4.74071
  62	1	8	0.016419	-51.7865	45.136	2.84646
  63	1	8	0.049665	-51.0213	46.3515	1.80274
  64	1	8	0.035794	-51.9538	45.0248	1.08367
  65	1	6	0.161583	-54.3486	44.3382	0.623458
  66	1	6	0.199011	-56.4185	43.1339	1.38619
  67	1	1	0.463181	-49.0371	43.534	7.21522
  68	1	2	0.074399	-49.7564	44.6815	7.53536
  69	1	3	0.034296	-49.602	45.5735	6.36125
  70	1	2	0.051625	-48.4482	43.5869	5.95643
  71	1	3	0.019035	-48.812	44.9281	5.42841
  72	1	5	-0.389616	-50.2803	44.965	8.60043
  73	1	5	-0.380104	-47.7179	42.767	5.42583
  74	1	3	-0.045097	-50.0849	46.8714	6.15549
  75	1	3	-0.056032	-48.4386	45.5557	4.23785
  76	1	3	-0.174781	-48.8951	46.871	4.01701
  77	1	3	-0.129342	-49.7109	47.5468	4.96616
  78	1	6	0.168842	-50.7413	47.313	6.90186
  79	1	6	0.15893	-47.8064	45.0427	3.5162
  80	1	6	0.147704	-48.6166	47.3728	3.0911
  81	1	2	0.584577	-50.214	48.9354	4.63735
  82	1	3	-0.046755	-50.9126	49.7754	5.67801
  83	1	3	-0.110868	-50.4122	49.9153	6.99807
  84	1	3	-0.046132	-51.1043	50.7567	7.88434
  85	1	3	-0.135873	-52.0645	50.5053	5.28688
  86	1	3	-0.117662	-52.7491	51.3353	6.19313
  87	1	3	-0.064457	-52.2421	51.4363	7.49174
  88	1	2	0.492569	-52.7104	52.265	8.6298
  89	1	1	-0.072087	-51.7962	52.0509	9.64778
  90	1	2	0.477555	-50.8051	51.1446	9.29314
  91	1	3	0.042617	-51.8901	52.7007	10.9036
  92	1	3	-0.20367	-51.1081	53.8315	11.1931
  93	1	3	-0.057018	-51.2568	54.5046	12.4202
  94	1	3	-0.18182	-52.8431	52.2691	11.8366
  95	1	3	-0.14326	-52.9999	52.9479	13.0544
  96	1	3	0.043342	-52.1917	54.0607	13.3825
  97	1	6	0.163244	-50.3965	54.2031	10.4623
  98	1	6	0.101178	-50.6357	55.374	12.6123
  99	1	6	0.165346	-53.6284	51.9026	5.89243
 100	1	6	0.135111	-52.423	50.434	4.26238
 101	1	6	0.171751	-49.5013	49.4143	7.32183
 102	1	5	-0.478239	-49.8369	50.7969	9.94806
 103	1	5	-0.481107	-53.6831	52.9984	8.63548
 104	1	5	-0.49957	-50.1589	49.3391	3.48646
 105	1	6	0.151248	-53.479	51.4159	11.6118
 106	1	6	0.146138	-53.7589	52.5941	13.7481
 107	1	7	0.044043	-52.3524	54.7527	14.7573
 108	1	7	-0.215975	-51.0737	55.5012	15.226
 109	1	8	0.063789	-50.1967	54.8443	15.1995
 110	1	8	0.072206	-51.1794	55.8568	16.2578
 111	1	8	0.045489	-50.8652	56.377	14.5992
 112	1	7	0.005306	-53.5841	55.7142	14.765
 113	1	7	0.164932	-54.4087	55.4572	16.0692
 114	1	8	0.005277	-54.2118	55.4943	13.8909
 115	1	8	0.017604	-53.2865	56.7667	14.6696
 116	1	3	0.008363	-53.8849	54.1068	16.5198
 117	1	7	-0.151488	-55.9265	55.4199	15.7663
 118	1	7	-0.269275	-54.1228	56.535	17.1425
 119	1	3	0.096378	-52.7415	53.7421	15.8229
 120	1	8	0.063418	-53.0564	56.5764	17.3925
 121	1	8	0.061085	-54.672	56.3187	18.0675
 122	1	8	0.065045	-54.4278	57.5291	16.7918
 123	1	3	-0.142025	-54.4625	53.2299	17.4533
 124	1	3	-0.448546	-52.1461	52.4893	16.021
 125	1	3	0.277842	-52.7411	51.5627	16.8999
 126	1	3	-0.409063	-53.8923	51.9512	17.6257
 127	1	6	0.203923	-51.2831	52.2125	15.4303
 128	1	8	0.016419	-56.1658	54.6226	15.0508
 129	1	8	0.049665	-56.2618	56.3731	15.3382
 130	1	8	0.035794	-56.5079	55.2388	16.679
 131	1	6	0.161583	-55.3664	53.5135	17.9884
 132	1	6	0.199011	-54.3737	51.2387	18.2916
 133	1	1	0.463181	-45.5868	57.158	7.43173
 134	1	2	0.074399	-45.5611	57.2558	8.82544
 135	1	3	0.034296	-46.2529	56.0368	9.31685
 136	1	2	0.051625	-46.2094	55.9874	6.99143
 137	1	3	0.019035	-46.634	55.2819	8.22571
 138	1	5	-0.389616	-45.1031	58.148	9.5208
 139	1	5	-0.380104	-46.3912	55.6013	5.84825
 140	1	3	-0.045097	-46.5542	55.6384	10.6248
 141	1	3	-0.056032	-47.3352	54.0818	8.37588
 142	1	3	-0.174781	-47.6455	53.6576	9.6842
 143	1	3	-0.129342	-47.2519	54.4217	10.8177
 144	1	6	0.168842	-46.2618	56.2645	11.4669
 145	1	6	0.15893	-47.6409	53.5099	7.50246
 146	1	6	0.147704	-48.2191	52.743	9.80951
 147	1	2	0.584577	-47.6286	54.0164	12.2229
 148	1	3	-0.046755	-47.8993	52.569	12.5471
 149	1	3	-0.110868	-47.181	51.5223	11.9171
 150	1	3	-0.046132	-47.5098	50.2009	12.2465
 151	1	3	-0.135873	-48.877	52.2535	13.5252
 152	1	3	-0.117662	-49.1941	50.9182	13.837
 153	1	3	-0.064457	-48.4986	49.9125	13.1648
 154	1	2	0.492569	-48.6224	48.4411	13.2724
 155	1	1	-0.072087	-47.6617	47.9217	12.419
 156	1	2	0.477555	-46.9544	48.9128	11.7511
 157	1	3	0.042617	-47.4502	46.5301	12.2493
 158	1	3	-0.20367	-46.188	45.9541	12.4683
 159	1	3	-0.057018	-45.9939	44.5739	12.2795
 160	1	3	-0.18182	-48.5213	45.7086	11.8752
 161	1	3	-0.14326	-48.3395	44.3277	11.7246
 162	1	3	0.043342	-47.063	43.7407	11.8809
 163	1	6	0.163244	-45.3475	46.5805	12.7556
 164	1	6	0.101178	-44.9973	44.1697	12.4212
 165	1	6	0.165346	-49.95	50.6622	14.5725
 166	1	6	0.135111	-49.4053	53.0557	14.0307
 167	1	6	0.171751	-46.3964	51.7199	11.1901
 168	1	5	-0.478239	-46.0504	48.7781	10.9436
 169	1	5	-0.481107	-49.4184	47.8372	13.9707
 170	1	5	-0.49957	-47.7705	54.876	13.0779
 171	1	6	0.151248	-49.4929	46.1481	11.674
 172	1	6	0.146138	-49.1915	43.724	11.4205
 173	1	7	0.044043	-46.8623	42.2546	11.5055
 174	1	7	-0.215975	-45.3843	41.8759	11.2159
 175	1	8	0.063789	-44.7697	41.934	12.1229
 176	1	8	0.072206	-44.9511	42.5424	10.4589
 177	1	8	0.045489	-45.3075	40.8514	10.8319
 178	1	7	0.005306	-47.4847	41.2913	12.5658
 179	1	7	0.164932	-48.3771	40.2438	11.8196
 180	1	8	0.005277	-48.1049	41.875	13.2593
 181	1	8	0.017604	-46.7148	40.8059	13.1799
 182	1	3	0.008363	-48.5578	40.8817	10.4546
 183	1	7	-0.151488	-49.7259	40.05	12.5541
 184	1	7	-0.269275	-47.6572	38.8807	11.6849
 185	1	3	0.096378	-47.691	41.9494	10.2734
 186	1	8	0.063418	-48.2733	38.1692	11.1206
 187	1	8	0.061085	-47.4534	38.4445	12.671
 188	1	8	0.065045	-46.7025	38.986	11.1559
 189	1	3	-0.142025	-49.5262	40.5768	9.48237
 190	1	3	-0.448546	-47.7756	42.7663	9.13921
 191	1	3	0.277842	-48.7848	42.5308	8.18889
 192	1	3	-0.409063	-49.645	41.4194	8.35625
 193	1	6	0.203923	-47.1464	43.6495	9.06473
 194	1	8	0.016419	-50.3607	39.3212	12.0351
 195	1	8	0.049665	-50.2766	40.9968	12.6131
 196	1	8	0.035794	-49.5634	39.6878	13.5773
 197	1	6	0.161583	-50.215	39.7482	9.633
 198	1	6	0.199011	-50.4427	41.2411	7.63869
 199	1	1	0.463181	-27.6521	55.8192	7.74896
 200	1	2	0.074399	-28.1722	54.7081	7.07918
 201	1	3	0.034296	-29.2279	55.2467	6.18894
 202	1	2	0.051625	-28.2592	57.0136	7.35402
 203	1	3	0.019035	-29.2786	56.6171	6.34853
 204	1	5	-0.389616	-27.8433	53.5357	7.16685
 205	1	5	-0.380104	-28.0387	58.1486	7.7443
 206	1	3	-0.045097	-30.0874	54.5741	5.31372
 207	1	3	-0.056032	-30.183	57.4009	5.62463
 208	1	3	-0.174781	-31.0613	56.7459	4.7351
 209	1	3	-0.129342	-31.0396	55.3303	4.5916
 210	1	6	0.168842	-30.0253	53.4916	5.21063
 211	1	6	0.15893	-30.1986	58.4818	5.75006
 212	1	6	0.147704	-31.7534	57.3473	4.14866
 213	1	2	0.584577	-31.9793	54.6065	3.65822
 214	1	3	-0.046755	-33.3745	55.1392	3.43304
 215	1	3	-0.110868	-34.0383	55.9007	4.4265
 216	1	3	-0.046132	-35.3337	56.3601	4.16053
 217	1	3	-0.135873	-34.0554	54.8303	2.22575
 218	1	3	-0.117662	-35.3648	55.2962	1.98307
 219	1	3	-0.064457	-35.979	56.0691	2.9762
 220	1	2	0.492569	-37.3276	56.6964	3.01922
 221	1	1	-0.072087	-37.4036	57.343	4.24757
 222	1	2	0.477555	-36.2438	57.185	4.99566
 223	1	3	0.042617	-38.53	58.0942	4.68383
 224	1	3	-0.20367	-38.3653	59.3952	5.18839
 225	1	3	-0.057018	-39.4772	60.14	5.61353
 226	1	3	-0.18182	-39.8245	57.5512	4.61312
 227	1	3	-0.14326	-40.9371	58.2947	5.04309
 228	1	3	0.043342	-40.7803	59.6034	5.55308
 229	1	6	0.163244	-37.373	59.8338	5.255
 230	1	6	0.101178	-39.3204	61.1475	5.98663
 231	1	6	0.165346	-35.8873	55.0642	1.05643
 232	1	6	0.135111	-33.5589	54.2236	1.47026
 233	1	6	0.171751	-33.5774	56.1229	5.38692
 234	1	5	-0.478239	-35.9834	57.6421	6.09541
 235	1	5	-0.481107	-38.1684	56.6505	2.13803
 236	1	5	-0.49957	-31.6192	53.5724	3.11949
 237	1	6	0.151248	-39.974	56.5512	4.21269
 238	1	6	0.146138	-41.9209	57.8424	4.95715
 239	1	7	0.044043	-41.9771	60.4632	6.009
 240	1	7	-0.215975	-41.7626	60.9966	7.45183
 241	1	8	0.063789	-40.9325	61.7112	7.50133
 242	1	8	0.072206	-41.5424	60.1746	8.14449
 243	1	8	0.045489	-42.6624	61.5092	7.81656
 244	1	7	0.005306	-42.2098	61.6417	5.00904
 245	1	7	0.164932	-43.3413	61.2204	4.02193
 246	1	8	0.005277	-41.2929	61.9349	4.48128
 247	1	8	0.017604	-42.5395	62.5259	5.57102
 248	1	3	0.008363	-44.0527	60.1422	4.81529
 249	1	7	-0.151488	-42.7569	60.6329	2.71477
 250	1	7	-0.269275	-44.267	62.4155	3.68763
 251	1	3	0.096378	-43.307	59.7286	5.91186
 252	1	8	0.063418	-43.6994	63.2291	3.21851
 253	1	8	0.061085	-44.7418	62.8103	4.59502
 254	1	8	0.065045	-45.063	62.1166	2.99441
 255	1	3	-0.142025	-45.3069	59.5753	4.54795
 256	1	3	-0.448546	-43.7939	58.7407	6.78505
 257	1	3	0.277842	-45.0605	58.1579	6.5507
 258	1	3	-0.409063	-45.8019	58.5881	5.42189
 259	1	6	0.203923	-43.2009	58.4413	7.64527
 260	1	8	0.016419	-42.0924	59.7851	2.91932
 261	1	8	0.049665	-42.1795	61.3895	2.16869
 262	1	8	0.035794	-43.5579	60.277	2.05463
 263	1	6	0.161583	-45.8833	59.8946	3.68231
 264	1	6	0.199011	-46.7729	58.1417	5.21582
 265	1	1	0.463181	-29.0706	39.2894	1.67308
 266	1	2	0.074399	-27.9619	39.4099	2.51049
 267	1	3	0.034296	-28.0773	40.7612	3.11068
 268	1	2	0.051625	-29.8958	40.4144	1.70173
 269	1	3	0.019035	-29.2248	41.3609	2.63008
 270	1	5	-0.389616	-27.064	38.6063	2.70793
 271	1	5	-0.380104	-30.9221	40.6226	1.07554
 272	1	3	-0.045097	-27.2061	41.4299	3.97529
 273	1	3	-0.056032	-29.5625	42.6726	2.98118
 274	1	3	-0.174781	-28.697	43.3694	3.85219
 275	1	3	-0.129342	-27.5236	42.7515	4.3677
 276	1	6	0.168842	-26.2955	40.939	4.31648
 277	1	6	0.15893	-30.4524	43.1413	2.56622
 278	1	6	0.147704	-28.9249	44.4057	4.09399
 279	1	2	0.584577	-26.5433	43.4864	5.24912
 280	1	3	-0.046755	-26.9932	44.6147	6.14414
 281	1	3	-0.110868	-26.0538	45.6131	6.49279
 282	1	3	-0.046132	-26.4529	46.6337	7.36262
 283	1	3	-0.135873	-28.2989	44.6596	6.70522
 284	1	3	-0.117662	-28.6801	45.6998	7.57924
 285	1	3	-0.064457	-27.7273	46.6786	7.88897
 286	1	2	0.492569	-27.8121	47.8598	8.78886
 287	1	1	-0.072087	-26.5577	48.4589	8.74586
 288	1	2	0.477555	-25.6825	47.7819	7.90525
 289	1	3	0.042617	-26.2135	49.6377	9.46443
 290	1	3	-0.20367	-26.5451	49.7752	10.8238
 291	1	3	-0.057018	-26.2506	50.9626	11.5157
 292	1	3	-0.18182	-25.5454	50.6917	8.81965
 293	1	3	-0.14326	-25.2402	51.8722	9.51349
 294	1	3	0.043342	-25.6187	52.0436	10.8633
 295	1	6	0.163244	-27.0584	48.9701	11.3431
 296	1	6	0.101178	-26.5424	51.0355	12.5577
 297	1	6	0.165346	-29.6751	45.7369	8.01979
 298	1	6	0.135111	-29.0151	43.8705	6.4893
 299	1	6	0.171751	-25.035	45.5896	6.10693
 300	1	5	-0.478239	-24.5194	48.0452	7.65235
 301	1	5	-0.481107	-28.7914	48.1995	9.43101
 302	1	5	-0.49957	-25.3675	43.1604	5.23565
 303	1	6	0.151248	-25.2729	50.6068	7.77027
 304	1	6	0.146138	-24.7372	52.6727	8.97741
 305	1	7	0.044043	-25.375	53.3988	11.5631
 306	1	7	-0.215975	-26.3133	53.639	12.7781
 307	1	8	0.063789	-26.0772	52.963	13.6093
 308	1	8	0.072206	-27.363	53.4872	12.4951
 309	1	8	0.045489	-26.2214	54.6646	13.1542
 310	1	7	0.005306	-23.878	53.5703	11.9757
 311	1	7	0.164932	-23.4077	54.9994	11.5482
 312	1	8	0.005277	-23.2754	52.8179	11.4493
 313	1	8	0.017604	-23.7227	53.3908	13.0477
 314	1	3	0.008363	-24.4774	55.405	10.5508
 315	1	7	-0.151488	-22.0002	54.9514	10.9054
 316	1	7	-0.269275	-23.3907	55.9718	12.7526
 317	1	3	0.096378	-25.5626	54.5415	10.5812
 318	1	8	0.063418	-24.3781	56.0414	13.2236
 319	1	8	0.061085	-23.1033	56.9819	12.4347
 320	1	8	0.065045	-22.6742	55.64	13.5147
 321	1	3	-0.142025	-24.4427	56.4705	9.63713
 322	1	3	-0.448546	-26.6389	54.6991	9.69666
 323	1	3	0.277842	-26.6127	55.7275	8.7302
 324	1	3	-0.409063	-25.5096	56.6178	8.72597
 325	1	6	0.203923	-27.4526	53.9777	9.71467
 326	1	8	0.016419	-21.2615	54.553	11.6128
 327	1	8	0.049665	-21.6698	55.9527	10.6028
 328	1	8	0.035794	-21.9968	54.3115	10.0137
 329	1	6	0.161583	-23.5938	57.1506	9.61607
 330	1	6	0.199011	-25.4778	57.4277	7.99944
 331	1	1	0.463181	-13.5779	29.2829	6.72951
 332	1	2	0.074399	-14.6899	28.5211	6.36501
 333	1	3	0.034296	-15.6717	29.4956	5.82697
 334	1	2	0.051625	-13.7545	30.6448	6.47547
 335	1	3	0.019035	-15.1156	30.7578	5.89165
 336	1	5	-0.389616	-14.8543	27.3155	6.46131
 337	1	5	-0.380104	-12.9744	31.5642	6.66381
 338	1	3	-0.045097	-16.9613	29.2859	5.32502
 339	1	3	-0.056032	-15.8216	31.8879	5.46675
 340	1	3	-0.174781	-17.1247	31.7018	4.9581
 341	1	3	-0.129342	-17.6972	30.4026	4.86168
 342	1	6	0.168842	-17.3784	28.2801	5.29637
 343	1	6	0.15893	-15.3744	32.8769	5.54282
 344	1	6	0.147704	-17.6962	32.5778	4.65784
 345	1	2	0.584577	-19.0969	30.179	4.3383
 346	1	3	-0.046755	-19.6851	31.101	3.29621
 347	1	3	-0.110868	-21.0929	31.2301	3.20945
 348	1	3	-0.046132	-21.6302	32.0773	2.23042
 349	1	3	-0.135873	-18.8644	31.7937	2.36446
 350	1	3	-0.117662	-19.4257	32.6442	1.39051
 351	1	3	-0.064457	-20.8192	32.7692	1.35445
 352	1	2	0.492569	-21.6869	33.5626	0.446717
 353	1	1	-0.072087	-22.9937	33.2915	0.836119
 354	1	2	0.477555	-23.0461	32.4046	1.90605
 355	1	3	0.042617	-24.1358	33.8715	0.213408
 356	1	3	-0.20367	-24.2352	33.9172	-1.18787
 357	1	3	-0.057018	-25.3224	34.5552	-1.80577
 358	1	3	-0.18182	-25.1626	34.4455	0.983809
 359	1	3	-0.14326	-26.2517	35.0844	0.365198
 360	1	3	0.043342	-26.3381	35.1672	-1.04306
 361	1	6	0.163244	-23.4532	33.4832	-1.8055
 362	1	6	0.101178	-25.3617	34.5897	-2.8902
 363	1	6	0.165346	-18.8025	33.179	0.675429
 364	1	6	0.135111	-17.7853	31.6602	2.37787
 365	1	6	0.171751	-21.7516	30.6846	3.88485
 366	1	5	-0.478239	-24.0309	31.9593	2.4695
 367	1	5	-0.481107	-21.2991	34.2854	-0.455477
 368	1	5	-0.49957	-19.7528	29.2398	4.75858
 369	1	6	0.151248	-25.1123	34.4134	2.0698
 370	1	6	0.146138	-27.0135	35.527	1.00035
 371	1	7	0.044043	-27.4737	35.9213	-1.76537
 372	1	7	-0.215975	-26.888	37.0063	-2.71056
 373	1	8	0.063789	-26.3359	36.5609	-3.54675
 374	1	8	0.072206	-26.1997	37.6663	-2.16726
 375	1	8	0.045489	-27.6862	37.6295	-3.13447
 376	1	7	0.005306	-28.3917	34.9346	-2.55668
 377	1	7	0.164932	-29.6774	34.6814	-1.70976
 378	1	8	0.005277	-27.8787	33.9986	-2.81293
 379	1	8	0.017604	-28.6788	35.3995	-3.50952
 380	1	3	0.008363	-29.6847	35.8814	-0.783365
 381	1	7	-0.151488	-29.551	33.3743	-0.891602
 382	1	7	-0.269275	-30.9375	34.621	-2.60705
 383	1	3	0.096378	-28.4719	36.5562	-0.809527
 384	1	8	0.063418	-31.8393	34.4394	-2.00947
 385	1	8	0.061085	-30.8531	33.8125	-3.34433
 386	1	8	0.065045	-31.0779	35.5645	-3.15004
 387	1	3	-0.142025	-30.7317	36.3216	0.0419236
 388	1	3	-0.448546	-28.2622	37.6914	-0.0119975
 389	1	3	0.277842	-29.2922	38.154	0.835369
 390	1	3	-0.409063	-30.5272	37.4615	0.846193
 391	1	6	0.203923	-27.297	38.1911	-0.0293061
 392	1	8	0.016419	-30.4274	33.2298	-0.247148
 393	1	8	0.049665	-28.6615	33.394	-0.249295
 394	1	8	0.035794	-29.4704	32.5033	-1.55417
 395	1	6	0.161583	-31.6807	35.7896	0.0576278
 396	1	6	0.199011	-31.3357	37.8173	1.48177
 397	1	1	0.463181	-6.53698	22.3019	-7.00828
 398	1	2	0.074399	-6.88229	22.8497	-5.76807
 399	1	3	0.034296	-6.71055	24.3125	-5.92101
 400	1	2	0.051625	-6.17652	23.289	-7.93578
 401	1	3	0.019035	-6.30878	24.5808	-7.21238
 402	1	5	-0.389616	-7.27286	22.2899	-4.75593
 403	1	5	-0.380104	-5.79207	23.1576	-9.08647
 404	1	3	-0.045097	-6.89513	25.3279	-4.97993
 405	1	3	-0.056032	-6.10149	25.8949	-7.65088
 406	1	3	-0.174781	-6.29757	26.9413	-6.7222
 407	1	3	-0.129342	-6.66845	26.6663	-5.37959
 408	1	6	0.168842	-7.21734	25.071	-3.97257
 409	1	6	0.15893	-5.8018	26.0941	-8.67774
 410	1	6	0.147704	-6.14967	27.9734	-7.03805
 411	1	2	0.584577	-6.85112	27.7829	-4.38411
 412	1	3	-0.046755	-6.55192	27.4781	-2.94123
 413	1	3	-0.110868	-7.46904	27.855	-1.93394
 414	1	3	-0.046132	-7.20228	27.4573	-0.615875
 415	1	3	-0.135873	-5.3764	26.7609	-2.59368
 416	1	3	-0.117662	-5.12004	26.389	-1.25873
 417	1	3	-0.064457	-6.06559	26.7436	-0.2894
 418	1	2	0.492569	-6.1267	26.4055	1.15735
 419	1	1	-0.072087	-7.33524	26.9178	1.61197
 420	1	2	0.477555	-8.02828	27.5923	0.612782
 421	1	3	0.042617	-7.86222	26.684	2.91296
 422	1	3	-0.20367	-7.88485	25.3842	3.44772
 423	1	3	-0.057018	-8.49078	25.1336	4.68947
 424	1	3	-0.18182	-8.4199	27.7345	3.66057
 425	1	3	-0.14326	-9.02558	27.4843	4.90365
 426	1	3	0.043342	-9.10058	26.1717	5.42392
 427	1	6	0.163244	-7.44687	24.5575	2.89445
 428	1	6	0.101178	-8.49951	24.117	5.06971
 429	1	6	0.165346	-4.23372	25.8178	-0.986899
 430	1	6	0.135111	-4.66371	26.4802	-3.36678
 431	1	6	0.171751	-8.38469	28.3933	-2.17662
 432	1	5	-0.478239	-9.12884	28.1123	0.678419
 433	1	5	-0.481107	-5.30829	25.7432	1.77212
 434	1	5	-0.49957	-7.28585	28.87	-4.72357
 435	1	6	0.151248	-8.41204	28.7472	3.26433
 436	1	6	0.146138	-9.45445	28.3245	5.44172
 437	1	7	0.044043	-9.83462	25.8505	6.74321
 438	1	7	-0.215975	-10.7906	24.6363	6.57589
 439	1	8	0.063789	-10.2402	23.7008	6.42102
 440	1	8	0.072206	-11.4618	24.7813	5.7198
 441	1	8	0.045489	-11.4143	24.5058	7.46996
 442	1	7	0.005306	-8.81867	25.5968	7.90239
 443	1	7	0.164932	-8.78982	26.8605	8.81973
 444	1	8	0.005277	-7.8195	25.346	7.52211
 445	1	8	0.017604	-9.14773	24.7296	8.49045
 446	1	3	0.008363	-10.0415	27.6035	8.39449
 447	1	7	-0.151488	-7.53074	27.7155	8.54338
 448	1	7	-0.269275	-8.8381	26.4636	10.3156
 449	1	3	0.096378	-10.6211	27.0407	7.26674
 450	1	8	0.063418	-9.75331	25.9006	10.5409
 451	1	8	0.061085	-8.82269	27.3505	10.961
 452	1	8	0.065045	-7.97834	25.8359	10.5822
 453	1	3	-0.142025	-10.6045	28.7412	8.99314
 454	1	3	-0.448546	-11.7871	27.5846	6.70469
 455	1	3	0.277842	-12.3856	28.7223	7.28921
 456	1	3	-0.409063	-11.775	29.2928	8.43368
 457	1	6	0.203923	-12.2262	27.1225	5.82426
 458	1	8	0.016419	-7.47441	28.0047	7.48642
 459	1	8	0.049665	-6.61804	27.1589	8.79168
 460	1	8	0.035794	-7.54093	28.6334	9.14455
 461	1	6	0.161583	-10.1391	29.1892	9.86854
 462	1	6	0.199011	-12.2102	30.1821	8.88584
 463	1	1	0.463181	-14.992	7.41321	1.3346
 464	1	2	0.074399	-14.1846	8.3843	0.743345
 465	1	3	0.034296	-15.0695	9.56375	0.561039
 466	1	2	0.051625	-16.2974	7.85065	1.55032
 467	1	3	0.019035	-16.3284	9.24177	1.03182
 468	1	5	-0.389616	-13.006	8.31141	0.436175
 469	1	5	-0.380104	-17.2295	7.24002	2.04778
 470	1	3	-0.045097	-14.7917	10.8167	0.000352268
 471	1	3	-0.056032	-17.3906	10.1478	0.953123
 472	1	3	-0.174781	-17.1378	11.4113	0.379549
 473	1	3	-0.129342	-15.843	11.7632	-0.0862104
 474	1	6	0.168842	-13.7943	11.0236	-0.382338
 475	1	6	0.15893	-18.3804	9.87172	1.31055
 476	1	6	0.147704	-17.9545	12.1263	0.287964
 477	1	2	0.584577	-15.624	13.1075	-0.736918
 478	1	3	-0.046755	-14.253	13.7293	-0.701733
 479	1	3	-0.110868	-13.7588	14.3827	-1.85444
 480	1	3	-0.046132	-12.4705	14.9323	-1.80695
 481	1	3	-0.135873	-13.4595	13.6833	0.475513
 482	1	3	-0.117662	-12.1724	14.2598	0.505674
 483	1	3	-0.064457	-11.701	14.8726	-0.662295
 484	1	2	0.492569	-10.379	15.4857	-0.960435
 485	1	1	-0.072087	-10.4251	15.8499	-2.30123
 486	1	2	0.477555	-11.6618	15.5778	-2.87524
 487	1	3	0.042617	-9.30178	16.3216	-3.03823
 488	1	3	-0.20367	-8.07333	15.6438	-2.95799
 489	1	3	-0.057018	-6.9881	16.0367	-3.75648
 490	1	3	-0.18182	-9.41407	17.4207	-3.90808
 491	1	3	-0.14326	-8.32465	17.8185	-4.70408
 492	1	3	0.043342	-7.09884	17.1159	-4.65681
 493	1	6	0.163244	-7.96081	14.7927	-2.29152
 494	1	6	0.101178	-6.0624	15.4723	-3.69599
 495	1	6	0.165346	-11.5518	14.2214	1.39947
 496	1	6	0.135111	-13.8463	13.2072	1.37416
 497	1	6	0.171751	-14.3484	14.4344	-2.76931
 498	1	5	-0.478239	-12.0067	15.7374	-4.0334
 499	1	5	-0.481107	-9.4383	15.5664	-0.189361
 500	1	5	-0.49957	-16.5347	13.6629	-1.32825
 501	1	6	0.151248	-10.36	17.9501	-3.99495
 502	1	6	0.146138	-8.4627	18.6549	-5.38299
 503	1	7	0.044043	-5.91661	17.4393	-5.59433
 504	1	7	-0.215975	-4.62605	17.7276	-4.78109
 505	1	8	0.063789	-4.80285	18.5114	-4.03373
 506	1	8	0.072206	-3.81543	18.0657	-5.43955
 507	1	8	0.045489	-4.27455	16.8328	-4.25308
 508	1	7	0.005306	-5.69833	16.2623	-6.59964
 509	1	7	0.164932	-6.47651	16.6008	-7.90846
 510	1	8	0.005277	-5.99193	15.288	-6.18811
 511	1	8	0.017604	-4.6272	16.1901	-6.8316
 512	1	3	0.008363	-6.56203	18.1125	-7.82258
 513	1	7	-0.151488	-7.89088	15.9713	-7.90587
 514	1	7	-0.269275	-5.69822	16.1226	-9.15809
 515	1	3	0.096378	-6.21958	18.577	-6.55988
 516	1	8	0.063418	-6.24133	16.3672	-10.0792
 517	1	8	0.061085	-5.55139	15.0353	-9.13204
 518	1	8	0.065045	-4.7109	16.5989	-9.21268
 519	1	3	-0.142025	-6.92583	19.0088	-8.83734
 520	1	3	-0.448546	-6.18696	19.9531	-6.28272
 521	1	3	0.277842	-6.54411	20.8898	-7.28292
 522	1	3	-0.409063	-6.92408	20.3896	-8.55498
 523	1	6	0.203923	-5.9073	20.2834	-5.28634
 524	1	8	0.016419	-7.83255	14.8756	-7.88763
 525	1	8	0.049665	-8.44967	16.2654	-8.8031
 526	1	8	0.035794	-8.47249	16.2909	-7.03352
 527	1	6	0.161583	-7.20207	18.6413	-9.8234
 528	1	6	0.199011	-7.2052	21.0817	-9.34652
 529	1	1	0.463181	-25.408	-4.65162	7.14516
 530	1	2	0.074399	-24.7052	-4.36019	8.32104
 531	1	3	0.034296	-24.7355	-2.88457	8.44617
 532	1	2	0.051625	-25.8813	-3.49111	6.5173
 533	1	3	0.019035	-25.4114	-2.36303	7.36249
 534	1	5	-0.389616	-24.1038	-5.11434	9.06972
 535	1	5	-0.380104	-26.5451	-3.38199	5.49898
 536	1	3	-0.045097	-24.1844	-2.0641	9.43505
 537	1	3	-0.056032	-25.5476	-0.980499	7.18403
 538	1	3	-0.174781	-24.9708	-0.128435	8.15123
 539	1	3	-0.129342	-24.2943	-0.665473	9.27822
 540	1	6	0.168842	-23.6731	-2.50175	10.2911
 541	1	6	0.15893	-26.0786	-0.585862	6.32011
 542	1	6	0.147704	-25.068	0.950138	8.03817
 543	1	2	0.584577	-23.7036	0.225812	10.3319
 544	1	3	-0.046755	-22.6048	1.18777	9.94851
 545	1	3	-0.110868	-21.957	1.10412	8.68936
 546	1	3	-0.046132	-20.8658	1.94927	8.44323
 547	1	3	-0.135873	-22.1424	2.12794	10.9072
 548	1	3	-0.117662	-21.0422	2.96661	10.6388
 549	1	3	-0.064457	-20.4165	2.84507	9.39309
 550	1	2	0.492569	-19.1787	3.48653	8.87856
 551	1	1	-0.072087	-18.9428	2.90526	7.63921
 552	1	2	0.477555	-19.9333	1.9999	7.28378
 553	1	3	0.042617	-17.7489	3.11123	6.89751
 554	1	3	-0.20367	-17.7765	3.55797	5.56478
 555	1	3	-0.057018	-16.5759	3.78078	4.86332
 556	1	3	-0.18182	-16.5103	2.85758	7.50736
 557	1	3	-0.14326	-15.3151	3.07279	6.80694
 558	1	3	0.043342	-15.3248	3.55663	5.48268
 559	1	6	0.163244	-18.7278	3.74052	5.0716
 560	1	6	0.101178	-16.634	4.13671	3.83893
 561	1	6	0.165346	-20.6608	3.659	11.3876
 562	1	6	0.135111	-22.6205	2.18034	11.8842
 563	1	6	0.171751	-22.2415	0.368588	7.93959
 564	1	5	-0.478239	-20.0039	1.31844	6.27591
 565	1	5	-0.481107	-18.4761	4.27629	9.48557
 566	1	5	-0.49957	-24.0229	0.0692105	11.4986
 567	1	6	0.151248	-16.4711	2.5065	8.53572
 568	1	6	0.146138	-14.3724	2.87218	7.30737
 569	1	7	0.044043	-13.9784	3.83367	4.78494
 570	1	7	-0.215975	-13.115	4.79789	5.64532
 571	1	8	0.063789	-12.8063	4.33665	6.59088
 572	1	8	0.072206	-13.6723	5.71261	5.88379
 573	1	8	0.045489	-12.2031	5.09071	5.10864
 574	1	7	0.005306	-13.2067	2.49982	4.5159
 575	1	7	0.164932	-13.2791	2.18427	2.98974
 576	1	8	0.005277	-13.5952	1.66741	5.11738
 577	1	8	0.017604	-12.1559	2.6228	4.81029
 578	1	3	0.008363	-13.685	3.52152	2.40307
 579	1	7	-0.151488	-14.3679	1.12542	2.69403
 580	1	7	-0.269275	-11.9107	1.69385	2.45663
 581	1	3	0.096378	-14.1091	4.40956	3.38289
 582	1	8	0.063418	-11.9599	1.47254	1.38342
 583	1	8	0.061085	-11.5959	0.779006	2.97482
 584	1	8	0.065045	-11.1351	2.45547	2.6087
 585	1	3	-0.142025	-13.6682	3.8995	1.05121
 586	1	3	-0.448546	-14.5388	5.70347	3.04519
 587	1	3	0.277842	-14.5368	6.10982	1.69354
 588	1	3	-0.409063	-14.0899	5.19932	0.706035
 589	1	6	0.203923	-14.8799	6.38016	3.82361
 590	1	8	0.016419	-14.4601	0.950371	1.61447
 591	1	8	0.049665	-15.347	1.45284	3.06649
 592	1	8	0.035794	-14.1257	0.167928	3.17235
 593	1	6	0.161583	-13.3295	3.201	0.288857
 594	1	6	0.199011	-14.068	5.50643	-0.337376
 595	1	1	0.463181	-11.0385	-16.7634	10.5383
 596	1	2	0.074399	-12.2388	-16.2249	10.0555
 597	1	3	0.034296	-12.8798	-15.5652	11.2247
 598	1	2	0.051625	-10.84	-16.4724	11.8909
 599	1	3	0.019035	-12.0408	-15.712	12.3113
 600	1	5	-0.389616	-12.7038	-16.2761	8.92806
 601	1	5	-0.380104	-9.92381	-16.8091	12.6229
 602	1	3	-0.045097	-14.1376	-14.9522	11.3433
 603	1	3	-0.056032	-12.3983	-15.2506	13.5799
 604	1	3	-0.174781	-13.6548	-14.6313	13.723
 605	1	3	-0.129342	-14.5334	-14.4705	12.618
 606	1	6	0.168842	-14.7977	-14.9086	10.4797
 607	1	6	0.15893	-11.7364	-15.4012	14.4303
 608	1	6	0.147704	-13.9675	-14.2974	14.7116
 609	1	2	0.584577	-15.9118	-13.9042	12.8762
 610	1	3	-0.046755	-16.6819	-13.1529	11.815
 611	1	3	-0.110868	-18.0917	-13.0934	11.931
 612	1	3	-0.046132	-18.8161	-12.3486	10.9934
 613	1	3	-0.135873	-16.0425	-12.4357	10.7669
 614	1	3	-0.117662	-16.7954	-11.6919	9.83013
 615	1	3	-0.064457	-18.1907	-11.6711	9.96952
 616	1	2	0.492569	-19.2418	-10.9897	9.1625
 617	1	1	-0.072087	-20.4579	-11.3106	9.76254
 618	1	2	0.477555	-20.2794	-12.1183	10.882
 619	1	3	0.042617	-21.7373	-10.8962	9.27675
 620	1	3	-0.20367	-21.9513	-9.58738	8.80533
 621	1	3	-0.057018	-23.2121	-9.19218	8.32064
 622	1	3	-0.18182	-22.8208	-11.794	9.26647
 623	1	3	-0.14326	-24.084	-11.394	8.8012
 624	1	3	0.043342	-24.3007	-10.0938	8.30087
 625	1	6	0.163244	-21.1372	-8.86682	8.80449
 626	1	6	0.101178	-23.3238	-8.17418	7.96248
 627	1	6	0.165346	-16.3129	-11.1342	9.02896
 628	1	6	0.135111	-14.9576	-12.4237	10.6935
 629	1	6	0.171751	-18.6138	-13.6056	12.7389
 630	1	5	-0.478239	-21.1255	-12.5728	11.6326
 631	1	5	-0.481107	-19.0441	-10.3148	8.16705
 632	1	5	-0.49957	-16.4222	-14.0659	13.9731
 633	1	6	0.151248	-22.6922	-12.8099	9.63141
 634	1	6	0.146138	-24.9015	-12.1084	8.82938
 635	1	7	0.044043	-25.7006	-9.70562	7.77236
 636	1	7	-0.215975	-26.7141	-9.65445	8.94546
 637	1	8	0.063789	-26.3707	-8.96623	9.72812
 638	1	8	0.072206	-26.8418	-10.6432	9.40315
 639	1	8	0.045489	-27.6985	-9.3105	8.60229
 640	1	7	0.005306	-26.1804	-10.6992	6.66181
 641	1	7	0.164932	-25.787	-10.0975	5.2798
 642	1	8	0.005277	-27.2748	-10.7798	6.71245
 643	1	8	0.017604	-25.7935	-11.7175	6.78435
 644	1	3	0.008363	-25.7146	-8.62112	5.61116
 645	1	7	-0.151488	-26.8559	-10.4181	4.20722
 646	1	7	-0.269275	-24.4041	-10.6137	4.8141
 647	1	3	0.096378	-25.6984	-8.40168	6.98205
 648	1	8	0.063418	-23.6242	-10.3864	5.55147