pySIMM System Object

926 atoms
1023 bonds
1806 angles
2894 dihedrals
294 impropers

8 atom types
10 bond types
17 angle types
9 dihedral types
4 improper types

-143.953632 143.953632 xlo xhi
-143.953632 143.953632 ylo yhi
-143.953632 143.953632 zlo zhi

Masses

   1	14.01	# n
   2	12.01	# c
   3	12.01	# ca
   4	1.008	# hn
   5	16.0	# o
   6	1.008	# ha
   7	12.01	# c3
   8	1.008	# hc

Pair Coeffs

   1	0.17	3.249998523775958	# n
   2	0.086	3.3996695084235347	# c
   3	0.086	3.3996695084235347	# ca
   4	0.0157	1.069078461768407	# hn
   5	0.21	2.959921901149463	# o
   6	0.015	2.59964245953351	# ha
   7	0.1094	3.3996695084235347	# c3
   8	0.0157	2.649532787749369	# hc

Bond Coeffs

   1	461.1	1.3984	# ca,ca
   2	427.6	1.3789	# c,n
   3	345.9	1.4906	# c,ca
   4	300.9	1.5375	# c3,c3
   5	345.8	1.086	# ca,ha
   6	384.2	1.4121	# ca,n
   7	637.7	1.2183	# c,o
   8	321.0	1.5156	# c3,ca
   9	330.6	1.0969	# c3,hc
  10	403.2	1.0129	# hn,n

Angle Coeffs

   1	68.72	122.6	# ca,c,o
   2	62.86	111.51	# c3,c3,c3
   3	63.82	123.71	# c,n,ca
   4	67.87	120.19	# ca,ca,n
   5	67.68	115.25	# ca,c,n
   6	63.0	118.11	# ca,c,ca
   7	63.56	112.24	# ca,c3,ca
   8	63.15	112.07	# c3,c3,ca
   9	46.34	109.8	# c3,c3,hc
  10	74.22	123.05	# n,c,o
  11	48.33	117.55	# c,n,hn
  12	64.28	120.33	# c,ca,ca
  13	39.4	107.58	# hc,c3,hc
  14	66.62	120.02	# ca,ca,ca
  15	63.53	120.77	# c3,ca,ca
  16	63.74	127.08	# c,n,c
  17	48.18	119.88	# ca,ca,ha

Dihedral Coeffs

   1	1	2.5	2	180	# X,c,n,X
   2	1	0.45	2	180	# X,ca,n,X
   3	3	0.18	3	0	0.25	2	180	0.2	1	180	# c3,c3,c3,c3
   4	2	2.5	2	180	2.0	1	0	# hn,n,c,o
   5	1	3.625	2	180	# X,ca,ca,X
   6	1	0.16	3	0	# hc,c3,c3,c3
   7	1	1.0	2	180	# X,c,ca,X
   8	1	0.15555555555555556	3	0	# X,c3,c3,X
   9	1	0.0	2	0	# X,c3,ca,X

Improper Coeffs

   1	10.5	-1	2	# c,X,X,o
   2	1.1	-1	2	# ca,X,X,ha
   3	1.1	-1	2	# ca,ca,ca,c3
   4	1.1	-1	2	# n,X,X,hn

Atoms

   1	1	1	0.463181	-8.82405	-36.1597	34.334
   2	1	2	0.074399	-8.54269	-35.3118	33.2637
   3	1	3	0.034296	-9.07968	-36.0164	32.0726
   4	1	2	0.051625	-9.4641	-37.3338	33.9543
   5	1	3	0.019035	-9.63067	-37.2155	32.4879
   6	1	5	-0.389616	-8.01115	-34.2127	33.2826
   7	1	5	-0.380104	-9.82846	-38.2632	34.655
   8	1	3	-0.045097	-9.09223	-35.6322	30.727
   9	1	3	-0.056032	-10.2331	-38.0995	31.5908
  10	1	3	-0.174781	-10.2722	-37.7285	30.2338
  11	1	3	-0.129342	-9.70946	-36.4997	29.7972
  12	1	6	0.168842	-8.64643	-34.6879	30.4168
  13	1	6	0.15893	-10.6513	-39.0409	31.9397
  14	1	6	0.147704	-10.721	-38.4122	29.5157
  15	1	2	0.584577	-9.72983	-36.1352	28.3421
  16	1	3	-0.046755	-10.9327	-36.528	27.5329
  17	1	3	-0.110868	-10.7566	-36.9722	26.2055
  18	1	3	-0.046132	-11.8959	-37.3056	25.4652
  19	1	3	-0.135873	-12.2417	-36.4141	28.0733
  20	1	3	-0.117662	-13.376	-36.7159	27.292
  21	1	3	-0.064457	-13.1649	-37.1608	25.9808
  22	1	2	0.492569	-14.1367	-37.4322	24.8907
  23	1	1	-0.072087	-13.3762	-37.7011	23.7486
  24	1	2	0.477555	-12.0136	-37.7228	24.0492
  25	1	3	0.042617	-13.9086	-37.6996	22.4145
  26	1	3	-0.20367	-13.1391	-37.2099	21.3392
  27	1	3	-0.057018	-13.7187	-36.9521	20.0924
  28	1	3	-0.18182	-15.2513	-38.0447	22.152
  29	1	3	-0.14326	-15.8376	-37.7723	20.9022
  30	1	3	0.043342	-15.0943	-37.145	19.8802
  31	1	6	0.163244	-12.0897	-36.9646	21.4549
  32	1	6	0.101178	-13.096	-36.5372	19.3059
  33	1	6	0.165346	-14.3861	-36.5772	27.6755
  34	1	6	0.135111	-12.3814	-36.0432	29.0868
  35	1	6	0.171751	-9.76477	-37.037	25.7587
  36	1	5	-0.478239	-11.0683	-37.958	23.3176
  37	1	5	-0.481107	-15.343	-37.2937	24.9894
  38	1	5	-0.49957	-8.78432	-35.563	27.8278
  39	1	6	0.151248	-15.8769	-38.4672	22.9341
  40	1	6	0.146138	-16.8888	-38.0053	20.7613
  41	1	7	0.044043	-15.7224	-36.61	18.58
  42	1	7	-0.215975	-15.3297	-35.1186	18.3772
  43	1	8	0.063789	-15.6137	-34.5245	19.2557
  44	1	8	0.072206	-15.8407	-34.6902	17.5062
  45	1	8	0.045489	-14.2522	-34.9902	18.2206
  46	1	7	0.005306	-15.2859	-37.4718	17.3538
  47	1	7	0.164932	-16.5439	-37.7654	16.4754
  48	1	8	0.005277	-14.8533	-38.4169	17.7086
  49	1	8	0.017604	-14.4955	-36.9735	16.7763
  50	1	3	0.008363	-17.6876	-37.2782	17.3452
  51	1	7	-0.151488	-16.6765	-39.2798	16.1885
  52	1	7	-0.269275	-16.4789	-36.986	15.1391
  53	1	3	0.096378	-17.2394	-36.6848	18.5195
  54	1	8	0.063418	-16.406	-35.9054	15.3149
  55	1	8	0.061085	-17.3739	-37.17	14.5318
  56	1	8	0.065045	-15.6047	-37.2939	14.5509
  57	1	3	-0.142025	-19.0613	-37.3574	17.0606
  58	1	3	-0.448546	-18.1491	-36.1365	19.4415
  59	1	3	0.277842	-19.5251	-36.2299	19.184
  60	1	3	-0.409063	-19.9764	-36.8335	17.9962
  61	1	6	0.203923	-17.7964	-35.6482	20.3439
  62	1	8	0.016419	-16.7424	-39.8497	17.1245
  63	1	8	0.049665	-15.8107	-39.6491	15.6248
  64	1	8	0.035794	-17.5791	-39.4921	15.6021
  65	1	6	0.161583	-19.407	-37.8097	16.134
  66	1	6	0.199011	-21.0436	-36.8842	17.8028
  67	1	1	0.463181	-7.94036	-22.8023	28.9275
  68	1	2	0.074399	-7.26943	-22.1478	29.9816
  69	1	3	0.034296	-6.32175	-23.1352	30.5494
  70	1	2	0.051625	-7.46962	-24.1266	28.7964
  71	1	3	0.019035	-6.42547	-24.302	29.8314
  72	1	5	-0.389616	-7.36431	-21.0025	30.3903
  73	1	5	-0.380104	-7.82064	-25.024	28.0482
  74	1	3	-0.045097	-5.4417	-23.0152	31.6306
  75	1	3	-0.056032	-5.62397	-25.4126	30.1156
  76	1	3	-0.174781	-4.72047	-25.3162	31.1936
  77	1	3	-0.129342	-4.65196	-24.1351	31.9815
  78	1	6	0.168842	-5.39218	-22.0843	32.194
  79	1	6	0.15893	-5.70883	-26.319	29.5199
  80	1	6	0.147704	-4.0797	-26.1668	31.4201
  81	1	2	0.584577	-3.73159	-24.025	33.1678
  82	1	3	-0.046755	-3.47207	-25.2304	34.0375
  83	1	3	-0.110868	-4.41272	-26.2839	34.1256
  84	1	3	-0.046132	-4.09132	-27.3964	34.9104
  85	1	3	-0.135873	-2.28453	-25.3015	34.8113
  86	1	3	-0.117662	-1.97122	-26.4408	35.578
  87	1	3	-0.064457	-2.89571	-27.4897	35.5877
  88	1	2	0.492569	-2.85188	-28.8066	36.2714
  89	1	1	-0.072087	-4.06911	-29.4258	35.9892
  90	1	2	0.477555	-4.87289	-28.6266	35.1765
  91	1	3	0.042617	-4.44698	-30.7169	36.4736
  92	1	3	-0.20367	-3.99502	-31.1893	37.7208
  93	1	3	-0.057018	-4.35633	-32.4638	38.1848
  94	1	3	-0.18182	-5.27736	-31.5572	35.7109
  95	1	3	-0.14326	-5.6777	-32.8089	36.1975
  96	1	3	0.043342	-5.23543	-33.2868	37.4516
  97	1	6	0.163244	-3.34351	-30.5812	38.3411
  98	1	6	0.101178	-3.93914	-32.8033	39.1264
  99	1	6	0.165346	-1.04586	-26.5042	36.1488
 100	1	6	0.135111	-1.59298	-24.4673	34.814
 101	1	6	0.171751	-5.36992	-26.2502	33.609
 102	1	5	-0.478239	-6.00041	-28.8342	34.762
 103	1	5	-0.481107	-1.90368	-29.2381	36.9048
 104	1	5	-0.49957	-3.2078	-22.9524	33.4095
 105	1	6	0.151248	-5.63608	-31.2488	34.7323
 106	1	6	0.146138	-6.33513	-33.3909	35.5651
 107	1	7	0.044043	-5.63945	-34.6802	37.9867
 108	1	7	-0.215975	-4.4975	-35.689	37.7036
 109	1	8	0.063789	-4.26756	-35.7295	36.6315
 110	1	8	0.072206	-4.76972	-36.7011	38.0294
 111	1	8	0.045489	-3.58005	-35.3965	38.2302
 112	1	7	0.005306	-6.00607	-34.665	39.5115
 113	1	7	0.164932	-7.54114	-34.4361	39.6359
 114	1	8	0.005277	-5.44225	-33.941	40.1082
 115	1	8	0.017604	-5.76713	-35.6499	39.9347
 116	1	3	0.008363	-8.02365	-34.9498	38.2981
 117	1	7	-0.151488	-7.87992	-32.9341	39.7891
 118	1	7	-0.269275	-8.13415	-35.2353	40.8217
 119	1	3	0.096378	-6.97312	-35.1373	37.406
 120	1	8	0.063418	-7.973	-36.313	40.6879
 121	1	8	0.061085	-9.21461	-35.067	40.9101
 122	1	8	0.065045	-7.66659	-34.9352	41.7679
 123	1	3	-0.142025	-9.35068	-35.1935	37.9165
 124	1	3	-0.448546	-7.21387	-35.6218	36.11
 125	1	3	0.277842	-8.54291	-35.8272	35.6866
 126	1	3	-0.409063	-9.60233	-35.6192	36.5998
 127	1	6	0.203923	-6.38929	-35.7464	35.4134
 128	1	8	0.016419	-7.49941	-32.3512	38.9409
 129	1	8	0.049665	-7.44157	-32.5246	40.7076
 130	1	8	0.035794	-8.96593	-32.7834	39.8361
 131	1	6	0.161583	-10.1664	-35.0233	38.6157
 132	1	6	0.199011	-10.6289	-35.779	36.2773
 133	1	1	0.463181	-10.9043	-30.912	21.1334
 134	1	2	0.074399	-11.9558	-30.3498	21.8632
 135	1	3	0.034296	-12.6743	-31.5	22.4533
 136	1	2	0.051625	-10.8708	-32.3092	21.2443
 137	1	3	0.019035	-12.0356	-32.6656	22.0973
 138	1	5	-0.389616	-12.2862	-29.1787	21.9768
 139	1	5	-0.380104	-10.094	-33.1004	20.7349
 140	1	3	-0.045097	-13.8247	-31.5007	23.2371
 141	1	3	-0.056032	-12.5253	-33.911	22.5091
 142	1	3	-0.174781	-13.6875	-33.9385	23.3147
 143	1	3	-0.129342	-14.3394	-32.7383	23.7024
 144	1	6	0.168842	-14.2725	-30.5408	23.4753
 145	1	6	0.15893	-12.0112	-34.821	22.217
 146	1	6	0.147704	-14.0882	-34.8925	23.649
 147	1	2	0.584577	-15.5256	-32.7619	24.6437
 148	1	3	-0.046755	-16.0592	-31.4099	25.0078
 149	1	3	-0.110868	-15.3287	-30.675	25.965
 150	1	3	-0.046132	-15.4293	-29.2806	25.9425
 151	1	3	-0.135873	-16.9543	-30.7477	24.1291
 152	1	3	-0.117662	-17.0694	-29.3417	24.1496
 153	1	3	-0.064457	-16.2607	-28.6307	25.0486
 154	1	2	0.492569	-15.8648	-27.1966	25.0165
 155	1	1	-0.072087	-14.7396	-27.1109	25.8254
 156	1	2	0.477555	-14.4681	-28.2927	26.4966
 157	1	3	0.042617	-13.7757	-26.0854	25.6655
 158	1	3	-0.20367	-12.8378	-26.205	24.6277
 159	1	3	-0.057018	-11.9208	-25.1747	24.3725
 160	1	3	-0.18182	-13.7612	-24.9431	26.4792
 161	1	3	-0.14326	-12.8318	-23.9156	26.2298
 162	1	3	0.043342	-11.912	-24.0016	25.1582
 163	1	6	0.163244	-12.8375	-27.0876	23.9917
 164	1	6	0.101178	-11.2426	-25.2965	23.5365
 165	1	6	0.165346	-17.6551	-28.8138	23.3978
 166	1	6	0.135111	-17.4587	-31.3113	23.3458
 167	1	6	0.171751	-14.5545	-31.1544	26.5622
 168	1	5	-0.478239	-13.4851	-28.5636	27.1634
 169	1	5	-0.481107	-16.28	-26.3619	24.2317
 170	1	5	-0.49957	-15.841	-33.7611	25.2648
 171	1	6	0.151248	-14.4802	-24.8414	27.2879
 172	1	6	0.146138	-12.8493	-23.0327	26.8612
 173	1	7	0.044043	-11.0047	-22.7966	24.8182
 174	1	7	-0.215975	-9.87576	-23.1199	23.7997
 175	1	8	0.063789	-10.2847	-23.4118	22.8242
 176	1	8	0.072206	-9.23398	-23.9299	24.1668
 177	1	8	0.045489	-9.23739	-22.2419	23.6365
 178	1	7	0.005306	-11.8836	-21.6175	24.2822
 179	1	7	0.164932	-11.7947	-20.421	25.2841
 180	1	8	0.005277	-12.9259	-21.939	24.1537
 181	1	8	0.017604	-11.5477	-21.3078	23.2835
 182	1	3	0.008363	-10.8725	-20.949	26.3647
 183	1	7	-0.151488	-13.1859	-20.0473	25.8498
 184	1	7	-0.269275	-11.1626	-19.1848	24.5995
 185	1	3	0.096378	-10.3898	-22.2127	26.0782
 186	1	8	0.063418	-11.0732	-18.3478	25.3032
 187	1	8	0.061085	-11.772	-18.8503	23.7503
 188	1	8	0.065045	-10.1566	-19.4174	24.2262
 189	1	3	-0.142025	-10.4708	-20.2945	27.5334
 190	1	3	-0.448546	-9.4267	-22.8226	26.8965
 191	1	3	0.277842	-8.9603	-22.1923	28.0822
 192	1	3	-0.409063	-9.54663	-20.9287	28.3871
 193	1	6	0.203923	-9.052	-23.7852	26.5762
 194	1	8	0.016419	-13.1097	-19.2205	26.5672
 195	1	8	0.049665	-13.647	-20.8978	26.3654
 196	1	8	0.035794	-13.862	-19.7334	25.0444
 197	1	6	0.161583	-10.8634	-19.308	27.7714
 198	1	6	0.199011	-9.27864	-20.3912	29.2891
 199	1	1	0.463181	-0.499524	-21.3161	32.6698
 200	1	2	0.074399	-0.237412	-22.6762	32.8052
 201	1	3	0.034296	-0.502604	-23.2512	31.4633
 202	1	2	0.051625	-0.785278	-20.9452	31.358
 203	1	3	0.019035	-0.779002	-22.2174	30.5918
 204	1	5	-0.389616	0.184344	-23.2742	33.7811
 205	1	5	-0.380104	-1.03209	-19.8336	30.9199
 206	1	3	-0.045097	-0.563227	-24.587	31.0555
 207	1	3	-0.056032	-1.0074	-22.4545	29.2334
 208	1	3	-0.174781	-1.02325	-23.7938	28.7882
 209	1	3	-0.129342	-0.884881	-24.874	29.7051
 210	1	6	0.168842	-0.391579	-25.3801	31.7823
 211	1	6	0.15893	-1.16728	-21.6227	28.5505
 212	1	6	0.147704	-1.14902	-23.9783	27.7246
 213	1	2	0.584577	-1.0221	-26.3289	29.3084
 214	1	3	-0.046755	-1.83062	-26.7794	28.1043
 215	1	3	-0.110868	-2.82307	-25.9758	27.4785
 216	1	3	-0.046132	-3.49749	-26.4892	26.3592
 217	1	3	-0.135873	-1.6184	-28.0999	27.6212
 218	1	3	-0.117662	-2.33305	-28.6097	26.5211
 219	1	3	-0.064457	-3.25984	-27.7686	25.901
 220	1	2	0.492569	-4.11887	-28.0107	24.7169
 221	1	1	-0.072087	-4.81066	-26.8255	24.5036
 222	1	2	0.477555	-4.51273	-25.8632	25.4628
 223	1	3	0.042617	-5.68394	-26.6416	23.3962
 224	1	3	-0.20367	-5.25679	-27.0144	22.1126
 225	1	3	-0.057018	-6.14029	-26.9751	21.0271
 226	1	3	-0.18182	-7.00167	-26.1838	23.5651
 227	1	3	-0.14326	-7.88538	-26.1368	22.4691
 228	1	3	0.043342	-7.47307	-26.5411	21.177
 229	1	6	0.163244	-4.24876	-27.3904	21.9572
 230	1	6	0.101178	-5.77641	-27.3187	20.0699
 231	1	6	0.165346	-2.16832	-29.6216	26.1542
 232	1	6	0.135111	-0.88791	-28.743	28.1095
 233	1	6	0.171751	-3.08614	-24.9856	27.8395
 234	1	5	-0.478239	-4.92309	-24.7178	25.5382
 235	1	5	-0.481107	-4.16495	-29.0408	24.0663
 236	1	5	-0.49957	-0.518124	-27.1739	30.0314
 237	1	6	0.151248	-7.35261	-25.8961	24.554
 238	1	6	0.146138	-8.90372	-25.8144	22.6484
 239	1	7	0.044043	-8.4509	-26.6098	19.9786
 240	1	7	-0.215975	-9.71243	-25.7161	20.1616
 241	1	8	0.063789	-9.43348	-24.6672	20.3253
 242	1	8	0.072206	-10.3309	-26.0491	21.0037
 243	1	8	0.045489	-10.3527	-25.7602	19.2704
 244	1	7	0.005306	-7.77893	-26.2481	18.6033
 245	1	7	0.164932	-7.7782	-27.5157	17.6816
 246	1	8	0.005277	-6.7694	-25.8391	18.7288
 247	1	8	0.017604	-8.34002	-25.4415	18.1126
 248	1	3	0.008363	-8.55404	-28.5278	18.5005
 249	1	7	-0.151488	-6.34557	-28.0331	17.3947
 250	1	7	-0.269275	-8.48223	-27.2185	16.3347
 251	1	3	0.096378	-8.88875	-28.0483	19.7593
 252	1	8	0.063418	-9.5079	-26.8635	16.4964
 253	1	8	0.061085	-8.53363	-28.1182	15.7085
 254	1	8	0.065045	-7.93791	-26.4491	15.7724
 255	1	3	-0.142025	-8.94083	-29.8161	18.102
 256	1	3	-0.448546	-9.61245	-28.8437	20.6633
 257	1	3	0.277842	-10.0463	-30.1364	20.2824
 258	1	3	-0.409063	-9.6964	-30.6043	18.9914
 259	1	6	0.203923	-9.87418	-28.4381	21.6363
 260	1	8	0.016419	-5.89372	-28.4849	18.2844
 261	1	8	0.049665	-5.6933	-27.221	17.0496
 262	1	8	0.035794	-6.35698	-28.8076	16.6176
 263	1	6	0.161583	-8.67876	-30.1884	17.1142
 264	1	6	0.199011	-10.0203	-31.5925	18.6709
 265	1	1	0.463181	7.01955	-4.8835	24.7951
 266	1	2	0.074399	6.36943	-4.82771	26.0376
 267	1	3	0.034296	6.0812	-6.2423	26.4096
 268	1	2	0.051625	7.1137	-6.19878	24.3228
 269	1	3	0.019035	6.52488	-7.05557	25.3889
 270	1	5	-0.389616	6.16255	-3.85591	26.7467
 271	1	5	-0.380104	7.67221	-6.60638	23.3171
 272	1	3	-0.045097	5.52451	-6.77945	27.5812
 273	1	3	-0.056032	6.43536	-8.45077	25.4809
 274	1	3	-0.174781	5.86626	-9.01385	26.646
 275	1	3	-0.129342	5.4162	-8.18981	27.7145
 276	1	6	0.168842	5.18403	-6.11163	28.3717
 277	1	6	0.15893	6.7953	-9.07627	24.6668
 278	1	6	0.147704	5.75661	-10.0945	26.6999
 279	1	2	0.584577	4.74431	-8.74931	28.9562
 280	1	3	-0.046755	4.90999	-10.1894	29.4065
 281	1	3	-0.110868	3.85326	-10.7911	30.1358
 282	1	3	-0.046132	4.02087	-12.0906	30.6348
 283	1	3	-0.135873	6.11876	-10.9177	29.2269
 284	1	3	-0.117662	6.26925	-12.2259	29.7443
 285	1	3	-0.064457	5.19556	-12.7896	30.4496
 286	1	2	0.492569	5.07796	-14.0882	31.1762
 287	1	1	-0.072087	3.81993	-14.0799	31.7692
 288	1	2	0.477555	3.11326	-12.9207	31.4734
 289	1	3	0.042617	3.34189	-15.0833	32.6621
 290	1	3	-0.20367	4.09053	-15.4316	33.7991
 291	1	3	-0.057018	3.58372	-16.3457	34.7387
 292	1	3	-0.18182	2.08255	-15.6805	32.4738
 293	1	3	-0.14326	1.57651	-16.5991	33.4125
 294	1	3	0.043342	2.32085	-16.9497	34.5617
 295	1	6	0.163244	5.06019	-14.9731	33.9727
 296	1	6	0.101178	4.17359	-16.5565	35.6242
 297	1	6	0.165346	7.20303	-12.7749	29.633
 298	1	6	0.135111	6.96489	-10.4534	28.726
 299	1	6	0.171751	2.92993	-10.2486	30.3368
 300	1	5	-0.478239	2.00156	-12.6004	31.8563
 301	1	5	-0.481107	5.94697	-14.9377	31.2741
 302	1	5	-0.49957	4.01883	-8.01457	29.6068
 303	1	6	0.151248	1.47439	-15.4062	31.615
 304	1	6	0.146138	0.58331	-17.0106	33.2512
 305	1	7	0.044043	1.73586	-17.8736	35.6532
 306	1	7	-0.215975	2.80665	-18.8052	36.2871
 307	1	8	0.063789	3.53287	-18.2483	36.8902
 308	1	8	0.072206	3.35291	-19.3536	35.509
 309	1	8	0.045489	2.33986	-19.548	36.9465
 310	1	7	0.005306	1.02629	-17.0109	36.7474
 311	1	7	0.164932	-0.349818	-17.6628	37.0909
 312	1	8	0.005277	0.853915	-16.0016	36.3496
 313	1	8	0.017604	1.65307	-16.8838	37.6395
 314	1	3	0.008363	-0.537308	-18.6375	35.9489
 315	1	7	-0.151488	-1.48308	-16.6087	37.1244
 316	1	7	-0.269275	-0.292412	-18.412	38.4447
 317	1	3	0.096378	0.600955	-18.7544	35.1603
 318	1	8	0.063418	0.485463	-19.1853	38.4365
 319	1	8	0.061085	-1.24907	-18.9036	38.6621
 320	1	8	0.065045	-0.0742662	-17.7189	39.2669
 321	1	3	-0.142025	-1.68931	-19.3811	35.6619
 322	1	3	-0.448546	0.642104	-19.6466	34.0763
 323	1	3	0.277842	-0.504422	-20.4064	33.7646
 324	1	3	-0.409063	-1.6656	-20.2525	34.5593
 325	1	6	0.203923	1.54844	-19.7434	33.4857
 326	1	8	0.016419	-1.27687	-15.8333	37.8726
 327	1	8	0.049665	-2.44555	-17.0721	37.3752
 328	1	8	0.035794	-1.59133	-16.1207	36.147
 329	1	6	0.161583	-2.57946	-19.2855	36.2801
 330	1	6	0.199011	-2.55873	-20.8226	34.3243
 331	1	1	0.463181	7.95672	8.0878	6.92314
 332	1	2	0.074399	8.90018	7.7632	7.90624
 333	1	3	0.034296	8.17255	6.94947	8.92127
 334	1	2	0.051625	6.70041	7.53322	7.21776
 335	1	3	0.019035	6.86416	6.81037	8.51376
 336	1	5	-0.389616	10.0621	8.1263	7.99286
 337	1	5	-0.380104	5.65361	7.64757	6.60062
 338	1	3	-0.045097	8.61353	6.43427	10.1491
 339	1	3	-0.056032	5.92547	6.14498	9.31812
 340	1	3	-0.174781	6.35158	5.6104	10.5604
 341	1	3	-0.129342	7.70395	5.73499	10.9883
 342	1	6	0.168842	9.64326	6.60651	10.4585
 343	1	6	0.15893	4.88638	6.07988	9.00078
 344	1	6	0.147704	5.61014	5.15302	11.2115
 345	1	2	0.584577	8.20928	5.30537	12.361
 346	1	3	-0.046755	7.7366	4.07416	13.1335
 347	1	3	-0.110868	8.2426	3.87845	14.4502
 348	1	3	-0.046132	7.89709	2.72101	15.1692
 349	1	3	-0.135873	6.8998	3.06289	12.583
 350	1	3	-0.117662	6.55362	1.90817	13.3282
 351	1	3	-0.064457	7.06727	1.76367	14.6277
 352	1	2	0.492569	6.95954	0.638811	15.6094
 353	1	1	-0.072087	7.75948	0.988094	16.6938
 354	1	2	0.477555	8.35562	2.23177	16.5061
 355	1	3	0.042617	8.11426	0.0855361	17.7487
 356	1	3	-0.20367	9.22618	-0.745957	17.5645
 357	1	3	-0.057018	9.61576	-1.65216	18.5617
 358	1	3	-0.18182	7.40009	-0.0165187	18.9646
 359	1	3	-0.14326	7.80751	-0.921955	19.9818
 360	1	3	0.043342	8.93752	-1.75228	19.7996
 361	1	6	0.163244	9.79634	-0.692829	16.6412
 362	1	6	0.101178	10.48	-2.28007	18.367
 363	1	6	0.165346	5.93114	1.12578	12.8969
 364	1	6	0.135111	6.54395	3.1407	11.5602
 365	1	6	0.171751	8.92448	4.59922	14.9005
 366	1	5	-0.478239	9.18223	2.77301	17.2188
 367	1	5	-0.481107	6.36884	-0.411874	15.4312
 368	1	5	-0.49957	9.10039	5.97964	12.8526
 369	1	6	0.151248	6.52676	0.610569	19.1239
 370	1	6	0.146138	7.24162	-0.978315	20.9083
 371	1	7	0.044043	9.48242	-2.77715	20.8397
 372	1	7	-0.215975	9.34273	-4.20342	20.2374
 373	1	8	0.063789	9.933	-4.31811	19.3205
 374	1	8	0.072206	8.29614	-4.41806	19.9865
 375	1	8	0.045489	9.68322	-4.96775	20.9483
 376	1	7	0.005306	10.9948	-2.44633	21.0995
 377	1	7	0.164932	11.1559	-1.84495	22.524
 378	1	8	0.005277	11.4282	-1.76275	20.3602
 379	1	8	0.017604	11.5808	-3.37163	21.0216
 380	1	3	0.008363	9.83992	-2.20201	23.1757
 381	1	7	-0.151488	11.3767	-0.315478	22.5036
 382	1	7	-0.269275	12.3449	-2.53818	23.2416
 383	1	3	0.096378	8.93118	-2.77557	22.2852
 384	1	8	0.063418	12.4993	-2.13598	24.25
 385	1	8	0.061085	13.2767	-2.40222	22.6785
 386	1	8	0.065045	12.1634	-3.61764	23.3372
 387	1	3	-0.142025	9.64017	-2.23988	24.5618
 388	1	3	-0.448546	7.90091	-3.59858	22.8122
 389	1	3	0.277842	7.77251	-3.79341	24.2191
 390	1	3	-0.409063	8.6048	-3.03326	25.0734
 391	1	6	0.203923	7.31485	-4.21454	22.1367
 392	1	8	0.016419	11.4699	0.0760911	23.5251
 393	1	8	0.049665	10.5389	0.19936	22.0174
 394	1	8	0.035794	12.2973	-0.0617448	21.9627
 395	1	6	0.161583	10.3609	-1.77926	25.2344
 396	1	6	0.199011	8.53283	-3.1532	26.1529
 397	1	1	0.463181	16.9069	9.33203	-12.82
 398	1	2	0.074399	16.6951	8.64373	-11.6208
 399	1	3	0.034296	15.9581	9.58741	-10.735
 400	1	2	0.051625	16.291	10.582	-12.83
 401	1	3	0.019035	15.7038	10.7339	-11.4671
 402	1	5	-0.389616	17.1388	7.55619	-11.2905
 403	1	5	-0.380104	16.3657	11.4502	-13.6839
 404	1	3	-0.045097	15.7309	9.52641	-9.34448
 405	1	3	-0.056032	15.1638	11.8711	-10.8592
 406	1	3	-0.174781	14.9192	11.8284	-9.47076
 407	1	3	-0.129342	15.205	10.6733	-8.69432
 408	1	6	0.168842	16.0759	8.66168	-8.78246
 409	1	6	0.15893	15.0289	12.7883	-11.4289
 410	1	6	0.147704	14.6006	12.7401	-8.96766
 411	1	2	0.584577	15.2799	10.8627	-7.19332
 412	1	3	-0.046755	14.3395	10.2161	-6.19135
 413	1	3	-0.110868	13.99	10.9761	-5.04479
 414	1	3	-0.046132	13.2767	10.3678	-4.0014
 415	1	3	-0.135873	13.9165	8.8613	-6.26451
 416	1	3	-0.117662	13.2153	8.26014	-5.18695
 417	1	3	-0.064457	12.9223	9.03839	-4.05209
 418	1	2	0.492569	12.3431	8.66999	-2.71922
 419	1	1	-0.072087	12.4056	9.81896	-1.9298
 420	1	2	0.477555	12.9075	10.8979	-2.65932
 421	1	3	0.042617	12.1087	9.87914	-0.521345
 422	1	3	-0.20367	12.9601	10.5997	0.335591
 423	1	3	-0.057018	12.6675	10.7389	1.70103
 424	1	3	-0.18182	10.9857	9.245	0.0578385
 425	1	3	-0.14326	10.6889	9.38764	1.43751
 426	1	3	0.043342	11.5068	10.1766	2.27701
 427	1	6	0.163244	13.8436	11.0951	-0.0587059
 428	1	6	0.101178	13.3345	11.345	2.30707
 429	1	6	0.165346	12.9513	7.20407	-5.20694
 430	1	6	0.135111	14.1935	8.24995	-7.11937
 431	1	6	0.171751	14.3212	12.0087	-4.93846
 432	1	5	-0.478239	13.0729	12.048	-2.28941
 433	1	5	-0.481107	11.9831	7.55462	-2.38596
 434	1	5	-0.49957	16.0569	11.7102	-6.78563
 435	1	6	0.151248	10.3214	8.65572	-0.569355
 436	1	6	0.146138	9.79463	8.92056	1.84113
 437	1	7	0.044043	11.1584	10.5492	3.74635
 438	1	7	-0.215975	12.2897	10.0812	4.70316
 439	1	8	0.063789	13.2425	10.575	4.47786
 440	1	8	0.072206	12.4454	8.99811	4.62258
 441	1	8	0.045489	12.0408	10.3088	5.74832
 442	1	7	0.005306	10.9979	12.1037	3.80653
 443	1	7	0.164932	9.49717	12.4332	3.56752
 444	1	8	0.005277	11.6461	12.6547	3.11499
 445	1	8	0.017604	11.2744	12.4412	4.81506
 446	1	3	0.008363	8.85554	11.1907	4.15154
 447	1	7	-0.151488	9.14366	12.5932	2.06841
 448	1	7	-0.269275	9.11729	13.7285	4.32804
 449	1	3	0.096378	9.77018	10.1454	4.28883
 450	1	8	0.063418	9.20532	13.5863	5.41307
 451	1	8	0.061085	8.08654	14.0329	4.10945
 452	1	8	0.065045	9.78061	14.5544	4.04052
 453	1	3	-0.142025	7.58189	11.1267	4.7318
 454	1	3	-0.448546	9.45847	9.06456	5.15157
 455	1	3	0.277842	8.21605	9.0234	5.84869
 456	1	3	-0.409063	7.2724	10.0438	5.57259
 457	1	6	0.203923	10.226	8.33173	5.38355
 458	1	8	0.016419	9.74787	13.3819	1.60298
 459	1	8	0.049665	8.08635	12.8603	1.94759
 460	1	8	0.035794	9.30749	11.6671	1.50924
 461	1	6	0.161583	6.88501	11.9546	4.6186
 462	1	6	0.199011	6.31269	10.0465	6.08576
 463	1	1	0.463181	19.5284	8.82311	-32.0699
 464	1	2	0.074399	19.9259	7.6713	-31.3614
 465	1	3	0.034296	18.6971	7.11897	-30.7473
 466	1	2	0.051625	18.1167	8.92271	-32.073
 467	1	3	0.019035	17.6201	7.84988	-31.1817
 468	1	5	-0.389616	21.0368	7.21547	-31.1495
 469	1	5	-0.380104	17.3786	9.76894	-32.5485
 470	1	3	-0.045097	18.5704	6.16257	-29.7361
 471	1	3	-0.056032	16.3328	7.62857	-30.6775
 472	1	3	-0.174781	16.1763	6.66265	-29.6598
 473	1	3	-0.129342	17.3018	5.96315	-29.1446
 474	1	6	0.168842	19.4538	5.64474	-29.3664
 475	1	6	0.15893	15.4934	8.2235	-31.0329
 476	1	6	0.147704	15.1802	6.47562	-29.2727
 477	1	2	0.584577	17.2394	5.04279	-27.951
 478	1	3	-0.046755	16.8693	5.63061	-26.6041
 479	1	3	-0.110868	17.7322	5.37935	-25.5079
 480	1	3	-0.046132	17.4373	5.95599	-24.264
 481	1	3	-0.135873	15.7098	6.42809	-26.3953
 482	1	3	-0.117662	15.4137	6.97221	-25.1271
 483	1	3	-0.064457	16.3069	6.72491	-24.0777
 484	1	2	0.492569	16.2599	7.14265	-22.6497
 485	1	1	-0.072087	17.3834	6.586	-22.056
 486	1	2	0.477555	18.1611	5.87687	-22.9635
 487	1	3	0.042617	17.6203	6.604	-20.6542
 488	1	3	-0.20367	16.813	5.82124	-19.8165
 489	1	3	-0.057018	17.0797	5.73382	-18.4405
 490	1	3	-0.18182	18.6635	7.35364	-20.0844
 491	1	3	-0.14326	18.9153	7.28355	-18.6983
 492	1	3	0.043342	18.1591	6.43583	-17.8545
 493	1	6	0.163244	15.9975	5.24157	-20.24
 494	1	6	0.101178	16.4569	5.0691	-17.8536
 495	1	6	0.165346	14.5179	7.56875	-24.9609
 496	1	6	0.135111	15.0104	6.61512	-27.1996
 497	1	6	0.171751	18.622	4.76188	-25.625
 498	1	5	-0.478239	19.2019	5.27882	-22.7533
 499	1	5	-0.481107	15.3738	7.7887	-22.1182
 500	1	5	-0.49957	17.8679	3.99853	-27.9916
 501	1	6	0.151248	19.3017	7.96319	-20.7196
 502	1	6	0.146138	19.75	7.8434	-18.2904
 503	1	7	0.044043	18.629	6.14722	-16.401
 504	1	7	-0.215975	17.7677	5.06917	-15.6813
 505	1	8	0.063789	16.7183	5.37985	-15.6066
 506	1	8	0.072206	18.1313	4.89915	-14.6593
 507	1	8	0.045489	17.8059	4.10898	-16.2118
 508	1	7	0.005306	20.1153	5.64406	-16.447
 509	1	7	0.164932	21.0112	6.6075	-15.6094
 510	1	8	0.005277	20.4878	5.57596	-17.4771
 511	1	8	0.017604	20.1877	4.61976	-16.0575
 512	1	3	0.008363	20.0246	7.64238	-15.1049
 513	1	7	-0.151488	22.1452	7.23918	-16.4532
 514	1	7	-0.269275	21.634	5.84223	-14.4135
 515	1	3	0.096378	18.712	7.3734	-15.4881
 516	1	8	0.063418	20.8508	5.46726	-13.7411
 517	1	8	0.061085	22.2954	6.49076	-13.8256
 518	1	8	0.065045	22.2248	4.98421	-14.7586
 519	1	3	-0.142025	20.3139	8.63407	-14.1571
 520	1	3	-0.448546	17.6385	7.99544	-14.808
 521	1	3	0.277842	17.9061	8.91276	-13.7593
 522	1	3	-0.409063	19.2491	9.26932	-13.4964
 523	1	6	0.203923	16.6192	7.68215	-15.0093
 524	1	8	0.016419	22.774	6.46117	-16.9052
 525	1	8	0.049665	22.7911	7.87006	-15.8296
 526	1	8	0.035794	21.7474	7.86599	-17.2585
 527	1	6	0.161583	21.3425	8.82429	-13.8578
 528	1	6	0.199011	19.4708	9.96753	-12.6922
 529	1	1	0.463181	4.86488	15.4514	-35.1692
 530	1	2	0.074399	6.21887	15.5098	-35.4853
 531	1	3	0.034296	6.88619	15.8398	-34.1997
 532	1	2	0.051625	4.60657	15.7432	-33.8252
 533	1	3	0.019035	5.93155	15.9474	-33.2089
 534	1	5	-0.389616	6.76632	15.2717	-36.5496
 535	1	5	-0.380104	3.53485	15.8314	-33.2469
 536	1	3	-0.045097	8.234	16.0568	-33.9225
 537	1	3	-0.056032	6.26583	16.2071	-31.875
 538	1	3	-0.174781	7.62779	16.3996	-31.5644
 539	1	3	-0.129342	8.60447	16.3579	-32.5922
 540	1	6	0.168842	8.96929	16.0205	-34.7251
 541	1	6	0.15893	5.48815	16.2764	-31.1169
 542	1	6	0.147704	7.91289	16.6399	-30.5423
 543	1	2	0.584577	10.028	16.7404	-32.3499
 544	1	3	-0.046755	10.8149	16.0757	-31.2669
 545	1	3	-0.110868	11.6724	15.0416	-31.6855
 546	1	3	-0.046132	12.7853	14.7497	-30.8991
 547	1	3	-0.135873	11.0189	16.7092	-30.0146
 548	1	3	-0.117662	12.1445	16.385	-29.2243
 549	1	3	-0.064457	13.0453	15.4325	-29.7253
 550	1	2	0.492569	14.4853	15.2261	-29.3934
 551	1	1	-0.072087	14.997	14.4897	-30.4522
 552	1	2	0.477555	14.0218	14.0697	-31.3384
 553	1	3	0.042617	16.3661	14.398	-30.7935
 554	1	3	-0.20367	16.9806	15.4442	-31.5032
 555	1	3	-0.057018	18.2309	15.2468	-32.1156
 556	1	3	-0.18182	17.0546	13.1954	-30.6109
 557	1	3	-0.14326	18.3213	13.018	-31.1852
 558	1	3	0.043342	18.8921	14.0036	-32.0289
 559	1	6	0.163244	16.4542	16.3832	-31.6532
 560	1	6	0.101178	18.6555	16.0462	-32.7157
 561	1	6	0.165346	12.3925	16.9636	-28.3358
 562	1	6	0.135111	10.3963	17.5534	-29.7279
 563	1	6	0.171751	11.6032	14.6318	-32.6922
 564	1	5	-0.478239	14.1693	13.4775	-32.3935
 565	1	5	-0.481107	15.1086	15.7857	-28.5086
 566	1	5	-0.49957	10.6318	17.3543	-33.2129
 567	1	6	0.151248	16.5808	12.3714	-30.0841
 568	1	6	0.146138	18.8036	12.0665	-31.0125
 569	1	7	0.044043	20.1295	13.7355	-32.9268
 570	1	7	-0.215975	19.7682	13.9755	-34.4174
 571	1	8	0.063789	19.5022	15.0221	-34.6082
 572	1	8	0.072206	18.9119	13.3545	-34.7116
 573	1	8	0.045489	20.6099	13.7206	-35.0738
 574	1	7	0.005306	21.353	14.6129	-32.5049
 575	1	7	0.164932	22.5956	13.6862	-32.2883
 576	1	8	0.005277	21.118	15.1479	-31.5752
 577	1	8	0.017604	21.5637	15.3879	-33.2541
 578	1	3	0.008363	21.9983	12.2963	-32.3923
 579	1	7	-0.151488	23.2274	13.9339	-30.8968
 580	1	7	-0.269275	23.6622	13.9052	-33.3887
 581	1	3	0.096378	20.6757	12.3235	-32.7902
 582	1	8	0.063418	24.0049	14.9476	-33.4029
 583	1	8	0.061085	23.2599	13.6637	-34.3808
 584	1	8	0.065045	24.5378	13.2658	-33.2172
 585	1	3	-0.142025	22.6111	11.0716	-32.1048
 586	1	3	-0.448546	19.9356	11.1408	-32.9327
 587	1	3	0.277842	20.4344	9.91019	-32.436
 588	1	3	-0.409063	21.8202	9.90328	-32.0966
 589	1	6	0.203923	18.9152	11.2547	-33.2734
 590	1	8	0.016419	24.128	13.3235	-30.7546
 591	1	8	0.049665	22.5196	13.6828	-30.0964
 592	1	8	0.035794	23.5125	14.9874	-30.7801
 593	1	6	0.161583	23.657	11.0381	-31.8063
 594	1	6	0.199011	22.3131	8.99735	-31.7656
 595	1	1	0.463181	6.6817	7.29238	-23.9931
 596	1	2	0.074399	5.51746	6.52437	-23.9391
 597	1	3	0.034296	5.15811	6.27889	-25.3593
 598	1	2	0.051625	7.15824	7.46175	-25.2947
 599	1	3	0.019035	6.11958	6.86219	-26.161
 600	1	5	-0.389616	4.81636	6.27802	-22.9716
 601	1	5	-0.380104	8.11733	8.11148	-25.6807
 602	1	3	-0.045097	4.00772	5.69641	-25.9031
 603	1	3	-0.056032	5.96775	6.94637	-27.547
 604	1	3	-0.174781	4.81481	6.37263	-28.1174
 605	1	3	-0.129342	3.83347	5.73411	-27.306
 606	1	6	0.168842	3.25968	5.24833	-25.2508
 607	1	6	0.15893	6.71171	7.45967	-28.1535
 608	1	6	0.147704	4.69992	6.4197	-29.1983
 609	1	2	0.584577	2.6227	5.06642	-27.9108
 610	1	3	-0.046755	2.17129	5.52013	-29.2692
 611	1	3	-0.110868	2.10457	6.90121	-29.5482
 612	1	3	-0.046132	1.81121	7.2918	-30.8541
 613	1	3	-0.135873	1.85998	4.57859	-30.2842
 614	1	3	-0.117662	1.55576	5.00078	-31.5977
 615	1	3	-0.064457	1.56135	6.37786	-31.8587
 616	1	2	0.492569	1.31598	7.13844	-33.1172
 617	1	1	-0.072087	1.41412	8.475	-32.7581
 618	1	2	0.477555	1.7261	8.65207	-31.4209
 619	1	3	0.042617	1.11928	9.56998	-33.599
 620	1	3	-0.20367	1.8988	9.87374	-34.7272
 621	1	3	-0.057018	1.66445	11.0658	-35.4367
 622	1	3	-0.18182	0.0737511	10.4238	-33.2239
 623	1	3	-0.14326	-0.163402	11.6034	-33.933
 624	1	3	0.043342	0.655906	11.9642	-35.0195
 625	1	6	0.163244	2.70399	9.21	-35.0324
 626	1	6	0.101178	2.2947	11.3041	-36.2895
 627	1	6	0.165346	1.33944	4.28554	-32.3896
 628	1	6	0.135111	1.89012	3.51501	-30.055
 629	1	6	0.171751	2.30407	7.6527	-28.7853
 630	1	5	-0.478239	1.88429	9.69388	-30.8075
 631	1	5	-0.481107	1.07695	6.67114	-34.2167
 632	1	5	-0.49957	2.06439	4.14784	-27.3361
 633	1	6	0.151248	-0.528748	10.1985	-32.3477
 634	1	6	0.146138	-0.964274	12.253	-33.5978
 635	1	7	0.044043	0.460007	13.3267	-35.6981
 636	1	7	-0.215975	-0.0108287	14.4217	-34.693
 637	1	8	0.063789	-1.05813	14.2976	-34.3981
 638	1	8	0.072206	0.0907372	15.4266	-35.1239
 639	1	8	0.045489	0.608327	14.4019	-33.7847
 640	1	7	0.005306	-0.483411	13.236	-36.9289
 641	1	7	0.164932	0.141793	14.0817	-38.0881
 642	1	8	0.005277	-1.49841	13.5677	-36.6733
 643	1	8	0.017604	-0.571569	12.1856	-37.2366
 644	1	3	0.008363	1.52255	14.4291	-37.5543
 645	1	7	-0.151488	-0.70756	15.3474	-38.3524
 646	1	7	-0.269275	0.253263	13.2322	-39.3753
 647	1	3	0.096378	1.7237	13.8809	-36.2994