pySIMM System Object

2576 atoms
2848 bonds
5031 angles
8069 dihedrals
819 impropers

8 atom types
10 bond types
17 angle types
9 dihedral types
4 improper types

-205.827173 205.827173 xlo xhi
-205.827173 205.827173 ylo yhi
-205.827173 205.827173 zlo zhi

Masses

   1	14.01	# n
   2	12.01	# c
   3	12.01	# ca
   4	1.008	# hn
   5	16.0	# o
   6	1.008	# ha
   7	12.01	# c3
   8	1.008	# hc

Pair Coeffs

   1	0.17	3.249998523775958	# n
   2	0.086	3.3996695084235347	# c
   3	0.086	3.3996695084235347	# ca
   4	0.0157	1.069078461768407	# hn
   5	0.21	2.959921901149463	# o
   6	0.015	2.59964245953351	# ha
   7	0.1094	3.3996695084235347	# c3
   8	0.0157	2.649532787749369	# hc

Bond Coeffs

   1	461.1	1.3984	# ca,ca
   2	427.6	1.3789	# c,n
   3	345.9	1.4906	# c,ca
   4	300.9	1.5375	# c3,c3
   5	345.8	1.086	# ca,ha
   6	384.2	1.4121	# ca,n
   7	637.7	1.2183	# c,o
   8	321.0	1.5156	# c3,ca
   9	330.6	1.0969	# c3,hc
  10	403.2	1.0129	# hn,n

Angle Coeffs

   1	68.72	122.6	# ca,c,o
   2	62.86	111.51	# c3,c3,c3
   3	63.82	123.71	# c,n,ca
   4	67.87	120.19	# ca,ca,n
   5	67.68	115.25	# ca,c,n
   6	63.0	118.11	# ca,c,ca
   7	63.56	112.24	# ca,c3,ca
   8	63.15	112.07	# c3,c3,ca
   9	46.34	109.8	# c3,c3,hc
  10	74.22	123.05	# n,c,o
  11	48.33	117.55	# c,n,hn
  12	64.28	120.33	# c,ca,ca
  13	39.4	107.58	# hc,c3,hc
  14	66.62	120.02	# ca,ca,ca
  15	63.53	120.77	# c3,ca,ca
  16	63.74	127.08	# c,n,c
  17	48.18	119.88	# ca,ca,ha

Dihedral Coeffs

   1	1	2.5	2	180	# X,c,n,X
   2	1	0.45	2	180	# X,ca,n,X
   3	3	0.18	3	0	0.25	2	180	0.2	1	180	# c3,c3,c3,c3
   4	2	2.5	2	180	2.0	1	0	# hn,n,c,o
   5	1	3.625	2	180	# X,ca,ca,X
   6	1	0.16	3	0	# hc,c3,c3,c3
   7	1	1.0	2	180	# X,c,ca,X
   8	1	0.15555555555555556	3	0	# X,c3,c3,X
   9	1	0.0	2	0	# X,c3,ca,X

Improper Coeffs

   1	10.5	-1	2	# c,X,X,o
   2	1.1	-1	2	# ca,X,X,ha
   3	1.1	-1	2	# ca,ca,ca,c3
   4	1.1	-1	2	# n,X,X,hn

Atoms

   1	1	1	0.463181	-28.2333	60.8035	-47.9461
   2	1	2	0.074399	-29.462	60.2756	-47.5541
   3	1	3	0.034296	-29.1348	58.9866	-46.8961
   4	1	2	0.051625	-27.1548	59.9964	-47.593
   5	1	3	0.019035	-27.7623	58.8232	-46.9131
   6	1	5	-0.389616	-30.581	60.7044	-47.7858
   7	1	5	-0.380104	-25.9748	60.152	-47.8597
   8	1	3	-0.045097	-29.9895	58.0033	-46.3842
   9	1	3	-0.056032	-27.1604	57.6742	-46.3914
  10	1	3	-0.174781	-28.0016	56.6701	-45.8691
  11	1	3	-0.129342	-29.4159	56.8061	-45.8913
  12	1	6	0.168842	-31.0643	58.1663	-46.3972
  13	1	6	0.15893	-26.0797	57.5553	-46.4152
  14	1	6	0.147704	-27.558	55.7548	-45.4805
  15	1	2	0.584577	-30.2688	55.6688	-45.3843
  16	1	3	-0.046755	-31.6103	55.3508	-46.0151
  17	1	3	-0.110868	-31.9522	55.756	-47.3326
  18	1	3	-0.046132	-33.1885	55.3537	-47.8631
  19	1	3	-0.135873	-32.5278	54.5502	-45.2843
  20	1	3	-0.117662	-33.7641	54.1583	-45.8335
  21	1	3	-0.064457	-34.0649	54.579	-47.1328
  22	1	2	0.492569	-35.2611	54.3099	-47.9697
  23	1	1	-0.072087	-35.0351	54.952	-49.1843
  24	1	2	0.477555	-33.7985	55.5954	-49.2032
  25	1	3	0.042617	-35.9545	54.9248	-50.2789
  26	1	3	-0.20367	-36.1864	56.0701	-51.0635
  27	1	3	-0.057018	-37.1369	56.0537	-52.1002
  28	1	3	-0.18182	-36.6748	53.7537	-50.5798
  29	1	3	-0.14326	-37.6244	53.7361	-51.613
  30	1	3	0.043342	-37.8899	54.8908	-52.3768
  31	1	6	0.163244	-35.6449	56.9904	-50.8588
  32	1	6	0.101178	-37.2931	56.9658	-52.6661
  33	1	6	0.165346	-34.4625	53.5384	-45.2744
  34	1	6	0.135111	-32.2697	54.22	-44.2795
  35	1	6	0.171751	-31.2682	56.3274	-47.9547
  36	1	5	-0.478239	-33.2929	56.2291	-50.1163
  37	1	5	-0.481107	-36.2326	53.6583	-47.624
  38	1	5	-0.49957	-29.855	54.9805	-44.4638
  39	1	6	0.151248	-36.5231	52.8524	-49.9926
  40	1	6	0.146138	-38.1811	52.8211	-51.8004
  41	1	7	0.044043	-38.9912	54.8431	-53.4579
  42	1	7	-0.215975	-39.4221	56.242	-53.9779
  43	1	8	0.063789	-39.7447	56.8852	-53.1487
  44	1	8	0.072206	-40.266	56.157	-54.6749
  45	1	8	0.045489	-38.6059	56.7456	-54.5085
  46	1	7	0.005306	-38.5618	53.9324	-54.6532
  47	1	7	0.164932	-39.7071	52.9151	-54.955
  48	1	8	0.005277	-37.6563	53.3819	-54.3767
  49	1	8	0.017604	-38.3041	54.5202	-55.543
  50	1	3	0.008363	-40.6122	53.0681	-53.7494
  51	1	7	-0.151488	-39.15	51.4757	-55.0766
  52	1	7	-0.269275	-40.4624	53.2945	-56.2514
  53	1	3	0.096378	-40.2256	54.1263	-52.9346
  54	1	8	0.063418	-40.8739	54.3092	-56.1858
  55	1	8	0.061085	-41.2972	52.606	-56.4341
  56	1	8	0.065045	-39.7938	53.2537	-57.1211
  57	1	3	-0.142025	-41.7322	52.2844	-53.4258
  58	1	3	-0.448546	-40.9417	54.4345	-51.7662
  59	1	3	0.277842	-42.0618	53.659	-51.4267
  60	1	3	-0.409063	-42.4528	52.5897	-52.2542
  61	1	6	0.203923	-40.6337	55.2562	-51.1285
  62	1	8	0.016419	-38.6401	51.1719	-54.1532
  63	1	8	0.049665	-38.4306	51.4067	-55.9025
  64	1	8	0.035794	-39.955	50.7555	-55.2699
  65	1	6	0.161583	-42.035	51.4613	-54.0694
  66	1	6	0.199011	-43.3216	51.9985	-51.9788
  67	1	1	0.463181	-34.0491	50.5536	-50.4162
  68	1	2	0.074399	-33.8308	51.8637	-50.834
  69	1	3	0.034296	-34.3544	51.9209	-52.2194
  70	1	2	0.051625	-34.6562	49.7627	-51.3859
  71	1	3	0.019035	-34.8305	50.6669	-52.5535
  72	1	5	-0.389616	-33.2702	52.7642	-50.2308
  73	1	5	-0.380104	-34.9525	48.5814	-51.3258
  74	1	3	-0.045097	-34.4063	52.9989	-53.1113
  75	1	3	-0.056032	-35.3561	50.4073	-53.8211
  76	1	3	-0.174781	-35.3915	51.4691	-54.7476
  77	1	3	-0.129342	-34.9253	52.7704	-54.4105
  78	1	6	0.168842	-34.071	53.977	-52.7743
  79	1	6	0.15893	-35.7219	49.415	-54.0765
  80	1	6	0.147704	-35.8052	51.2841	-55.7381
  81	1	2	0.584577	-35.0706	53.8833	-55.4253
  82	1	3	-0.046755	-34.6177	55.2816	-55.1005
  83	1	3	-0.110868	-33.2825	55.5707	-54.7219
  84	1	3	-0.046132	-32.9356	56.9129	-54.4965
  85	1	3	-0.135873	-35.5469	56.3392	-55.2642
  86	1	3	-0.117662	-35.1851	57.675	-55.0136
  87	1	3	-0.064457	-33.8655	57.9273	-54.6271
  88	1	2	0.492569	-33.1949	59.2183	-54.341
  89	1	1	-0.072087	-31.872	58.9027	-54.069
  90	1	2	0.477555	-31.6279	57.536	-54.1394
  91	1	3	0.042617	-30.905	59.8827	-53.7228
  92	1	3	-0.20367	-29.7243	60.0456	-54.4683
  93	1	3	-0.057018	-28.7911	61.0396	-54.1159
  94	1	3	-0.18182	-31.1536	60.741	-52.6415
  95	1	3	-0.14326	-30.2249	61.73	-52.2908
  96	1	3	0.043342	-29.0122	61.8773	-52.9993
  97	1	6	0.163244	-29.5261	59.4021	-55.3208
  98	1	6	0.101178	-27.8842	61.1315	-54.7056
  99	1	6	0.165346	-35.8958	58.4904	-55.1388
 100	1	6	0.135111	-36.5571	56.1173	-55.5982
 101	1	6	0.171751	-32.5315	54.7877	-54.6344
 102	1	5	-0.478239	-30.5669	56.9524	-53.9881
 103	1	5	-0.481107	-33.7202	60.3179	-54.3584
 104	1	5	-0.49957	-35.6807	53.6872	-56.464
 105	1	6	0.151248	-32.0746	60.6478	-52.0702
 106	1	6	0.146138	-30.4498	62.3732	-51.4434
 107	1	7	0.044043	-27.9724	62.9101	-52.5082
 108	1	7	-0.215975	-26.5288	62.6386	-53.0131
 109	1	8	0.063789	-26.2058	61.6202	-52.7653
 110	1	8	0.072206	-25.814	63.3293	-52.5489
 111	1	8	0.045489	-26.4514	62.7685	-54.0998
 112	1	7	0.005306	-28.4103	64.3682	-52.8605
 113	1	7	0.164932	-28.3087	65.2455	-51.5692
 114	1	8	0.005277	-29.4497	64.3563	-53.215
 115	1	8	0.017604	-27.8151	64.7863	-53.6831
 116	1	3	0.008363	-28.1901	64.2044	-50.472
 117	1	7	-0.151488	-29.5716	66.1245	-51.3985
 118	1	7	-0.269275	-27.049	66.1439	-51.5979
 119	1	3	0.096378	-27.964	62.9374	-50.9895
 120	1	8	0.063418	-26.1374	65.5443	-51.7097
 121	1	8	0.061085	-26.9583	66.7183	-50.6674
 122	1	8	0.065045	-27.0924	66.8552	-52.4323
 123	1	3	-0.142025	-28.3508	64.3919	-49.0886
 124	1	3	-0.448546	-27.9074	61.8152	-50.1515
 125	1	3	0.277842	-28.1213	61.9636	-48.7666
 126	1	3	-0.409063	-28.3292	63.2623	-48.2432
 127	1	6	0.203923	-27.7681	60.8335	-50.5847
 128	1	8	0.016419	-30.4742	65.5044	-51.3225
 129	1	8	0.049665	-29.6948	66.8001	-52.2545
 130	1	8	0.035794	-29.5075	66.7384	-50.4916
 131	1	6	0.161583	-28.5371	65.3858	-48.6866
 132	1	6	0.199011	-28.5099	63.3898	-47.1784
 133	1	1	0.463181	-26.0058	56.4103	-60.5636
 134	1	2	0.074399	-25.2997	57.2104	-59.6619
 135	1	3	0.034296	-26.0645	57.1371	-58.3918
 136	1	2	0.051625	-27.1446	55.8381	-59.9911
 137	1	3	0.019035	-27.1596	56.3196	-58.5867
 138	1	5	-0.389616	-24.2746	57.8474	-59.8443
 139	1	5	-0.380104	-27.9596	55.0859	-60.5001
 140	1	3	-0.045097	-25.8159	57.7492	-57.1584
 141	1	3	-0.056032	-28.0742	56.068	-57.5588
 142	1	3	-0.174781	-27.8433	56.672	-56.3049
 143	1	3	-0.129342	-26.7085	57.502	-56.0883
 144	1	6	0.168842	-24.9508	58.3996	-57.0363
 145	1	6	0.15893	-28.939	55.4318	-57.7349
 146	1	6	0.147704	-28.5655	56.5072	-55.5081
 147	1	2	0.584577	-26.4591	58.1897	-54.7681
 148	1	3	-0.046755	-26.9803	57.5916	-53.4854
 149	1	3	-0.110868	-27.0827	56.1894	-53.3042
 150	1	3	-0.046132	-27.5891	55.7135	-52.0869
 151	1	3	-0.135873	-27.3422	58.459	-52.4232
 152	1	3	-0.117662	-27.8643	57.9603	-51.216
 153	1	3	-0.064457	-27.9795	56.576	-51.0836
 154	1	2	0.492569	-28.4855	55.7745	-49.9472
 155	1	1	-0.072087	-28.3508	54.4478	-50.3309
 156	1	2	0.477555	-27.822	54.323	-51.6104
 157	1	3	0.042617	-28.7571	53.3565	-49.5168
 158	1	3	-0.20367	-27.9224	52.2449	-49.3082
 159	1	3	-0.057018	-28.3665	51.1547	-48.5372
 160	1	3	-0.18182	-30.0197	53.3801	-48.9086
 161	1	3	-0.14326	-30.447	52.3157	-48.1056
 162	1	3	0.043342	-29.6497	51.1608	-47.9455
 163	1	6	0.163244	-26.9421	52.2055	-49.7764
 164	1	6	0.101178	-27.7122	50.2954	-48.4358
 165	1	6	0.165346	-28.1714	58.6172	-50.4079
 166	1	6	0.135111	-27.2309	59.531	-52.5478
 167	1	6	0.171751	-26.7773	55.4864	-54.0763
 168	1	5	-0.478239	-27.5941	53.301	-52.235
 169	1	5	-0.481107	-28.9428	56.2212	-48.9095
 170	1	5	-0.49957	-25.8586	59.2525	-54.7502
 171	1	6	0.151248	-30.6899	54.2144	-49.0862
 172	1	6	0.146138	-31.441	52.3658	-47.6674
 173	1	7	0.044043	-30.2508	49.9208	-47.2448
 174	1	7	-0.215975	-29.5148	48.5961	-47.5843
 175	1	8	0.063789	-28.5006	48.5825	-47.1659
 176	1	8	0.072206	-29.4447	48.455	-48.6706
 177	1	8	0.045489	-30.05	47.7301	-47.1772
 178	1	7	0.005306	-30.3608	50.1134	-45.6985
 179	1	7	0.164932	-31.8005	49.6941	-45.2494
 180	1	8	0.005277	-30.1974	51.1728	-45.459
 181	1	8	0.017604	-29.5854	49.5547	-45.1583
 182	1	3	0.008363	-32.5646	49.7069	-46.561
 183	1	7	-0.151488	-32.3755	50.7082	-44.2312
 184	1	7	-0.269275	-31.8127	48.2771	-44.628
 185	1	3	0.096378	-31.7074	49.7867	-47.6493
 186	1	8	0.063418	-32.8337	47.9803	-44.3569
 187	1	8	0.061085	-31.1974	48.2413	-43.7201
 188	1	8	0.065045	-31.4257	47.5296	-45.3303
 189	1	3	-0.142025	-33.9571	49.7596	-46.7449
 190	1	3	-0.448546	-32.203	49.9547	-48.9494
 191	1	3	0.277842	-33.5884	50.0928	-49.1523
 192	1	3	-0.409063	-34.4619	49.9691	-48.046
 193	1	6	0.203923	-31.51	50.1111	-49.7722
 194	1	8	0.016419	-33.3872	50.4252	-43.9148
 195	1	8	0.049665	-32.427	51.7113	-44.6698
 196	1	8	0.035794	-31.7441	50.7618	-43.3351
 197	1	6	0.161583	-34.6279	49.7102	-45.8898
 198	1	6	0.199011	-35.5338	50.0906	-48.1885
 199	1	1	0.463181	-11.912	44.9122	-60.7616
 200	1	2	0.074399	-13.0481	44.3296	-60.1977
 201	1	3	0.034296	-14.172	44.7407	-61.0754
 202	1	2	0.051625	-12.1983	45.6471	-61.9128
 203	1	3	0.019035	-13.6676	45.5289	-62.0915
 204	1	5	-0.389616	-13.1313	43.6267	-59.2033
 205	1	5	-0.380104	-11.4328	46.2705	-62.6301
 206	1	3	-0.045097	-15.5362	44.4422	-60.9856
 207	1	3	-0.056032	-14.4991	46.067	-63.0788
 208	1	3	-0.174781	-15.8801	45.7879	-63.0041
 209	1	3	-0.129342	-16.4106	44.9894	-61.9534
 210	1	6	0.168842	-15.9062	43.8082	-60.1813
 211	1	6	0.15893	-14.0814	46.6753	-63.8784
 212	1	6	0.147704	-16.5346	46.1788	-63.7805
 213	1	2	0.584577	-17.8812	44.6638	-61.8699
 214	1	3	-0.046755	-18.9015	45.6812	-62.3196
 215	1	3	-0.110868	-18.6342	47.0701	-62.2391
 216	1	3	-0.046132	-19.6289	47.9651	-62.6528
 217	1	3	-0.135873	-20.171	45.2429	-62.7803
 218	1	3	-0.117662	-21.1584	46.1629	-63.1907
 219	1	3	-0.064457	-20.852	47.5274	-63.1177
 220	1	2	0.492569	-21.6692	48.7212	-63.4642
 221	1	1	-0.072087	-20.869	49.8233	-63.1815
 222	1	2	0.477555	-19.6252	49.4504	-62.6846
 223	1	3	0.042617	-21.2698	51.1745	-63.3875
 224	1	3	-0.20367	-20.4066	52.0871	-64.0186
 225	1	3	-0.057018	-20.8023	53.4187	-64.2243
 226	1	3	-0.18182	-22.5363	51.6197	-62.9694
 227	1	3	-0.14326	-22.9333	52.9519	-63.177
 228	1	3	0.043342	-22.069	53.876	-63.806
 229	1	6	0.163244	-19.4215	51.7691	-64.3496
 230	1	6	0.101178	-20.1163	54.0981	-64.7211
 231	1	6	0.165346	-22.1313	45.8295	-63.548
 232	1	6	0.135111	-20.3888	44.1768	-62.8195
 233	1	6	0.171751	-17.6927	47.4532	-61.8497
 234	1	5	-0.478239	-18.695	50.1658	-62.3539
 235	1	5	-0.481107	-22.8014	48.7056	-63.9154
 236	1	5	-0.49957	-18.2389	43.5892	-61.4165
 237	1	6	0.151248	-23.226	50.9291	-62.4895
 238	1	6	0.146138	-23.9266	53.2472	-62.8525
 239	1	7	0.044043	-22.4713	55.3422	-64.0676
 240	1	7	-0.215975	-21.4291	56.3192	-63.4584
 241	1	8	0.063789	-20.4581	56.2419	-63.962
 242	1	8	0.072206	-21.2734	56.1109	-62.3924
 243	1	8	0.045489	-21.7682	57.3595	-63.5496
 244	1	7	0.005306	-22.6424	55.5955	-65.6003
 245	1	7	0.164932	-24.1609	55.4899	-65.9402
 246	1	8	0.005277	-22.0369	54.9138	-66.2117
 247	1	8	0.017604	-22.2954	56.611	-65.8343
 248	1	3	0.008363	-24.7964	55.7482	-64.5882
 249	1	7	-0.151488	-24.524	54.0732	-66.4462
 250	1	7	-0.269275	-24.5718	56.5436	-66.9972
 251	1	3	0.096378	-23.867	55.6748	-63.5588
 252	1	8	0.063418	-24.01	56.401	-67.929
 253	1	8	0.061085	-24.3765	57.5608	-66.6337
 254	1	8	0.065045	-25.6406	56.4704	-67.2333
 255	1	3	-0.142025	-26.1438	56.0282	-64.3168
 256	1	3	-0.448546	-24.2498	55.8907	-62.2247
 257	1	3	0.277842	-25.5973	56.1872	-61.918
 258	1	3	-0.409063	-26.5331	56.2479	-62.9806
 259	1	6	0.203923	-23.504	55.8395	-61.4357
 260	1	8	0.016419	-24.2424	53.3044	-65.7166
 261	1	8	0.049665	-24.008	53.8492	-67.3884
 262	1	8	0.035794	-25.6036	53.9865	-66.6228
 263	1	6	0.161583	-26.8712	56.0718	-65.1245
 264	1	6	0.199011	-27.579	56.4565	-62.7627
 265	1	1	0.463181	-20.1597	36.8989	-46.3695
 266	1	2	0.074399	-18.7907	36.6287	-46.3612
 267	1	3	0.034296	-18.251	37.3272	-47.5555
 268	1	2	0.051625	-20.5479	37.6929	-47.4483
 269	1	3	0.019035	-19.297	37.9562	-48.2032
 270	1	5	-0.389616	-18.1463	35.9889	-45.5451
 271	1	5	-0.380104	-21.6614	38.105	-47.7296
 272	1	3	-0.045097	-16.9365	37.4141	-48.0291
 273	1	3	-0.056032	-19.0944	38.692	-49.3749
 274	1	3	-0.174781	-17.7778	38.7956	-49.8704
 275	1	3	-0.129342	-16.6886	38.1821	-49.1916
 276	1	6	0.168842	-16.1293	36.9095	-47.4998
 277	1	6	0.15893	-19.9343	39.163	-49.8815
 278	1	6	0.147704	-17.6083	39.3472	-50.7935
 279	1	2	0.584577	-15.2728	38.2926	-49.7026
 280	1	3	-0.046755	-14.8187	39.5529	-50.4015
 281	1	3	-0.110868	-13.7473	39.4866	-51.3252
 282	1	3	-0.046132	-13.3246	40.67	-51.9479
 283	1	3	-0.135873	-15.4041	40.8145	-50.1053
 284	1	3	-0.117662	-14.9625	41.992	-50.7418
 285	1	3	-0.064457	-13.9178	41.8842	-51.6668
 286	1	2	0.492569	-13.231	42.9335	-52.4644
 287	1	1	-0.072087	-12.2439	42.2746	-53.1876
 288	1	2	0.477555	-12.2385	40.9065	-52.9382
 289	1	3	0.042617	-11.3431	42.932	-54.0732
 290	1	3	-0.20367	-10.678	44.1037	-53.6721
 291	1	3	-0.057018	-9.81591	44.7758	-54.5541
 292	1	3	-0.18182	-11.11	42.4303	-55.3652
 293	1	3	-0.14326	-10.2451	43.1008	-56.2468
 294	1	3	0.043342	-9.60282	44.2997	-55.8657
 295	1	6	0.163244	-10.8393	44.5083	-52.6762
 296	1	6	0.101178	-9.32381	45.6765	-54.204
 297	1	6	0.165346	-15.4044	42.9607	-50.5144
 298	1	6	0.135111	-16.1915	40.892	-49.3596
 299	1	6	0.171751	-13.2546	38.5409	-51.5497
 300	1	5	-0.478239	-11.5013	40.0573	-53.4084
 301	1	5	-0.481107	-13.4925	44.1245	-52.452
 302	1	5	-0.49957	-14.4911	37.3732	-49.5242
 303	1	6	0.151248	-11.6035	41.5186	-55.6938
 304	1	6	0.146138	-10.0892	42.684	-57.2383
 305	1	7	0.044043	-8.67875	45.0457	-56.8528
 306	1	7	-0.215975	-8.63281	46.5783	-56.5955
 307	1	8	0.063789	-8.11165	46.8199	-55.6613
 308	1	8	0.072206	-9.64739	46.9938	-56.5432
 309	1	8	0.045489	-8.10662	47.0995	-57.4046
 310	1	7	0.005306	-7.23983	44.4384	-56.8333
 311	1	7	0.164932	-6.74625	44.2811	-58.3079
 312	1	8	0.005277	-7.27766	43.4495	-56.3566
 313	1	8	0.017604	-6.54733	45.041	-56.231
 314	1	3	0.008363	-8.03316	44.4215	-59.0982
 315	1	7	-0.151488	-6.08365	42.8994	-58.5277
 316	1	7	-0.269275	-5.74789	45.4008	-58.6898
 317	1	3	0.096378	-9.09108	44.8343	-58.2998
 318	1	8	0.063418	-6.19396	46.3936	-58.5574
 319	1	8	0.061085	-5.44231	45.3106	-59.7398
 320	1	8	0.065045	-4.84436	45.349	-58.0692
 321	1	3	-0.142025	-8.22141	44.1904	-60.4698
 322	1	3	-0.448546	-10.3734	45.0205	-58.8385
 323	1	3	0.277842	-10.601	44.7713	-60.2095
 324	1	3	-0.409063	-9.50929	44.3647	-61.0154
 325	1	6	0.203923	-11.1903	45.3261	-58.1894
 326	1	8	0.016419	-5.21102	42.7761	-57.8736
 327	1	8	0.049665	-5.74636	42.7838	-59.5652
 328	1	8	0.035794	-6.78911	42.087	-58.3108
 329	1	6	0.161583	-7.38683	43.8823	-61.096
 330	1	6	0.199011	-9.66408	44.1916	-62.0787
 331	1	1	0.463181	-6.68787	29.4158	-36.501
 332	1	2	0.074399	-7.80357	29.47	-35.6636
 333	1	3	0.034296	-8.9288	29.8784	-36.5419
 334	1	2	0.051625	-6.98778	29.7589	-37.8202
 335	1	3	0.019035	-8.44381	30.044	-37.8246
 336	1	5	-0.389616	-7.87721	29.2127	-34.4728
 337	1	5	-0.380104	-6.24764	29.783	-38.7903
 338	1	3	-0.045097	-10.2805	30.0766	-36.2374
 339	1	3	-0.056032	-9.28122	30.4141	-38.8812
 340	1	3	-0.174781	-10.649	30.6113	-38.6009
 341	1	3	-0.129342	-11.1609	30.434	-37.2857
 342	1	6	0.168842	-10.6361	29.9503	-35.2157
 343	1	6	0.15893	-8.87858	30.5485	-39.8831
 344	1	6	0.147704	-11.306	30.9256	-39.4094
 345	1	2	0.584577	-12.615	30.6756	-36.9675
 346	1	3	-0.046755	-13.654	30.4706	-38.0387
 347	1	3	-0.110868	-14.7712	31.3356	-38.09
 348	1	3	-0.046132	-15.7179	31.1396	-39.1035
 349	1	3	-0.135873	-13.5432	29.4096	-38.9773
 350	1	3	-0.117662	-14.5165	29.2221	-39.9804
 351	1	3	-0.064457	-15.5947	30.1147	-40.0208
 352	1	2	0.492569	-16.7433	30.1954	-40.9617
 353	1	1	-0.072087	-17.4856	31.2958	-40.5537
 354	1	2	0.477555	-16.9434	31.9132	-39.4343
 355	1	3	0.042617	-18.6342	31.7699	-41.241
 356	1	3	-0.20367	-19.709	30.9105	-41.5222
 357	1	3	-0.057018	-20.8244	31.3799	-42.2358
 358	1	3	-0.18182	-18.6961	33.1049	-41.6724
 359	1	3	-0.14326	-19.8073	33.5722	-42.3917
 360	1	3	0.043342	-20.8863	32.712	-42.6971
 361	1	6	0.163244	-19.6751	29.8724	-41.2019
 362	1	6	0.101178	-21.6418	30.6949	-42.4388
 363	1	6	0.165346	-14.4374	28.4141	-40.7061
 364	1	6	0.135111	-12.7036	28.7197	-38.9227
 365	1	6	0.171751	-14.8891	32.148	-37.3735
 366	1	5	-0.478239	-17.349	32.9012	-38.847
 367	1	5	-0.481107	-16.9557	29.4482	-41.9012
 368	1	5	-0.49957	-12.9424	31.066	-35.8591
 369	1	6	0.151248	-17.8757	33.7856	-41.4575
 370	1	6	0.146138	-19.8077	34.6106	-42.7099
 371	1	7	0.044043	-22.1086	33.1827	-43.5118
 372	1	7	-0.215975	-22.3814	32.2273	-44.7059
 373	1	8	0.063789	-22.7134	31.2386	-44.3675
 374	1	8	0.072206	-21.4762	32.091	-45.3111
 375	1	8	0.045489	-23.1644	32.6329	-45.3598
 376	1	7	0.005306	-23.3715	33.3065	-42.5999
 377	1	7	0.164932	-23.5582	34.8108	-42.2298
 378	1	8	0.005277	-23.3059	32.6694	-41.7081
 379	1	8	0.017604	-24.2527	32.9648	-43.1593
 380	1	3	0.008363	-22.7584	35.5032	-43.3159
 381	1	7	-0.151488	-22.9532	35.1188	-40.8389
 382	1	7	-0.269275	-25.0524	35.2145	-42.2517
 383	1	3	0.096378	-21.961	34.6092	-44.0179
 384	1	8	0.063418	-25.1792	36.2718	-41.9879
 385	1	8	0.061085	-25.6287	34.6166	-41.5343
 386	1	8	0.065045	-25.4852	35.0622	-43.2488
 387	1	3	-0.142025	-22.7396	36.8725	-43.6227
 388	1	3	-0.448546	-21.1081	35.0521	-45.0415
 389	1	3	0.277842	-21.0583	36.4252	-45.3654
 390	1	3	-0.409063	-21.8889	37.3235	-44.6519
 391	1	6	0.203923	-20.4635	34.3417	-45.5527
 392	1	8	0.016419	-23.024	36.1896	-40.6095
 393	1	8	0.049665	-21.894	34.8364	-40.7952
 394	1	8	0.035794	-23.4818	34.5682	-40.0505
 395	1	6	0.161583	-23.3652	37.5694	-43.0689
 396	1	6	0.199011	-21.8704	38.3827	-44.9005
 397	1	1	0.463181	-5.84178	11.4851	-38.9797
 398	1	2	0.074399	-5.89035	12.8211	-38.5759
 399	1	3	0.034296	-5.95893	13.6044	-39.8298
 400	1	2	0.051625	-5.90155	11.3452	-40.3698
 401	1	3	0.019035	-5.97394	12.7331	-40.8997
 402	1	5	-0.389616	-5.87655	13.2861	-37.447
 403	1	5	-0.380104	-5.85934	10.3238	-41.0356
 404	1	3	-0.045097	-5.97428	14.9893	-40.0047
 405	1	3	-0.056032	-6.0326	13.2037	-42.2176
 406	1	3	-0.174781	-6.05107	14.6019	-42.4208
 407	1	3	-0.129342	-5.99365	15.5012	-41.3234
 408	1	6	0.168842	-5.96278	15.6389	-39.1317
 409	1	6	0.15893	-6.05228	12.5069	-43.0529
 410	1	6	0.147704	-6.08931	14.9953	-43.436
 411	1	2	0.584577	-5.95882	16.9915	-41.5487
 412	1	3	-0.046755	-5.18097	17.8346	-40.5707
 413	1	3	-0.110868	-5.66436	19.11	-40.1944
 414	1	3	-0.046132	-4.9424	19.8363	-39.2355
 415	1	3	-0.135873	-3.96561	17.3513	-40.0145
 416	1	3	-0.117662	-3.25229	18.1023	-39.0605
 417	1	3	-0.064457	-3.77681	19.3428	-38.6833
 418	1	2	0.492569	-3.27614	20.3269	-37.6908
 419	1	1	-0.072087	-4.19503	21.3688	-37.6954
 420	1	2	0.477555	-5.22414	21.156	-38.6072
 421	1	3	0.042617	-4.08902	22.5146	-36.8579
 422	1	3	-0.20367	-3.78002	22.378	-35.4929
 423	1	3	-0.057018	-3.63868	23.5115	-34.6759
 424	1	3	-0.18182	-4.26199	23.8041	-37.3878
 425	1	3	-0.14326	-4.12587	24.9375	-36.5699
 426	1	3	0.043342	-3.81393	24.8102	-35.1966
 427	1	6	0.163244	-3.62772	21.3915	-35.0625
 428	1	6	0.101178	-3.37634	23.3737	-33.6316
 429	1	6	0.165346	-2.3268	17.7342	-38.6204
 430	1	6	0.135111	-3.56911	16.3864	-40.3236
 431	1	6	0.171751	-6.58686	19.51	-40.614
 432	1	5	-0.478239	-6.1852	21.8687	-38.8405
 433	1	5	-0.481107	-2.27449	20.2028	-37.0067
 434	1	5	-0.49957	-6.56003	17.5007	-42.4792
 435	1	6	0.151248	-4.49873	23.9329	-38.4414
 436	1	6	0.146138	-4.25288	25.9134	-37.0286
 437	1	7	0.044043	-3.63157	26.0349	-34.2754
 438	1	7	-0.215975	-4.47347	25.897	-32.9773
 439	1	8	0.063789	-4.10428	25.0869	-32.3372
 440	1	8	0.072206	-5.52519	25.6909	-33.2129
 441	1	8	0.045489	-4.43836	26.8238	-32.3897
 442	1	7	0.005306	-2.12087	26.2498	-33.9394
 443	1	7	0.164932	-1.5647	27.3565	-34.889
 444	1	8	0.005277	-1.54207	25.3193	-34.0092
 445	1	8	0.017604	-2.03038	26.5925	-32.8999
 446	1	3	0.008363	-2.83495	28.0566	-35.3323
 447	1	7	-0.151488	-0.839288	26.7332	-36.1059
 448	1	7	-0.269275	-0.601542	28.308	-34.1388
 449	1	3	0.096378	-3.96953	27.3377	-34.9809
 450	1	8	0.063418	-1.11179	28.8028	-33.3024
 451	1	8	0.061085	-0.217559	29.0884	-34.8073
 452	1	8	0.065045	0.257092	27.7559	-33.7359
 453	1	3	-0.142025	-2.94392	29.2534	-36.0566
 454	1	3	-0.448546	-5.2501	27.787	-35.3388
 455	1	3	0.277842	-5.39343	28.9839	-36.0736
 456	1	3	-0.409063	-4.22688	29.7083	-36.423
 457	1	6	0.203923	-6.12313	27.1997	-35.066
 458	1	8	0.016419	-1.50057	26.0564	-36.6602
 459	1	8	0.049665	0.0394613	26.1589	-35.7864
 460	1	8	0.035794	-0.5001	27.5122	-36.8002
 461	1	6	0.161583	-2.0517	29.8032	-36.3485
 462	1	6	0.199011	-4.31819	30.6186	-37.0125
 463	1	1	0.463181	-8.6158	15.7252	-20.5898
 464	1	2	0.074399	-8.14286	15.0705	-21.7311
 465	1	3	0.034296	-8.98376	15.5659	-22.8462
 466	1	2	0.051625	-9.6682	16.5986	-20.8746
 467	1	3	0.019035	-9.8923	16.4736	-22.3396
 468	1	5	-0.389616	-7.22319	14.2748	-21.836
 469	1	5	-0.380104	-10.2937	17.3135	-20.1085
 470	1	3	-0.045097	-8.95934	15.2181	-24.2018
 471	1	3	-0.056032	-10.8401	17.0869	-23.1656
 472	1	3	-0.174781	-10.8351	16.753	-24.5369
 473	1	3	-0.129342	-9.89309	15.8325	-25.0711
 474	1	6	0.168842	-8.25027	14.4695	-24.5489
 475	1	6	0.15893	-11.5636	17.7867	-22.7528
 476	1	6	0.147704	-11.5763	17.2049	-25.1952
 477	1	2	0.584577	-9.95852	15.464	-26.5351
 478	1	3	-0.046755	-8.72387	14.9785	-27.2567
 479	1	3	-0.110868	-8.87113	14.0507	-28.3149
 480	1	3	-0.046132	-7.72484	13.6282	-29.0008
 481	1	3	-0.135873	-7.42951	15.476	-26.9423
 482	1	3	-0.117662	-6.28921	15.0399	-27.6508
 483	1	3	-0.064457	-6.47128	14.1066	-28.6795
 484	1	2	0.492569	-5.48736	13.4844	-29.6075
 485	1	1	-0.072087	-6.22598	12.6549	-30.4444
 486	1	2	0.477555	-7.58221	12.6817	-30.138
 487	1	3	0.042617	-5.66665	11.8776	-31.5001
 488	1	3	-0.20367	-4.50882	11.1064	-31.2951
 489	1	3	-0.057018	-3.97264	10.3317	-32.3382
 490	1	3	-0.18182	-6.27008	11.864	-32.7698
 491	1	3	-0.14326	-5.73554	11.0887	-33.812
 492	1	3	0.043342	-4.57721	10.3043	-33.6124
 493	1	6	0.163244	-4.01741	11.1065	-30.3256
 494	1	6	0.101178	-3.07993	9.74258	-32.15
 495	1	6	0.165346	-5.29629	15.4239	-27.4217
 496	1	6	0.135111	-7.30632	16.2259	-26.1642
 497	1	6	0.171751	-9.85241	13.6714	-28.5989
 498	1	5	-0.478239	-8.48882	12.0601	-30.6644
 499	1	5	-0.481107	-4.28532	13.6877	-29.6159
 500	1	5	-0.49957	-11.0224	15.5297	-27.1287
 501	1	6	0.151248	-7.16755	12.4504	-32.9527
 502	1	6	0.146138	-6.24448	11.1058	-34.7707
 503	1	7	0.044043	-3.96656	9.42851	-34.7276
 504	1	7	-0.215975	-2.49849	9.84834	-35.0069
 505	1	8	0.063789	-2.43337	10.9237	-35.2155
 506	1	8	0.072206	-2.09539	9.31203	-35.8758
 507	1	8	0.045489	-1.84909	9.63252	-34.1497
 508	1	7	0.005306	-4.05385	7.91271	-34.3557
 509	1	7	0.164932	-5.32886	7.32396	-35.0347
 510	1	8	0.005277	-4.04788	7.7394	-33.272
 511	1	8	0.017604	-3.16996	7.39814	-34.7563
 512	1	3	0.008363	-5.55	8.30445	-36.1696
 513	1	7	-0.151488	-6.5341	7.33999	-34.064
 514	1	7	-0.269275	-5.08204	5.88188	-35.5399
 515	1	3	0.096378	-4.786	9.45259	-36.0102
 516	1	8	0.063418	-5.98075	5.4715	-36.0168
 517	1	8	0.061085	-4.80895	5.21934	-34.7088
 518	1	8	0.065045	-4.26915	5.85753	-36.277
 519	1	3	-0.142025	-6.41056	8.16448	-37.2692
 520	1	3	-0.448546	-4.84659	10.4932	-36.9496
 521	1	3	0.277842	-5.71891	10.3951	-38.0579
 522	1	3	-0.409063	-6.49159	9.21625	-38.2045
 523	1	6	0.203923	-4.2553	11.3906	-36.7883
 524	1	8	0.016419	-6.35051	6.6888	-33.2
 525	1	8	0.049665	-7.44421	6.98849	-34.5659
 526	1	8	0.035794	-6.73012	8.3516	-33.688
 527	1	6	0.161583	-7.0103	7.26453	-37.3882
 528	1	6	0.199011	-7.16138	9.11487	-39.0567
 529	1	1	0.463181	-16.748	12.1192	-6.89553
 530	1	2	0.074399	-15.6472	12.6394	-6.21592
 531	1	3	0.034296	-15.3971	13.9615	-6.84224
 532	1	2	0.051625	-17.2085	12.9635	-7.90595
 533	1	3	0.019035	-16.3168	14.149	-7.85596
 534	1	5	-0.389616	-15.0155	12.1462	-5.29567
 535	1	5	-0.380104	-18.1481	12.7987	-8.66652
 536	1	3	-0.045097	-14.4506	14.9398	-6.52169
 537	1	3	-0.056032	-16.3348	15.3202	-8.6208
 538	1	3	-0.174781	-15.3765	16.314	-8.3295
 539	1	3	-0.129342	-14.4281	16.1288	-7.28703
 540	1	6	0.168842	-13.7564	14.7811	-5.69727
 541	1	6	0.15893	-17.079	15.4554	-9.4032
 542	1	6	0.147704	-15.3931	17.2436	-8.89618
 543	1	2	0.584577	-13.4258	17.1949	-6.93374
 544	1	3	-0.046755	-12.739	17.9702	-8.02998
 545	1	3	-0.110868	-12.5928	17.4248	-9.32894
 546	1	3	-0.046132	-11.8204	18.1258	-10.2627
 547	1	3	-0.135873	-12.1109	19.2047	-7.72029
 548	1	3	-0.117662	-11.3478	19.8983	-8.68105
 549	1	3	-0.064457	-11.2181	19.3248	-9.9514
 550	1	2	0.492569	-10.3605	19.7233	-11.0967
 551	1	1	-0.072087	-10.4448	18.6807	-12.0205
 552	1	2	0.477555	-11.3522	17.7067	-11.6072
 553	1	3	0.042617	-9.57225	18.5229	-13.1448
 554	1	3	-0.20367	-9.98725	17.8591	-14.3176
 555	1	3	-0.057018	-9.06732	17.5504	-15.3382
 556	1	3	-0.18182	-8.22943	18.9333	-13.0583
 557	1	3	-0.14326	-7.31684	18.6397	-14.0788
 558	1	3	0.043342	-7.70583	17.9017	-15.2122
 559	1	6	0.163244	-11.0155	17.5237	-14.4244
 560	1	6	0.101178	-9.41737	16.9918	-16.2013
 561	1	6	0.165346	-10.8275	20.8211	-8.42987
 562	1	6	0.135111	-12.183	19.6073	-6.71094
 563	1	6	0.171751	-12.9862	16.4449	-9.59131
 564	1	5	-0.478239	-11.6255	16.6438	-12.1358
 565	1	5	-0.481107	-9.63732	20.7044	-11.116
 566	1	5	-0.49957	-13.0869	17.3398	-5.77144
 567	1	6	0.151248	-7.85466	19.4362	-12.1728
 568	1	6	0.146138	-6.28001	18.9368	-13.9498
 569	1	7	0.044043	-6.62413	17.4453	-16.2106
 570	1	7	-0.215975	-5.995	18.6721	-16.921
 571	1	8	0.063789	-5.46584	19.3159	-16.2074
 572	1	8	0.072206	-6.76908	19.2781	-17.4082
 573	1	8	0.045489	-5.27639	18.3577	-17.6887
 574	1	7	0.005306	-5.53441	16.6053	-15.4634
 575	1	7	0.164932	-5.96387	15.11	-15.5292
 576	1	8	0.005277	-5.34911	16.9289	-14.4323
 577	1	8	0.017604	-4.58069	16.721	-15.996
 578	1	3	0.008363	-6.77695	15.11	-16.8086
 579	1	7	-0.151488	-6.83776	14.7058	-14.3159
 580	1	7	-0.269275	-4.72533	14.1839	-15.6064
 581	1	3	0.096378	-7.116	16.3994	-17.208
 582	1	8	0.063418	-5.02338	13.1294	-15.6552
 583	1	8	0.061085	-4.08867	14.313	-14.7219
 584	1	8	0.065045	-4.12231	14.4057	-16.4961
 585	1	3	-0.142025	-7.11379	14.0013	-17.5964
 586	1	3	-0.448546	-7.75103	16.6238	-18.4437
 587	1	3	0.277842	-8.06036	15.5273	-19.2837
 588	1	3	-0.409063	-7.7574	14.2203	-18.8284
 589	1	6	0.203923	-7.98239	17.6385	-18.7556
 590	1	8	0.016419	-7.15537	13.6585	-14.396
 591	1	8	0.049665	-7.74334	15.3188	-14.2473
 592	1	8	0.035794	-6.28074	14.82	-13.3772
 593	1	6	0.161583	-6.84659	12.9963	-17.277
 594	1	6	0.199011	-7.98163	13.3637	-19.4609
 595	1	1	0.463181	-23.35	10.7737	10.2925
 596	1	2	0.074399	-23.4014	10.4647	8.9313
 597	1	3	0.034296	-23.7686	11.7313	8.2579
 598	1	2	0.051625	-23.6861	12.1061	10.5507
 599	1	3	0.019035	-23.9404	12.7098	9.21585
 600	1	5	-0.389616	-23.1714	9.40374	8.37295
 601	1	5	-0.380104	-23.7201	12.6908	11.6212
 602	1	3	-0.045097	-23.8908	12.0037	6.89315
 603	1	3	-0.056032	-24.2662	14.024	8.85995
 604	1	3	-0.174781	-24.3852	14.3263	7.48542
 605	1	3	-0.129342	-24.1697	13.3324	6.49393
 606	1	6	0.168842	-23.7505	11.2005	6.17254
 607	1	6	0.15893	-24.4029	14.7862	9.62423
 608	1	6	0.147704	-24.6241	15.3448	7.18132
 609	1	2	0.584577	-24.2432	13.6904	5.02944
 610	1	3	-0.046755	-23.3299	12.9818	4.05594
 611	1	3	-0.110868	-23.7276	12.8361	2.70502
 612	1	3	-0.046132	-22.8701	12.159	1.82532
 613	1	3	-0.135873	-22.0605	12.4867	4.46488
 614	1	3	-0.117662	-21.218	11.8047	3.56487
 615	1	3	-0.064457	-21.6596	11.6486	2.24681
 616	1	2	0.492569	-20.9995	10.9947	1.0878
 617	1	1	-0.072087	-21.8624	11.1669	0.0103195
 618	1	2	0.477555	-23.0161	11.8555	0.376007
 619	1	3	0.042617	-21.5839	10.7139	-1.31399
 620	1	3	-0.20367	-20.3007	10.8719	-1.86809
 621	1	3	-0.057018	-20.0223	10.4391	-3.1748
 622	1	3	-0.18182	-22.5832	10.1064	-2.09592
 623	1	3	-0.14326	-22.3076	9.68184	-3.40748
 624	1	3	0.043342	-21.0258	9.84622	-3.97292
 625	1	6	0.163244	-19.5049	11.3278	-1.28455
 626	1	6	0.101178	-19.0133	10.5742	-3.5504
 627	1	6	0.165346	-20.2485	11.4174	3.87435
 628	1	6	0.135111	-21.7132	12.6392	5.48426
 629	1	6	0.171751	-24.6793	13.2325	2.35206
 630	1	5	-0.478239	-23.9628	12.1699	-0.3241
 631	1	5	-0.481107	-19.9205	10.4277	1.11307
 632	1	5	-0.49957	-25.0276	14.5394	4.63934
 633	1	6	0.151248	-23.5843	9.97192	-1.69296
 634	1	6	0.146138	-23.1018	9.22347	-3.9895
 635	1	7	0.044043	-20.7656	9.38561	-5.42311
 636	1	7	-0.215975	-21.7472	10.0854	-6.40158
 637	1	8	0.063789	-21.7077	11.1754	-6.28144
 638	1	8	0.072206	-22.7824	9.76601	-6.2319
 639	1	8	0.045489	-21.4932	9.85342	-7.44416
 640	1	7	0.005306	-20.8739	7.83085	-5.53991