pySIMM System Object

2906 atoms
3213 bonds
5676 angles
9104 dihedrals
924 impropers

8 atom types
10 bond types
17 angle types
9 dihedral types
4 improper types

-214.485364 214.485364 xlo xhi
-214.485364 214.485364 ylo yhi
-214.485364 214.485364 zlo zhi

Masses

   1	14.01	# n
   2	12.01	# c
   3	12.01	# ca
   4	1.008	# hn
   5	16.0	# o
   6	1.008	# ha
   7	12.01	# c3
   8	1.008	# hc

Pair Coeffs

   1	0.17	3.249998523775958	# n
   2	0.086	3.3996695084235347	# c
   3	0.086	3.3996695084235347	# ca
   4	0.0157	1.069078461768407	# hn
   5	0.21	2.959921901149463	# o
   6	0.015	2.59964245953351	# ha
   7	0.1094	3.3996695084235347	# c3
   8	0.0157	2.649532787749369	# hc

Bond Coeffs

   1	461.1	1.3984	# ca,ca
   2	427.6	1.3789	# c,n
   3	345.9	1.4906	# c,ca
   4	300.9	1.5375	# c3,c3
   5	345.8	1.086	# ca,ha
   6	384.2	1.4121	# ca,n
   7	637.7	1.2183	# c,o
   8	321.0	1.5156	# c3,ca
   9	330.6	1.0969	# c3,hc
  10	403.2	1.0129	# hn,n

Angle Coeffs

   1	68.72	122.6	# ca,c,o
   2	62.86	111.51	# c3,c3,c3
   3	63.82	123.71	# c,n,ca
   4	67.87	120.19	# ca,ca,n
   5	67.68	115.25	# ca,c,n
   6	63.0	118.11	# ca,c,ca
   7	63.56	112.24	# ca,c3,ca
   8	63.15	112.07	# c3,c3,ca
   9	46.34	109.8	# c3,c3,hc
  10	74.22	123.05	# n,c,o
  11	48.33	117.55	# c,n,hn
  12	64.28	120.33	# c,ca,ca
  13	39.4	107.58	# hc,c3,hc
  14	66.62	120.02	# ca,ca,ca
  15	63.53	120.77	# c3,ca,ca
  16	63.74	127.08	# c,n,c
  17	48.18	119.88	# ca,ca,ha

Dihedral Coeffs

   1	1	2.5	2	180	# X,c,n,X
   2	1	0.45	2	180	# X,ca,n,X
   3	3	0.18	3	0	0.25	2	180	0.2	1	180	# c3,c3,c3,c3
   4	2	2.5	2	180	2.0	1	0	# hn,n,c,o
   5	1	3.625	2	180	# X,ca,ca,X
   6	1	0.16	3	0	# hc,c3,c3,c3
   7	1	1.0	2	180	# X,c,ca,X
   8	1	0.15555555555555556	3	0	# X,c3,c3,X
   9	1	0.0	2	0	# X,c3,ca,X

Improper Coeffs

   1	10.5	-1	2	# c,X,X,o
   2	1.1	-1	2	# ca,X,X,ha
   3	1.1	-1	2	# ca,ca,ca,c3
   4	1.1	-1	2	# n,X,X,hn

Atoms

   1	1	1	0.463181	-16.7917	61.4602	43.3813
   2	1	2	0.074399	-15.524	61.1289	43.8556
   3	1	3	0.034296	-15.2025	59.8286	43.2179
   4	1	2	0.051625	-17.3052	60.5181	42.4931
   5	1	3	0.019035	-16.2574	59.4685	42.4006
   6	1	5	-0.389616	-14.8528	61.706	44.6959
   7	1	5	-0.380104	-18.4093	60.4903	41.9753
   8	1	3	-0.045097	-14.0952	58.9935	43.4048
   9	1	3	-0.056032	-16.2509	58.2617	41.6939
  10	1	3	-0.174781	-15.1435	57.4049	41.8642
  11	1	3	-0.129342	-14.0799	57.7418	42.7436
  12	1	6	0.168842	-13.2916	59.3061	44.0671
  13	1	6	0.15893	-17.0896	57.9872	41.0586
  14	1	6	0.147704	-15.1277	56.4466	41.3478
  15	1	2	0.584577	-12.9607	56.7532	42.957
  16	1	3	-0.046755	-12.316	56.5937	44.3195
  17	1	3	-0.110868	-12.9649	56.9894	45.5184
  18	1	3	-0.046132	-12.3305	56.7368	46.7443
  19	1	3	-0.135873	-11.05	55.9562	44.4028
  20	1	3	-0.117662	-10.4266	55.7165	45.6433
  21	1	3	-0.064457	-11.0987	56.1205	46.8016
  22	1	2	0.492569	-10.709	55.9874	48.2277
  23	1	1	-0.072087	-11.7502	56.5443	48.9663
  24	1	2	0.477555	-12.7754	57.0056	48.1419
  25	1	3	0.042617	-11.7661	56.6084	50.3948
  26	1	3	-0.20367	-12.2674	57.7392	51.0673
  27	1	3	-0.057018	-12.2288	57.8199	52.471
  28	1	3	-0.18182	-11.2514	55.5487	51.1645
  29	1	3	-0.14326	-11.2092	55.629	52.5647
  30	1	3	0.043342	-11.6778	56.773	53.2423
  31	1	6	0.163244	-12.6718	58.5752	50.5022
  32	1	6	0.101178	-12.6114	58.7181	52.9435
  33	1	6	0.165346	-9.45904	55.2223	45.7062
  34	1	6	0.135111	-10.5505	55.6346	43.4906
  35	1	6	0.171751	-13.9537	57.4396	45.5163
  36	1	5	-0.478239	-13.8306	57.5256	48.4687
  37	1	5	-0.481107	-9.66879	55.4947	48.6318
  38	1	5	-0.49957	-12.5946	56.054	42.0249
  39	1	6	0.151248	-10.8515	54.6625	50.6795
  40	1	6	0.146138	-10.7787	54.8032	53.1258
  41	1	7	0.044043	-11.5472	56.8403	54.7783
  42	1	7	-0.215975	-11.7873	58.2556	55.3714
  43	1	8	0.063789	-11.11	58.9902	54.9167
  44	1	8	0.072206	-11.5985	58.2627	56.4524
  45	1	8	0.045489	-12.8182	58.5925	55.2136
  46	1	7	0.005306	-12.4878	55.7976	55.4654
  47	1	7	0.164932	-11.6529	54.9471	56.4739
  48	1	8	0.005277	-12.9127	55.1378	54.7015
  49	1	8	0.017604	-13.3396	56.28	55.9604
  50	1	3	0.008363	-10.228	55.3266	56.1293
  51	1	7	-0.151488	-11.9066	53.4338	56.2676
  52	1	7	-0.269275	-11.9767	55.3406	57.9349
  53	1	3	0.096378	-10.1709	56.3677	55.2112
  54	1	8	0.063418	-11.7897	56.4084	58.1048
  55	1	8	0.061085	-11.3535	54.7753	58.6391
  56	1	8	0.065045	-13.0283	55.1359	58.1727
  57	1	3	-0.142025	-9.05233	54.7497	56.6361
  58	1	3	-0.448546	-8.93721	56.8671	54.7634
  59	1	3	0.277842	-7.75166	56.2997	55.257
  60	1	3	-0.409063	-7.81225	55.2459	56.1878
  61	1	6	0.203923	-8.89714	57.6734	54.0392
  62	1	8	0.016419	-11.6469	53.1277	55.2457
  63	1	8	0.049665	-12.9623	53.1896	56.44
  64	1	8	0.035794	-11.3042	52.8347	56.9619
  65	1	6	0.161583	-9.10217	53.9381	57.3589
  66	1	6	0.199011	-6.88735	54.816	56.5612
  67	1	1	0.463181	-12.6585	52.0164	49.6099
  68	1	2	0.074399	-13.2887	53.2533	49.717
  69	1	3	0.034296	-13.8027	53.307	51.1061
  70	1	2	0.051625	-12.7134	51.2697	50.7819
  71	1	3	0.019035	-13.4763	52.1196	51.734
  72	1	5	-0.389616	-13.4603	54.09	48.8454
  73	1	5	-0.380104	-12.2805	50.1487	50.9885
  74	1	3	-0.045097	-14.5068	54.3256	51.7596
  75	1	3	-0.056032	-13.8722	51.8642	53.0486
  76	1	3	-0.174781	-14.6097	52.8618	53.718
  77	1	3	-0.129342	-14.9322	54.0987	53.0928
  78	1	6	0.168842	-14.6849	55.261	51.2348
  79	1	6	0.15893	-13.6182	50.9225	53.5306
  80	1	6	0.147704	-14.9202	52.6801	54.7461
  81	1	2	0.584577	-15.6501	55.1585	53.9
  82	1	3	-0.046755	-15.9707	56.4984	53.2928
  83	1	3	-0.110868	-16.755	56.6261	52.1186
  84	1	3	-0.046132	-17.0448	57.9202	51.6553
  85	1	3	-0.135873	-15.5318	57.6609	53.9745
  86	1	3	-0.117662	-15.8159	58.9475	53.4836
  87	1	3	-0.064457	-16.5754	59.0414	52.3139
  88	1	2	0.492569	-17.054	60.2449	51.5925
  89	1	1	-0.072087	-17.813	59.7708	50.5331
  90	1	2	0.477555	-17.8615	58.3821	50.4952
  91	1	3	0.042617	-18.4257	60.6309	49.5844
  92	1	3	-0.20367	-19.8147	60.616	49.3683
  93	1	3	-0.057018	-20.4002	61.4987	48.4402
  94	1	3	-0.18182	-17.6353	61.5532	48.8828
  95	1	3	-0.14326	-18.2179	62.4308	47.9587
  96	1	3	0.043342	-19.6052	62.4001	47.6968
  97	1	6	0.163244	-20.4436	59.9224	49.9192
  98	1	6	0.101178	-21.4746	61.4566	48.2913
  99	1	6	0.165346	-15.4791	59.8427	54.0042
 100	1	6	0.135111	-14.9713	57.5593	54.9
 101	1	6	0.171751	-17.1497	55.7557	51.5976
 102	1	5	-0.478239	-18.4712	57.672	49.7123
 103	1	5	-0.481107	-16.8182	61.402	51.8936
 104	1	5	-0.49957	-15.8426	54.9904	55.0935
 105	1	6	0.151248	-16.5627	61.5985	49.0585
 106	1	6	0.146138	-17.5732	63.13	47.4316
 107	1	7	0.044043	-20.1863	63.3211	46.6002
 108	1	7	-0.215975	-21.5655	62.8587	46.0558
 109	1	8	0.063789	-21.5266	61.8201	45.7053
 110	1	8	0.072206	-21.88	63.478	45.2065
 111	1	8	0.045489	-22.3466	62.9332	46.8226
 112	1	7	0.005306	-20.2593	64.8042	47.0875
 113	1	7	0.164932	-19.5961	65.7187	46.0053
 114	1	8	0.005277	-19.7111	64.8999	48.0343
 115	1	8	0.017604	-21.2906	65.1132	47.3031
 116	1	3	0.008363	-18.8508	64.7193	45.1409
 117	1	7	-0.151488	-18.6389	66.7442	46.6601
 118	1	7	-0.269275	-20.6639	66.4638	45.1689
 119	1	3	0.096378	-19.208	63.413	45.4419
 120	1	8	0.063418	-21.3513	65.7586	44.6861
 121	1	8	0.061085	-20.193	67.064	44.3801
 122	1	8	0.065045	-21.2568	67.1382	45.7997
 123	1	3	-0.142025	-17.856	64.9846	44.1846
 124	1	3	-0.448546	-18.5778	62.3296	44.8139
 125	1	3	0.277842	-17.5393	62.5624	43.89
 126	1	3	-0.409063	-17.1945	63.8983	43.5734
 127	1	6	0.203923	-18.8504	61.3201	45.092
 128	1	8	0.016419	-17.8394	66.2364	47.215
 129	1	8	0.049665	-19.1812	67.3909	47.3614
 130	1	8	0.035794	-18.1691	67.3863	45.9047
 131	1	6	0.161583	-17.571	66.01	43.9577
 132	1	6	0.199011	-16.384	64.0926	42.8747
 133	1	1	0.463181	-26.1302	56.3806	51.7255
 134	1	2	0.074399	-26.1502	57.1249	50.5437
 135	1	3	0.034296	-24.7373	57.1822	50.0943
 136	1	2	0.051625	-24.8422	55.9652	52.0734
 137	1	3	0.019035	-23.9594	56.4917	51.0017
 138	1	5	-0.389616	-27.1033	57.6303	49.973
 139	1	5	-0.380104	-24.4885	55.2928	53.0283
 140	1	3	-0.045097	-24.1806	57.7966	48.9679
 141	1	3	-0.056032	-22.5748	56.379	50.8378
 142	1	3	-0.174781	-21.9898	56.9899	49.708
 143	1	3	-0.129342	-22.7858	57.687	48.757
 144	1	6	0.168842	-24.818	58.3433	48.2743
 145	1	6	0.15893	-21.9758	55.8412	51.5697
 146	1	6	0.147704	-20.91	56.9338	49.5881
 147	1	2	0.584577	-22.1867	58.3794	47.5571
 148	1	3	-0.046755	-20.8888	57.8964	46.9594
 149	1	3	-0.110868	-20.5196	56.5277	46.9781
 150	1	3	-0.046132	-19.2922	56.1642	46.4065
 151	1	3	-0.135873	-20.0383	58.8383	46.3262
 152	1	3	-0.117662	-18.805	58.4538	45.7702
 153	1	3	-0.064457	-18.4599	57.1033	45.8335
 154	1	2	0.492569	-17.246	56.4155	45.3416
 155	1	1	-0.072087	-17.4251	55.072	45.639
 156	1	2	0.477555	-18.6335	54.835	46.2844
 157	1	3	0.042617	-16.4528	54.0756	45.3528
 158	1	3	-0.20367	-16.8025	52.8606	44.7384
 159	1	3	-0.057018	-15.8273	51.8733	44.5042
 160	1	3	-0.18182	-15.1113	54.3028	45.6902
 161	1	3	-0.14326	-14.1319	53.3399	45.4186
 162	1	3	0.043342	-14.4779	52.0873	44.865
 163	1	6	0.163244	-17.8386	52.6628	44.4755
 164	1	6	0.101178	-16.1427	50.9313	44.0685
 165	1	6	0.165346	-18.1356	59.1716	45.3059
 166	1	6	0.135111	-20.3362	59.8807	46.2811
 167	1	6	0.171751	-21.1606	55.765	47.4148
 168	1	5	-0.478239	-19.0798	53.772	46.6814
 169	1	5	-0.481107	-16.2931	56.9531	44.8052
 170	1	5	-0.49957	-22.7505	59.3555	47.0879
 171	1	6	0.151248	-14.829	55.22	46.1961
 172	1	6	0.146138	-13.1059	53.55	45.7115
 173	1	7	0.044043	-13.4071	50.9746	44.7906
 174	1	7	-0.215975	-14.0015	49.5449	44.671
 175	1	8	0.063789	-14.5033	49.3989	43.7063
 176	1	8	0.072206	-14.7267	49.3547	45.4727
 177	1	8	0.045489	-13.2179	48.7824	44.7527
 178	1	7	0.005306	-12.3613	51.2372	43.6603
 179	1	7	0.164932	-10.9272	51.0568	44.2615
 180	1	8	0.005277	-12.4789	52.2676	43.2984
 181	1	8	0.017604	-12.524	50.5874	42.7905
 182	1	3	0.008363	-11.1905	51.1364	45.7544
 183	1	7	-0.151488	-9.98158	52.1813	43.7748
 184	1	7	-0.269275	-10.324	49.6809	43.8911
 185	1	3	0.096378	-12.5456	51.0416	46.0378
 186	1	8	0.063418	-9.33757	49.5517	44.3542
 187	1	8	0.061085	-10.2031	49.5847	42.8047
 188	1	8	0.065045	-10.9623	48.8591	44.2361
 189	1	3	-0.142025	-10.264	51.3907	46.7804
 190	1	3	-0.448546	-13.0268	51.2254	47.3407
 191	1	3	0.277842	-12.1299	51.5584	48.3721
 192	1	3	-0.409063	-10.7449	51.6172	48.0879
 193	1	6	0.203923	-14.0988	51.2394	47.5203
 194	1	8	0.016419	-8.97581	52.0672	44.1981
 195	1	8	0.049665	-10.3636	53.1645	44.0718
 196	1	8	0.035794	-9.89109	52.1688	42.6812
 197	1	6	0.161583	-9.20315	51.4783	46.5554
 198	1	6	0.199011	-10.0439	51.8907	48.8738
 199	1	1	0.463181	-34.9731	43.3096	42.9604
 200	1	2	0.074399	-33.7123	42.8831	43.382
 201	1	3	0.034296	-33.5876	43.3616	44.7807
 202	1	2	0.051625	-35.667	44.002	43.9543
 203	1	3	0.019035	-34.7475	44.0304	45.1201
 204	1	5	-0.389616	-32.8726	42.2506	42.7616
 205	1	5	-0.380104	-36.779	44.5018	43.9021
 206	1	3	-0.045097	-32.5277	43.2234	45.6835
 207	1	3	-0.056032	-34.9178	44.599	46.3866
 208	1	3	-0.174781	-33.8589	44.4813	47.3117
 209	1	3	-0.129342	-32.6537	43.811	46.9636
 210	1	6	0.168842	-31.627	42.6846	45.3927
 211	1	6	0.15893	-35.8439	45.111	46.6401
 212	1	6	0.147704	-33.9855	44.8999	48.3083
 213	1	2	0.584577	-31.5144	43.6689	47.9409
 214	1	3	-0.046755	-31.202	44.795	48.8965
 215	1	3	-0.110868	-31.5216	46.1378	48.5766
 216	1	3	-0.046132	-31.1842	47.1401	49.4945
 217	1	3	-0.135873	-30.5243	44.5124	50.1118
 218	1	3	-0.117662	-30.1912	45.5387	51.02
 219	1	3	-0.064457	-30.5412	46.8512	50.6805
 220	1	2	0.492569	-30.3217	48.1281	51.4104
 221	1	1	-0.072087	-30.8586	49.1239	50.6014
 222	1	2	0.477555	-31.396	48.6094	49.4273
 223	1	3	0.042617	-30.8646	50.5067	50.9408
 224	1	3	-0.20367	-32.0335	51.2742	50.7972
 225	1	3	-0.057018	-32.0408	52.6345	51.147
 226	1	3	-0.18182	-29.7044	51.1261	51.4371
 227	1	3	-0.14326	-29.7121	52.4863	51.7889
 228	1	3	0.043342	-30.883	53.2645	51.6488
 229	1	6	0.163244	-32.9427	50.8194	50.4126
 230	1	6	0.101178	-32.9613	53.1995	51.0352
 231	1	6	0.165346	-29.6728	45.3248	51.9532
 232	1	6	0.135111	-30.2538	43.4848	50.3492
 233	1	6	0.171751	-31.9978	46.4084	47.6361
 234	1	5	-0.478239	-31.95	49.2076	48.5209
 235	1	5	-0.481107	-29.7868	48.2458	52.4994
 236	1	5	-0.49957	-30.8282	42.6603	47.9278
 237	1	6	0.151248	-28.7913	50.5497	51.5668
 238	1	6	0.146138	-28.798	52.9167	52.1867
 239	1	7	0.044043	-30.9401	54.7533	52.0484
 240	1	7	-0.215975	-31.4274	55.6274	50.861
 241	1	8	0.063789	-32.469	55.4082	50.5975
 242	1	8	0.072206	-30.811	55.4558	49.9696
 243	1	8	0.045489	-31.3655	56.695	51.1098
 244	1	7	0.005306	-31.8581	54.9482	53.298
 245	1	7	0.164932	-30.9462	54.9968	54.5625
 246	1	8	0.005277	-32.6321	54.1741	53.3795
 247	1	8	0.017604	-32.3873	55.9061	53.2046
 248	1	3	0.008363	-29.613	55.3994	53.9627
 249	1	7	-0.151488	-30.8407	53.6044	55.23
 250	1	7	-0.269275	-31.4692	56.0297	55.5901
 251	1	3	0.096378	-29.612	55.2738	52.5796
 252	1	8	0.063418	-32.4844	55.7732	55.9184
 253	1	8	0.061085	-31.496	57.0371	55.1551
 254	1	8	0.065045	-30.826	56.0637	56.4781
 255	1	3	-0.142025	-28.4684	55.844	54.6412
 256	1	3	-0.448546	-28.4709	55.5957	51.827
 257	1	3	0.277842	-27.3041	56.0554	52.4785
 258	1	3	-0.409063	-27.3213	56.171	53.8908
 259	1	6	0.203923	-28.4947	55.496	50.745
 260	1	8	0.016419	-30.4731	52.8498	54.5243
 261	1	8	0.049665	-31.8188	53.2719	55.5998
 262	1	8	0.035794	-30.1482	53.6307	56.0808
 263	1	6	0.161583	-28.4686	55.9284	55.7258
 264	1	6	0.199011	-26.4262	56.5053	54.4123
 265	1	1	0.463181	-18.7885	35.0597	38.2216
 266	1	2	0.074399	-19.8944	34.6923	37.4547
 267	1	3	0.034296	-21.0031	35.5536	37.9366
 268	1	2	0.051625	-19.0803	36.0655	39.1436
 269	1	3	0.019035	-20.5214	36.3658	38.9447
 270	1	5	-0.389616	-19.9593	33.8648	36.5594
 271	1	5	-0.380104	-18.3344	36.6048	39.9448
 272	1	3	-0.045097	-22.3361	35.6174	37.5169
 273	1	3	-0.056032	-21.3524	37.2744	39.6087
 274	1	3	-0.174781	-22.7027	37.3535	39.2055
 275	1	3	-0.129342	-23.199	36.5481	38.1429
 276	1	6	0.168842	-22.6892	34.962	36.7217
 277	1	6	0.15893	-20.961	37.8883	40.4173
 278	1	6	0.147704	-23.3669	38.0325	39.7365
 279	1	2	0.584577	-24.6406	36.6025	37.6962
 280	1	3	-0.046755	-25.4319	37.8878	37.7811
 281	1	3	-0.110868	-26.845	37.816	37.8312
 282	1	3	-0.046132	-27.5779	39.0095	37.8714
 283	1	3	-0.135873	-24.804	39.1633	37.7368
 284	1	3	-0.117662	-25.5619	40.3524	37.7827
 285	1	3	-0.064457	-26.9559	40.2406	37.8538
 286	1	2	0.492569	-28.0086	41.2915	37.8777
 287	1	1	-0.072087	-29.2228	40.6132	37.9029
 288	1	2	0.477555	-29.0474	39.2332	37.9044
 289	1	3	0.042617	-30.4966	41.2529	37.9096
 290	1	3	-0.20367	-30.7662	42.3277	37.0438
 291	1	3	-0.057018	-32.0251	42.9525	37.0465
 292	1	3	-0.18182	-31.5161	40.8084	38.7695
 293	1	3	-0.14326	-32.7767	41.4276	38.7669
 294	1	3	0.043342	-33.0478	42.5249	37.9201
 295	1	6	0.163244	-29.9975	42.6872	36.3647
 296	1	6	0.101178	-32.1953	43.7712	36.3557
 297	1	6	0.165346	-25.0863	41.331	37.744
 298	1	6	0.135111	-23.7241	39.2402	37.638
 299	1	6	0.171751	-27.3616	36.8565	37.8286
 300	1	5	-0.478239	-29.9004	38.3623	37.9053
 301	1	5	-0.481107	-27.814	42.4951	37.8557
 302	1	5	-0.49957	-25.1601	35.5982	37.2371
 303	1	6	0.151248	-31.339	39.9711	39.4405
 304	1	6	0.146138	-33.5415	41.0421	39.4356
 305	1	7	0.044043	-34.4379	43.1979	37.9155
 306	1	7	-0.215975	-34.3667	44.7214	37.6158
 307	1	8	0.063789	-34.0693	44.9216	36.5795
 308	1	8	0.072206	-33.6477	45.2149	38.2823
 309	1	8	0.045489	-35.3421	45.1991	37.7712
 310	1	7	0.005306	-35.3881	42.4772	36.9064
 311	1	7	0.164932	-36.7697	42.2451	37.5984
 312	1	8	0.005277	-34.9507	41.5065	36.6359
 313	1	8	0.017604	-35.4897	43.0369	35.9673
 314	1	3	0.008363	-36.4498	42.493	39.0597
 315	1	7	-0.151488	-37.2766	40.8023	37.3575
 316	1	7	-0.269275	-37.8256	43.2583	37.0945
 317	1	3	0.096378	-35.1767	43.0184	39.2315
 318	1	8	0.063418	-37.4944	44.2907	37.26
 319	1	8	0.061085	-38.7786	43.1249	37.6216
 320	1	8	0.065045	-38.0119	43.1292	36.0208
 321	1	3	-0.142025	-37.2791	42.2542	40.1666
 322	1	3	-0.448546	-34.6875	43.3215	40.5112
 323	1	3	0.277842	-35.4853	43.0646	41.6477
 324	1	3	-0.409063	-36.7859	42.5369	41.4564
 325	1	6	0.203923	-33.6801	43.7157	40.6208
 326	1	8	0.016419	-37.4065	40.6076	36.2852
 327	1	8	0.049665	-38.2425	40.6354	37.8501
 328	1	8	0.035794	-36.5654	40.0657	37.7532
 329	1	6	0.161583	-38.2812	41.8539	40.0278
 330	1	6	0.199011	-37.4217	42.3529	42.3204
 331	1	1	0.463181	-22.7472	24.2449	23.1215
 332	1	2	0.074399	-21.5182	24.9093	23.1372
 333	1	3	0.034296	-21.3699	25.4251	24.5207
 334	1	2	0.051625	-23.4022	24.3046	24.354
 335	1	3	0.019035	-22.4902	25.0672	25.2435
 336	1	5	-0.389616	-20.7124	25.0498	22.2315
 337	1	5	-0.380104	-24.4731	23.8152	24.6749
 338	1	3	-0.045097	-20.3183	26.1417	25.1027
 339	1	3	-0.056032	-22.6324	25.4185	26.5897
 340	1	3	-0.174781	-21.585	26.1412	27.1994
 341	1	3	-0.129342	-20.4122	26.4869	26.4719
 342	1	6	0.168842	-19.4477	26.4137	24.5072
 343	1	6	0.15893	-23.5297	25.1412	27.1389
 344	1	6	0.147704	-21.6975	26.4451	28.2382
 345	1	2	0.584577	-19.2802	27.2643	27.0993
 346	1	3	-0.046755	-19.0016	27.1521	28.5789
 347	1	3	-0.110868	-18.4067	28.2489	29.2452
 348	1	3	-0.046132	-18.1493	28.139	30.6173
 349	1	3	-0.135873	-19.274	25.9606	29.306
 350	1	3	-0.117662	-19.0076	25.8732	30.6888
 351	1	3	-0.064457	-18.4493	26.991	31.3212
 352	1	2	0.492569	-18.0691	27.208	32.7431
 353	1	1	-0.072087	-17.5562	28.4995	32.8061
 354	1	2	0.477555	-17.5613	29.1226	31.5625
 355	1	3	0.042617	-17.1038	29.124	34.0043
 356	1	3	-0.20367	-16.2952	28.4304	34.9224
 357	1	3	-0.057018	-15.8625	29.0545	36.1048
 358	1	3	-0.18182	-17.4652	30.4518	34.2921
 359	1	3	-0.14326	-17.023	31.0793	35.4671
 360	1	3	0.043342	-16.2139	30.3894	36.3967
 361	1	6	0.163244	-16.008	27.3999	34.7293
 362	1	6	0.101178	-15.2464	28.4921	36.8004
 363	1	6	0.165346	-19.2203	24.9664	31.2528
 364	1	6	0.135111	-19.6815	25.0903	28.7968
 365	1	6	0.171751	-18.1577	29.1656	28.7112
 366	1	5	-0.478239	-17.1762	30.2428	31.2747
 367	1	5	-0.481107	-18.202	26.4012	33.6476
 368	1	5	-0.49957	-18.5896	27.9894	26.4019
 369	1	6	0.151248	-18.0903	31.0112	33.6
 370	1	6	0.146138	-17.3248	32.1083	35.6353
 371	1	7	0.044043	-15.7236	31.0369	37.7085
 372	1	7	-0.215975	-16.2855	30.2643	38.9314
 373	1	8	0.063789	-15.891	29.2418	38.9752
 374	1	8	0.072206	-17.3798	30.2001	38.883
 375	1	8	0.045489	-16.019	30.7673	39.8701
 376	1	7	0.005306	-14.1611	31.0927	37.7564
 377	1	7	0.164932	-13.7145	32.5186	37.3116
 378	1	8	0.005277	-13.6866	30.31	37.1511
 379	1	8	0.017604	-13.8308	30.9242	38.7902
 380	1	3	0.008363	-14.9655	33.3305	37.5801
 381	1	7	-0.151488	-13.3689	32.5482	35.8032
 382	1	7	-0.269275	-12.5018	33.0102	38.1386
 383	1	3	0.096378	-16.0689	32.5173	37.8056
 384	1	8	0.063418	-12.1912	34.0144	37.8249
 385	1	8	0.061085	-11.6445	32.337	38.0118
 386	1	8	0.065045	-12.7475	33.0526	39.2075
 387	1	3	-0.142025	-15.089	34.7281	37.5924
 388	1	3	-0.448546	-17.3343	33.0748	38.0538
 389	1	3	0.277842	-17.4943	34.4782	38.053
 390	1	3	-0.409063	-16.3579	35.2928	37.8295
 391	1	6	0.203923	-18.1929	32.4232	38.1942
 392	1	8	0.016419	-13.1163	33.566	35.4798
 393	1	8	0.049665	-14.2151	32.2042	35.1951
 394	1	8	0.035794	-12.5102	31.9009	35.5845
 395	1	6	0.161583	-14.2217	35.3591	37.41
 396	1	6	0.199011	-16.4645	36.3758	37.8374
 397	1	1	0.463181	-16.3398	6.6796	26.0941
 398	1	2	0.074399	-15.8215	7.93564	25.778
 399	1	3	0.034296	-16.9719	8.87152	25.9078
 400	1	2	0.051625	-17.7013	6.70945	26.3808
 401	1	3	0.019035	-18.0893	8.13393	26.2571
 402	1	5	-0.389616	-14.6784	8.22958	25.4684
 403	1	5	-0.380104	-18.4339	5.78329	26.6877
 404	1	3	-0.045097	-17.0243	10.2689	25.79
 405	1	3	-0.056032	-19.3272	8.73752	26.4905
 406	1	3	-0.174781	-19.4033	10.1387	26.3776
 407	1	3	-0.129342	-18.2646	10.9092	26.0296
 408	1	6	0.168842	-16.1206	10.8336	25.5703
 409	1	6	0.15893	-20.1883	8.13992	26.7823
 410	1	6	0.147704	-20.3453	10.6395	26.5962
 411	1	2	0.584577	-18.3819	12.4074	26.0619
 412	1	3	-0.046755	-18.3842	13.1984	24.7745
 413	1	3	-0.110868	-18.889	14.5209	24.8059
 414	1	3	-0.046132	-18.9953	15.2311	23.6056
 415	1	3	-0.135873	-17.9712	12.6438	23.5315
 416	1	3	-0.117662	-18.0731	13.3872	22.3341
 417	1	3	-0.064457	-18.6068	14.6816	22.4037
 418	1	2	0.492569	-18.9523	15.6485	21.3258
 419	1	1	-0.072087	-19.5756	16.725	21.958
 420	1	2	0.477555	-19.5933	16.5641	23.3408
 421	1	3	0.042617	-20.1922	17.8219	21.2766
 422	1	3	-0.20367	-19.6324	18.3541	20.1023
 423	1	3	-0.057018	-20.2598	19.4078	19.4164
 424	1	3	-0.18182	-21.404	18.37	21.7407
 425	1	3	-0.14326	-22.0215	19.4365	21.0664
 426	1	3	0.043342	-21.4521	19.9855	19.899
 427	1	6	0.163244	-18.7171	17.9348	19.7002
 428	1	6	0.101178	-19.814	19.7586	18.496
 429	1	6	0.165346	-17.7854	12.9593	21.3749
 430	1	6	0.135111	-17.5948	11.6259	23.4792
 431	1	6	0.171751	-19.2433	14.9693	25.7338
 432	1	5	-0.478239	-20.0384	17.3186	24.1888
 433	1	5	-0.481107	-18.7579	15.4746	20.1345
 434	1	5	-0.49957	-18.6788	12.947	27.1146
 435	1	6	0.151248	-21.8826	17.9713	22.6314
 436	1	6	0.146138	-22.9577	19.828	21.456
 437	1	7	0.044043	-22.1624	21.1331	19.1498
 438	1	7	-0.215975	-21.1945	22.0241	18.3249
 439	1	8	0.063789	-20.8224	21.4962	17.4404
 440	1	8	0.072206	-20.3368	22.3418	18.9322
 441	1	8	0.045489	-21.7003	22.9306	17.9688
 442	1	7	0.005306	-23.2923	20.5628	18.2346
 443	1	7	0.164932	-24.5911	21.3992	18.4641
 444	1	8	0.005277	-23.4798	19.5146	18.5038
 445	1	8	0.017604	-22.9963	20.5533	17.1772
 446	1	3	0.008363	-24.2625	22.1857	19.7187
 447	1	7	-0.151488	-25.815	20.4743	18.6676
 448	1	7	-0.269275	-24.8512	22.3581	17.2773
 449	1	3	0.096378	-22.9343	22.0404	20.0921
 450	1	8	0.063418	-24.0	23.0328	17.1221
 451	1	8	0.061085	-25.7387	22.9765	17.4608
 452	1	8	0.065045	-25.0144	21.7982	16.3477
 453	1	3	-0.142025	-25.1251	23.0081	20.4592
 454	1	3	-0.448546	-22.4197	22.7124	21.2113
 455	1	3	0.277842	-23.2599	23.551	21.9778
 456	1	3	-0.409063	-24.6159	23.6837	21.5868
 457	1	6	0.203923	-21.3696	22.5964	21.4682
 458	1	8	0.016419	-25.6679	19.8141	19.5322
 459	1	8	0.049665	-25.9785	19.8449	17.7835
 460	1	8	0.035794	-26.7277	21.0579	18.8405
 461	1	6	0.161583	-26.1657	23.1222	20.1627
 462	1	6	0.199011	-25.2833	24.3147	22.1709
 463	1	1	0.463181	0.720536	2.47376	18.836
 464	1	2	0.074399	-0.569682	2.50738	19.3558
 465	1	3	0.034296	-0.943304	3.9467	19.3337
 466	1	2	0.051625	1.19078	3.72401	18.4408
 467	1	3	0.019035	0.107012	4.66898	18.7967
 468	1	5	-0.389616	-1.24084	1.58421	19.7883
 469	1	5	-0.380104	2.27548	4.00897	17.9578
 470	1	3	-0.045097	-2.08592	4.58207	19.8296
 471	1	3	-0.056032	0.0832859	6.06576	18.7307
 472	1	3	-0.174781	-1.04829	6.72838	19.2475
 473	1	3	-0.129342	-2.13451	5.99684	19.7933
 474	1	6	0.168842	-2.87879	3.98907	20.2814
 475	1	6	0.15893	0.932171	6.61505	18.3291
 476	1	6	0.147704	-1.07796	7.81729	19.245
 477	1	2	0.584577	-3.2942	6.72185	20.4168
 478	1	3	-0.046755	-4.6513	6.08939	20.3171
 479	1	3	-0.110868	-5.47493	6.00673	21.4627
 480	1	3	-0.046132	-6.73181	5.40211	21.3285
 481	1	3	-0.135873	-5.11068	5.58519	19.0727
 482	1	3	-0.117662	-6.38989	5.00779	18.9556
 483	1	3	-0.064457	-7.17739	4.93078	20.1102
 484	1	2	0.492569	-8.54322	4.38347	20.2967
 485	1	1	-0.072087	-8.8324	4.52877	21.6501
 486	1	2	0.477555	-7.79114	5.14264	22.3402
 487	1	3	0.042617	-10.0566	4.09908	22.2416
 488	1	3	-0.20367	-10.6454	2.88558	21.844
 489	1	3	-0.057018	-11.888	2.4915	22.359
 490	1	3	-0.18182	-10.7213	4.89027	23.1971
 491	1	3	-0.14326	-11.9599	4.48692	23.727
 492	1	3	0.043342	-12.5671	3.28333	23.3055
 493	1	6	0.163244	-10.1582	2.25219	21.1072
 494	1	6	0.101178	-12.3312	1.5651	22.0055
 495	1	6	0.165346	-6.76191	4.63313	18.0029
 496	1	6	0.135111	-4.48331	5.66563	18.1872
 497	1	6	0.171751	-5.14248	6.38963	22.4267
 498	1	5	-0.478239	-7.71894	5.40359	23.5288
 499	1	5	-0.481107	-9.24704	3.92444	19.4135
 500	1	5	-0.49957	-3.12791	7.76003	21.034
 501	1	6	0.151248	-10.2849	5.82992	23.528
 502	1	6	0.146138	-12.4419	5.13005	24.4577
 503	1	7	0.044043	-13.9446	2.82278	23.8165
 504	1	7	-0.215975	-14.9676	2.82469	22.6497
 505	1	8	0.063789	-14.9996	3.80704	22.1614
 506	1	8	0.072206	-15.9783	2.59437	23.0108
 507	1	8	0.045489	-14.7042	2.08158	21.8869
 508	1	7	0.005306	-13.8514	1.41016	24.4792
 509	1	7	0.164932	-13.6433	1.618	26.0085
 510	1	8	0.005277	-13.0744	0.770581	24.0432
 511	1	8	0.017604	-14.8048	0.887624	24.3218
 512	1	3	0.008363	-14.2711	2.98468	26.2039
 513	1	7	-0.151488	-12.1397	1.6479	26.375
 514	1	7	-0.269275	-14.3582	0.508653	26.8177
 515	1	3	0.096378	-14.4521	3.6448	24.9932
 516	1	8	0.063418	-14.21	0.646336	27.8957
 517	1	8	0.061085	-13.9689	-0.481258	26.5476
 518	1	8	0.065045	-15.4383	0.514284	26.6222
 519	1	3	-0.142025	-14.7049	3.56012	27.4073
 520	1	3	-0.448546	-15.1018	4.89007	24.9396
 521	1	3	0.277842	-15.5776	5.47545	26.132
 522	1	3	-0.409063	-15.3613	4.80552	27.3603
 523	1	6	0.203923	-15.2601	5.38129	23.9841
 524	1	8	0.016419	-11.6597	0.689741	26.1383
 525	1	8	0.049665	-12.0045	1.83854	27.4469
 526	1	8	0.035794	-11.6085	2.43583	25.8275
 527	1	6	0.161583	-14.5692	3.03502	28.3505
 528	1	6	0.199011	-15.7452	5.23793	28.2818
 529	1	1	0.463181	8.99064	6.57565	6.31407
 530	1	2	0.074399	7.9325	6.18153	5.48088
 531	1	3	0.034296	6.71701	6.79907	6.06451
 532	1	2	0.051625	8.58144	7.5206	7.26299
 533	1	3	0.019035	7.11219	7.62262	7.10112
 534	1	5	-0.389616	7.9427	5.41893	4.52752
 535	1	5	-0.380104	9.21343	8.01389	8.18339
 536	1	3	-0.045097	5.36967	6.46349	5.86476
 537	1	3	-0.056032	6.1871	8.22554	7.9559
 538	1	3	-0.174781	4.8305	7.90049	7.78132
 539	1	3	-0.129342	4.42248	6.99046	6.77152
 540	1	6	0.168842	5.09281	5.70835	5.12912
 541	1	6	0.15893	6.52233	8.83984	8.78883
 542	1	6	0.147704	4.10135	8.28478	8.49251
 543	1	2	0.584577	3.04247	6.40654	6.85335
 544	1	3	-0.046755	2.6793	5.88494	8.216
 545	1	3	-0.110868	3.64611	5.14742	8.93838
 546	1	3	-0.046132	3.31988	4.69885	10.2203
 547	1	3	-0.135873	1.4114	6.14126	8.79489
 548	1	3	-0.117662	1.11336	5.69893	10.1032
 549	1	3	-0.064457	2.0996	4.98446	10.7992
 550	1	2	0.492569	2.03428	4.26435	12.1012
 551	1	1	-0.072087	3.21791	3.54074	12.1848
 552	1	2	0.477555	4.06091	3.77126	11.1101
 553	1	3	0.042617	3.4174	2.49748	13.1214
 554	1	3	-0.20367	3.36222	1.16753	12.6809
 555	1	3	-0.057018	3.35875	0.10856	13.6002
 556	1	3	-0.18182	3.59152	2.76047	14.4872
 557	1	3	-0.14326	3.63052	1.69768	15.4047
 558	1	3	0.043342	3.42667	0.359693	14.9845
 559	1	6	0.163244	3.27904	0.958737	11.6213
 560	1	6	0.101178	3.26547	-0.90471	13.2273
 561	1	6	0.165346	0.134969	5.86434	10.5494
 562	1	6	0.135111	0.662292	6.68747	8.2252
 563	1	6	0.171751	4.6112	4.89222	8.5016
 564	1	5	-0.478239	5.09991	3.19643	10.8335
 565	1	5	-0.481107	1.083	4.23282	12.8639
 566	1	5	-0.49957	2.31082	6.28909	5.88562
 567	1	6	0.151248	3.65598	3.78495	14.8476
 568	1	6	0.146138	3.75076	1.94078	16.4576
 569	1	7	0.044043	3.2231	-0.785381	16.0035
 570	1	7	-0.215975	2.18002	-1.83172	15.5293
 571	1	8	0.063789	2.53422	-2.40633	14.6655
 572	1	8	0.072206	1.24235	-1.33403	15.2572
 573	1	8	0.045489	1.95216	-2.55218	16.3252
 574	1	7	0.005306	4.57209	-1.47191	16.3799
 575	1	7	0.164932	4.6823	-1.52564	17.9389
 576	1	8	0.005277	5.40221	-0.883428	15.9668
 577	1	8	0.017604	4.65606	-2.47223	15.9346
 578	1	3	0.008363	3.56927	-0.595383	18.3856
 579	1	7	-0.151488	6.07439	-1.0337	18.4043
 580	1	7	-0.269275	4.42813	-2.95636	18.4698
 581	1	3	0.096378	2.74438	-0.236066	17.3308
 582	1	8	0.063418	4.45398	-2.97438	19.5668
 583	1	8	0.061085	5.19091	-3.65416	18.1017
 584	1	8	0.065045	3.4454	-3.32668	18.1521
 585	1	3	-0.142025	3.36806	-0.0473985	19.6625
 586	1	3	-0.448546	1.6957	0.679611	17.5011
 587	1	3	0.277842	1.5344	1.31239	18.746
 588	1	3	-0.409063	2.35827	0.923078	19.829
 589	1	6	0.203923	1.11614	1.00122	16.6399
 590	1	8	0.016419	6.15775	-1.05162	19.498
 591	1	8	0.049665	6.25845	-0.00491488	18.0684
 592	1	8	0.035794	6.86874	-1.67102	17.9951
 593	1	6	0.161583	4.027	-0.31477	20.4858
 594	1	6	0.199011	2.25306	1.42235	20.7893
 595	1	1	0.463181	25.8761	10.5445	0.802546
 596	1	2	0.074399	24.8344	10.3184	1.70876
 597	1	3	0.034296	24.4832	11.6515	2.24652
 598	1	2	0.051625	26.2547	11.8925	0.761568
 599	1	3	0.019035	25.3349	12.5893	1.70126
 600	1	5	-0.389616	24.2848	9.27125	2.01198
 601	1	5	-0.380104	27.0974	12.4296	0.0609139
 602	1	3	-0.045097	23.445	12.0084	3.11041
 603	1	3	-0.056032	25.2206	13.9471	2.02684
 604	1	3	-0.174781	24.1875	14.3322	2.91103
 605	1	3	-0.129342	23.2764	13.3757	3.43164
 606	1	6	0.168842	22.7855	11.237	3.50368
 607	1	6	0.15893	25.9009	14.6781	1.59466
 608	1	6	0.147704	24.0707	15.3827	3.17405
 609	1	2	0.584577	22.1327	13.8004	4.31777
 610	1	3	-0.046755	20.8266	13.0589	4.18122
 611	1	3	-0.110868	20.0581	12.7614	5.33093
 612	1	3	-0.046132	18.8935	11.9949	5.17161
 613	1	3	-0.135873	20.3762	12.6252	2.90492
 614	1	3	-0.117662	19.1989	11.8628	2.76874
 615	1	3	-0.064457	18.4834	11.5515	3.93084
 616	1	2	0.492569	17.3002	10.6714	4.11741
 617	1	1	-0.072087	17.0892	10.6012	5.49096
 618	1	2	0.477555	17.9775	11.4163	6.19041
 619	1	3	0.042617	16.2104	9.65541	6.10381
 620	1	3	-0.20367	14.9497	9.34892	5.55203
 621	1	3	-0.057018	14.1733	8.2919	6.06702
 622	1	3	-0.18182	16.6524	8.91362	7.2132
 623	1	3	-0.14326	15.8699	7.87828	7.7402
 624	1	3	0.043342	14.6312	7.53235	7.16399
 625	1	6	0.163244	14.5892	9.89232	4.68239
 626	1	6	0.101178	13.2387	8.04483	5.57489
 627	1	6	0.165346	18.8679	11.4967	1.79807
 628	1	6	0.135111	20.95	12.8681	2.01261
 629	1	6	0.171751	20.3852	13.0719	6.32267
 630	1	5	-0.478239	18.0792	11.5653	7.39594
 631	1	5	-0.481107	16.728	10.0597	3.23117
 632	1	5	-0.49957	22.271	14.6892	5.14114
 633	1	6	0.151248	17.6268	9.10704	7.65425
 634	1	6	0.146138	16.2633	7.30155	8.57225
 635	1	7	0.044043	13.9189	6.27164	7.68865
 636	1	7	-0.215975	13.5786	6.42532	9.19665
 637	1	8	0.063789	12.9168	7.28615	9.35746
 638	1	8	0.072206	14.4758	6.5733	9.80896
 639	1	8	0.045489	13.0627	5.5343	9.57655
 640	1	7	0.005306	14.8671	5.04707	7.45654
 641	1	7	0.164932	14.0325	3.84647	6.92513
 642	1	8	0.005277	15.4249	4.78745	8.36607
 643	1	8	0.017604	15.6227	5.30866	6.70318
 644	1	3	0.008363	12.6991	4.4887	6.61791
 645	1	7	-0.151488	13.8923	2.75042	8.00853
 646	1	7	-0.269275	14.6584	3.24324	5.6436
 647	1	3	0.096378	12.6459	5.83293	6.96782
 648	1	8	0.063418	14.7077	3.99402	4.84385
 649	1	8	0.061085	14.0622	2.39973	5.2736
 650	1	8	0.065045	15.6761	2.88146	5.83518
 651	1	3	-0.142025	11.5701	3.82838	6.12484
 652	1	3	-0.448546	11.4438	6.55687	6.83672
 653	1	3	0.277842	10.2741	5.91844	6.3444
 654	1	3	-0.409063	10.3689	4.5431	6.00664
 655	1	6	0.203923	11.4102	7.58617	7.18349
 656	1	8	0.016419	13.2577	1.92693	7.65765