pySIMM System Object

3170 atoms
3505 bonds
6192 angles
9932 dihedrals
1008 impropers

8 atom types
10 bond types
17 angle types
9 dihedral types
4 improper types

-220.939888 220.939888 xlo xhi
-220.939888 220.939888 ylo yhi
-220.939888 220.939888 zlo zhi

Masses

   1	14.01	# n
   2	12.01	# c
   3	12.01	# ca
   4	1.008	# hn
   5	16.0	# o
   6	1.008	# ha
   7	12.01	# c3
   8	1.008	# hc

Pair Coeffs

   1	0.17	3.249998523775958	# n
   2	0.086	3.3996695084235347	# c
   3	0.086	3.3996695084235347	# ca
   4	0.0157	1.069078461768407	# hn
   5	0.21	2.959921901149463	# o
   6	0.015	2.59964245953351	# ha
   7	0.1094	3.3996695084235347	# c3
   8	0.0157	2.649532787749369	# hc

Bond Coeffs

   1	461.1	1.3984	# ca,ca
   2	427.6	1.3789	# c,n
   3	345.9	1.4906	# c,ca
   4	300.9	1.5375	# c3,c3
   5	345.8	1.086	# ca,ha
   6	384.2	1.4121	# ca,n
   7	637.7	1.2183	# c,o
   8	321.0	1.5156	# c3,ca
   9	330.6	1.0969	# c3,hc
  10	403.2	1.0129	# hn,n

Angle Coeffs

   1	68.72	122.6	# ca,c,o
   2	62.86	111.51	# c3,c3,c3
   3	63.82	123.71	# c,n,ca
   4	67.87	120.19	# ca,ca,n
   5	67.68	115.25	# ca,c,n
   6	63.0	118.11	# ca,c,ca
   7	63.56	112.24	# ca,c3,ca
   8	63.15	112.07	# c3,c3,ca
   9	46.34	109.8	# c3,c3,hc
  10	74.22	123.05	# n,c,o
  11	48.33	117.55	# c,n,hn
  12	64.28	120.33	# c,ca,ca
  13	39.4	107.58	# hc,c3,hc
  14	66.62	120.02	# ca,ca,ca
  15	63.53	120.77	# c3,ca,ca
  16	63.74	127.08	# c,n,c
  17	48.18	119.88	# ca,ca,ha

Dihedral Coeffs

   1	1	2.5	2	180	# X,c,n,X
   2	1	0.45	2	180	# X,ca,n,X
   3	3	0.18	3	0	0.25	2	180	0.2	1	180	# c3,c3,c3,c3
   4	2	2.5	2	180	2.0	1	0	# hn,n,c,o
   5	1	3.625	2	180	# X,ca,ca,X
   6	1	0.16	3	0	# hc,c3,c3,c3
   7	1	1.0	2	180	# X,c,ca,X
   8	1	0.15555555555555556	3	0	# X,c3,c3,X
   9	1	0.0	2	0	# X,c3,ca,X

Improper Coeffs

   1	10.5	-1	2	# c,X,X,o
   2	1.1	-1	2	# ca,X,X,ha
   3	1.1	-1	2	# ca,ca,ca,c3
   4	1.1	-1	2	# n,X,X,hn

Atoms

   1	1	1	0.463181	-58.639	14.3268	44.8577
   2	1	2	0.074399	-57.9194	15.5186	44.9104
   3	1	3	0.034296	-56.7169	15.2779	44.0761
   4	1	2	0.051625	-58.0322	13.357	44.0631
   5	1	3	0.019035	-56.7867	13.9959	43.5647
   6	1	5	-0.389616	-58.1484	16.5155	45.5764
   7	1	5	-0.380104	-58.3767	12.2005	43.8861
   8	1	3	-0.045097	-55.6112	16.104	43.8485
   9	1	3	-0.056032	-55.7643	13.4751	42.7653
  10	1	3	-0.174781	-54.6396	14.2907	42.5209
  11	1	3	-0.129342	-54.5344	15.5893	43.0872
  12	1	6	0.168842	-55.5891	17.1021	44.2793
  13	1	6	0.15893	-55.8282	12.4628	42.3737
  14	1	6	0.147704	-53.8162	13.8974	41.927
  15	1	2	0.584577	-53.2726	16.3873	42.8714
  16	1	3	-0.046755	-52.7411	17.3024	43.9554
  17	1	3	-0.110868	-53.0683	17.1244	45.3252
  18	1	3	-0.046132	-52.4836	17.9766	46.2741
  19	1	3	-0.135873	-51.8283	18.3282	43.5942
  20	1	3	-0.117662	-51.2542	19.1759	44.562
  21	1	3	-0.064457	-51.6064	18.9727	45.9005
  22	1	2	0.492569	-51.1586	19.6832	47.1246
  23	1	1	-0.072087	-51.8048	19.0614	48.1901
  24	1	2	0.477555	-52.6127	18.0108	47.7591
  25	1	3	0.042617	-51.6269	19.4389	49.5573
  26	1	3	-0.20367	-52.7095	19.4495	50.4569
  27	1	3	-0.057018	-52.5377	19.8724	51.7872
  28	1	3	-0.18182	-50.3622	19.834	50.0308
  29	1	3	-0.14326	-50.1899	20.2601	51.3562
  30	1	3	0.043342	-51.2768	20.3059	52.2524
  31	1	6	0.163244	-53.6995	19.1489	50.1232
  32	1	6	0.101178	-53.4046	19.8787	52.4391
  33	1	6	0.165346	-50.5508	19.959	44.2852
  34	1	6	0.135111	-51.5576	18.4616	42.5483
  35	1	6	0.171751	-53.7218	16.3231	45.6615
  36	1	5	-0.478239	-53.2934	17.2556	48.4354
  37	1	5	-0.481107	-50.3866	20.6273	47.1499
  38	1	5	-0.49957	-52.6645	16.2751	41.8184
  39	1	6	0.151248	-49.5047	19.8402	49.3636
  40	1	6	0.146138	-49.2044	20.5861	51.6796
  41	1	7	0.044043	-51.0488	20.8448	53.68
  42	1	7	-0.215975	-52.3589	21.1417	54.4601
  43	1	8	0.063789	-52.9931	21.8447	53.9047
  44	1	8	0.072206	-52.1379	21.5974	55.4338
  45	1	8	0.045489	-52.9363	20.2287	54.6457
  46	1	7	0.005306	-50.1345	19.8792	54.5017
  47	1	7	0.164932	-48.9603	20.6973	55.1248
  48	1	8	0.005277	-49.7268	19.1117	53.8347
  49	1	8	0.017604	-50.6975	19.3419	55.2745
  50	1	3	0.008363	-49.0724	22.032	54.4162
  51	1	7	-0.151488	-47.6003	20.0104	54.8461
  52	1	7	-0.269275	-49.1572	20.8751	56.6498
  53	1	3	0.096378	-50.219	22.116	53.6346
  54	1	8	0.063418	-50.1119	21.3706	56.8681
  55	1	8	0.061085	-48.3558	21.4893	57.079
  56	1	8	0.065045	-49.1524	19.9049	57.1633
  57	1	3	-0.142025	-48.1732	23.1085	54.489
  58	1	3	-0.448546	-50.5041	23.2753	52.8937
  59	1	3	0.277842	-49.6134	24.3581	52.9527
  60	1	3	-0.409063	-48.455	24.2724	53.7465
  61	1	6	0.203923	-51.3938	23.3342	52.2755
  62	1	8	0.016419	-47.4255	19.9078	53.7669
  63	1	8	0.049665	-47.5713	19.008	55.2922
  64	1	8	0.035794	-46.7708	20.5914	55.2678
  65	1	6	0.161583	-47.2795	23.0413	55.1058
  66	1	6	0.199011	-47.7757	25.1193	53.7806
  67	1	1	0.463181	-47.5092	17.1407	48.5648
  68	1	2	0.074399	-48.827	16.9682	48.9784
  69	1	3	0.034296	-48.7586	16.865	50.4555
  70	1	2	0.051625	-46.6018	17.1636	49.6186
  71	1	3	0.019035	-47.4334	16.9641	50.835
  72	1	5	-0.389616	-49.8223	16.8327	48.2855
  73	1	5	-0.380104	-45.3876	17.2649	49.5722
  74	1	3	-0.045097	-49.7879	16.6827	51.3866
  75	1	3	-0.056032	-47.0549	16.8507	52.1744
  76	1	3	-0.174781	-48.0704	16.6354	53.1284
  77	1	3	-0.129342	-49.4408	16.5491	52.755
  78	1	6	0.168842	-50.8161	16.6688	51.0339
  79	1	6	0.15893	-46.0079	16.9206	52.4618
  80	1	6	0.147704	-47.7902	16.5498	54.1775
  81	1	2	0.584577	-50.4835	16.3897	53.8411
  82	1	3	-0.046755	-51.9493	16.3326	53.5001
  83	1	3	-0.110868	-52.4747	15.3884	52.5826
  84	1	3	-0.046132	-53.8618	15.3805	52.3646
  85	1	3	-0.135873	-52.8291	17.2041	54.1902
  86	1	3	-0.117662	-54.2134	17.193	53.9439
  87	1	3	-0.064457	-54.6982	16.2675	53.016
  88	1	2	0.492569	-56.0932	15.9916	52.597
  89	1	1	-0.072087	-56.0161	14.9173	51.7252
  90	1	2	0.477555	-54.7095	14.492	51.5191
  91	1	3	0.042617	-57.1602	14.3419	51.1163
  92	1	3	-0.20367	-57.5173	13.0041	51.3565
  93	1	3	-0.057018	-58.67	12.4581	50.7617
  94	1	3	-0.18182	-57.9837	15.136	50.3051
  95	1	3	-0.14326	-59.1311	14.5917	49.712
  96	1	3	0.043342	-59.4775	13.2356	49.9017
  97	1	6	0.163244	-56.9034	12.3844	52.0038
  98	1	6	0.101178	-58.9117	11.4184	50.959
  99	1	6	0.165346	-54.8919	17.8595	54.4739
 100	1	6	0.135111	-52.4307	17.8891	54.9336
 101	1	6	0.171751	-51.8366	14.666	52.0766
 102	1	5	-0.478239	-54.3218	13.5515	50.8457
 103	1	5	-0.481107	-57.0867	16.5906	52.9695
 104	1	5	-0.49957	-50.1537	16.4488	55.0149
 105	1	6	0.151248	-57.7382	16.1819	50.1351
 106	1	6	0.146138	-59.7425	15.2326	49.0812
 107	1	7	0.044043	-60.687	12.6512	49.1388
 108	1	7	-0.215975	-60.6698	11.1019	49.0287
 109	1	8	0.063789	-59.725	10.7456	48.5998
 110	1	8	0.072206	-61.4785	10.7443	48.3795
 111	1	8	0.045489	-60.8024	10.6277	50.0092
 112	1	7	0.005306	-62.0387	13.1433	49.7494
 113	1	7	0.164932	-62.9422	13.6808	48.5908
 114	1	8	0.005277	-61.8373	13.9539	50.4626
 115	1	8	0.017604	-62.5404	12.353	50.3231
 116	1	3	0.008363	-61.9539	13.8372	47.4499
 117	1	7	-0.151488	-63.5963	15.029	48.9802
 118	1	7	-0.269275	-64.0422	12.6588	48.2161
 119	1	3	0.096378	-60.7358	13.2397	47.7401
 120	1	8	0.063418	-63.6062	11.6954	47.9258
 121	1	8	0.061085	-64.6406	13.0221	47.3711
 122	1	8	0.065045	-64.7202	12.484	49.0611
 123	1	3	-0.142025	-62.1333	14.5437	46.2487
 124	1	3	-0.448546	-59.6522	13.3404	46.8561
 125	1	3	0.277842	-59.7861	14.087	45.6686
 126	1	3	-0.409063	-61.0384	14.6749	45.3683
 127	1	6	0.203923	-58.7	12.9006	47.1258
 128	1	8	0.016419	-62.8331	15.7873	49.1981
 129	1	8	0.049665	-64.2251	14.9139	49.8722
 130	1	8	0.035794	-64.229	15.4113	48.1696
 131	1	6	0.161583	-63.0866	15.0195	46.0278
 132	1	6	0.199011	-61.1503	15.2673	44.4632
 133	1	1	0.463181	-54.4973	7.07923	55.5402
 134	1	2	0.074399	-55.4125	6.85746	54.5085
 135	1	3	0.034296	-55.2109	7.97913	53.5583
 136	1	2	0.051625	-53.7369	8.23419	55.3398
 137	1	3	0.019035	-54.2139	8.79677	54.0509
 138	1	5	-0.389616	-56.2188	5.95039	54.3826
 139	1	5	-0.380104	-52.8507	8.69637	56.04
 140	1	3	-0.045097	-55.8611	8.25881	52.3513
 141	1	3	-0.056032	-53.8102	9.94728	53.3659
 142	1	3	-0.174781	-54.4499	10.249	52.145
 143	1	3	-0.129342	-55.466	9.40337	51.6189
 144	1	6	0.168842	-56.653	7.60189	51.9938
 145	1	6	0.15893	-53.0318	10.5876	53.7755
 146	1	6	0.147704	-54.1624	11.157	51.6208
 147	1	2	0.584577	-56.1934	9.72088	50.3339
 148	1	3	-0.046755	-55.5367	10.5634	49.2689
 149	1	3	-0.110868	-54.1381	10.5207	49.0423
 150	1	3	-0.046132	-53.6014	11.3503	48.0484
 151	1	3	-0.135873	-56.3493	11.3933	48.4543
 152	1	3	-0.117662	-55.7882	12.2269	47.4695
 153	1	3	-0.064457	-54.403	12.1862	47.2984
 154	1	2	0.492569	-53.5406	12.9482	46.3669
 155	1	1	-0.072087	-52.2458	12.5071	46.6031
 156	1	2	0.477555	-52.1944	11.5436	47.6036
 157	1	3	0.042617	-51.1079	13.0329	45.9332
 158	1	3	-0.20367	-50.124	12.1934	45.3822
 159	1	3	-0.057018	-48.9828	12.7408	44.7666
 160	1	3	-0.18182	-50.9524	14.4216	45.8243
 161	1	3	-0.14326	-49.8389	14.9685	45.1756
 162	1	3	0.043342	-48.8098	14.1402	44.6756
 163	1	6	0.163244	-50.2225	11.114	45.4642
 164	1	6	0.101178	-48.224	12.0621	44.3917
 165	1	6	0.165346	-56.3998	12.886	46.8605
 166	1	6	0.135111	-57.4246	11.4018	48.6039
 167	1	6	0.171751	-53.4827	9.86866	49.6156
 168	1	5	-0.478239	-51.2139	10.9717	48.0493
 169	1	5	-0.481107	-53.9187	13.8046	45.5863
 170	1	5	-0.49957	-57.3364	9.3206	50.1792
 171	1	6	0.151248	-51.6835	15.0839	46.2745
 172	1	6	0.146138	-49.7486	16.0512	45.1285
 173	1	7	0.044043	-47.5029	14.7901	44.1668
 174	1	7	-0.215975	-46.2935	13.8171	44.1247
 175	1	8	0.063789	-46.4356	13.0335	43.3699
 176	1	8	0.072206	-46.1433	13.337	45.1003
 177	1	8	0.045489	-45.3675	14.3494	43.8761
 178	1	7	0.005306	-47.6962	15.4936	42.7855
 179	1	7	0.164932	-47.1104	16.942	42.8808
 180	1	8	0.005277	-48.7693	15.5456	42.5572
 181	1	8	0.017604	-47.2381	14.9224	41.9673
 182	1	3	0.008363	-46.9896	17.1477	44.3795
 183	1	7	-0.151488	-48.0715	17.9664	42.2304
 184	1	7	-0.269275	-45.7197	17.0359	42.2092
 185	1	3	0.096378	-47.1587	15.9576	45.0722
 186	1	8	0.063418	-45.2997	18.0432	42.3233
 187	1	8	0.061085	-45.7859	16.816	41.1362
 188	1	8	0.065045	-45.0127	16.3281	42.6582
 189	1	3	-0.142025	-46.8469	18.3623	45.0726
 190	1	3	-0.448546	-47.2246	15.9385	46.4715
 191	1	3	0.277842	-47.1612	17.1484	47.1865
 192	1	3	-0.409063	-46.9498	18.3562	46.4801
 193	1	6	0.203923	-47.4517	15.0083	46.9859
 194	1	8	0.016419	-47.6726	18.9862	42.299
 195	1	8	0.049665	-49.0489	17.9515	42.7271
 196	1	8	0.035794	-48.2269	17.7356	41.1688
 197	1	6	0.161583	-46.7279	19.2964	44.5277
 198	1	6	0.199011	-46.918	19.2997	47.0211
 199	1	1	0.463181	-44.866	-7.08265	49.1176
 200	1	2	0.074399	-44.2734	-5.82693	48.9644
 201	1	3	0.034296	-44.6657	-5.06072	50.1756
 202	1	2	0.051625	-45.6157	-7.18127	50.292
 203	1	3	0.019035	-45.4644	-5.86646	50.9624
 204	1	5	-0.389616	-43.5462	-5.4306	48.0673
 205	1	5	-0.380104	-46.2493	-8.13342	50.7178
 206	1	3	-0.045097	-44.3065	-3.7693	50.5792
 207	1	3	-0.056032	-45.9478	-5.43203	52.2003
 208	1	3	-0.174781	-45.5969	-4.13525	52.6296
 209	1	3	-0.129342	-44.7887	-3.28803	51.821
 210	1	6	0.168842	-43.6539	-3.16446	49.951
 211	1	6	0.15893	-46.5523	-6.09353	52.8175
 212	1	6	0.147704	-45.9283	-3.80995	53.6132
 213	1	2	0.584577	-44.3517	-1.91855	52.2855
 214	1	3	-0.046755	-45.1618	-1.16479	53.3124
 215	1	3	-0.110868	-46.5766	-1.24083	53.3383
 216	1	3	-0.046132	-47.2663	-0.491465	54.3019
 217	1	3	-0.135873	-44.4935	-0.314198	54.2316
 218	1	3	-0.117662	-45.2078	0.433371	55.1901
 219	1	3	-0.064457	-46.6029	0.319569	55.2005
 220	1	2	0.492569	-47.617	1.00165	56.0477
 221	1	1	-0.072087	-48.8526	0.557389	55.5906
 222	1	2	0.477555	-48.7266	-0.354823	54.5489
 223	1	3	0.042617	-50.1006	1.01969	56.0973
 224	1	3	-0.20367	-51.1268	0.116203	56.4237
 225	1	3	-0.057018	-52.363	0.583849	56.9021
 226	1	3	-0.18182	-50.3311	2.39584	56.2673
 227	1	3	-0.14326	-51.5668	2.86335	56.7443
 228	1	3	0.043342	-52.61	1.96424	57.0597
 229	1	6	0.163244	-50.9735	-0.952493	56.2974
 230	1	6	0.101178	-53.1348	-0.138189	57.1508
 231	1	6	0.165346	-44.6979	1.09078	55.8924
 232	1	6	0.135111	-43.4083	-0.232197	54.195
 233	1	6	0.171751	-47.131	-1.84128	52.6191
 234	1	5	-0.478239	-49.6097	-0.932283	53.9384
 235	1	5	-0.481107	-47.384	1.79985	56.939
 236	1	5	-0.49957	-43.3245	-1.43071	51.8431
 237	1	6	0.151248	-49.5479	3.11284	56.0323
 238	1	6	0.146138	-51.694	3.93451	56.869
 239	1	7	0.044043	-53.9822	2.44509	57.5783
 240	1	7	-0.215975	-55.1419	1.82723	56.7497
 241	1	8	0.063789	-55.2155	0.74344	56.8988
 242	1	8	0.072206	-54.9992	2.01228	55.6776
 243	1	8	0.045489	-56.1056	2.26645	57.0392
 244	1	7	0.005306	-54.1441	2.10874	59.0956
 245	1	7	0.164932	-53.8207	3.39624	59.9158
 246	1	8	0.005277	-53.5217	1.25838	59.4037
 247	1	8	0.017604	-55.1848	1.8151	59.288
 248	1	3	0.008363	-54.0053	4.48444	58.8761
 249	1	7	-0.151488	-52.3605	3.37908	60.4275
 250	1	7	-0.269275	-54.7916	3.55719	61.111
 251	1	3	0.096378	-54.1048	3.96226	57.5935
 252	1	8	0.063418	-54.7184	2.69967	61.7918
 253	1	8	0.061085	-55.8307	3.62974	60.7648
 254	1	8	0.065045	-54.5647	4.46411	61.685
 255	1	3	-0.142025	-54.0608	5.86987	59.0903
 256	1	3	-0.448546	-54.2714	4.80544	56.4823
 257	1	3	0.277842	-54.3394	6.20531	56.6638
 258	1	3	-0.409063	-54.2295	6.72054	57.9794
 259	1	6	0.203923	-54.3517	4.37467	55.4876
 260	1	8	0.016419	-51.6501	3.25993	59.6004
 261	1	8	0.049665	-52.2015	2.55185	61.1307
 262	1	8	0.035794	-52.117	4.3151	60.9458
 263	1	6	0.161583	-53.9668	6.27628	60.0951
 264	1	6	0.199011	-54.2594	7.7971	58.1375
 265	1	1	0.463181	-33.0878	1.04565	35.7379
 266	1	2	0.074399	-32.8854	-0.26252	36.1776
 267	1	3	0.034296	-34.0159	-0.539209	37.103
 268	1	2	0.051625	-34.2243	1.63296	36.2928
 269	1	3	0.019035	-34.8041	0.593009	37.1778
 270	1	5	-0.389616	-31.9909	-1.03529	35.8743
 271	1	5	-0.380104	-34.6716	2.75281	36.1065
 272	1	3	-0.045097	-34.3346	-1.70019	37.8186
 273	1	3	-0.056032	-35.934	0.645451	37.9991
 274	1	3	-0.174781	-36.2687	-0.508786	38.7367
 275	1	3	-0.129342	-35.498	-1.69946	38.6267
 276	1	6	0.168842	-33.7004	-2.58221	37.7386
 277	1	6	0.15893	-36.5253	1.55653	38.0644
 278	1	6	0.147704	-37.1289	-0.470074	39.4021
 279	1	2	0.584577	-35.8553	-2.95586	39.3867
 280	1	3	-0.046755	-37.2993	-3.29191	39.6881
 281	1	3	-0.110868	-37.5892	-4.18996	40.7449
 282	1	3	-0.046132	-38.9278	-4.52086	40.9984
 283	1	3	-0.135873	-38.3679	-2.79126	38.8937
 284	1	3	-0.117662	-39.7077	-3.12634	39.1754
 285	1	3	-0.064457	-39.9554	-3.9934	40.2449
 286	1	2	0.492569	-41.2345	-4.56994	40.7327
 287	1	1	-0.072087	-40.8907	-5.4522	41.7519
 288	1	2	0.477555	-39.5183	-5.46477	41.9858
 289	1	3	0.042617	-41.8263	-6.29331	42.424
 290	1	3	-0.20367	-42.8333	-6.95571	41.6993
 291	1	3	-0.057018	-43.7452	-7.80191	42.3487
 292	1	3	-0.18182	-41.7453	-6.50729	43.812
 293	1	3	-0.14326	-42.6516	-7.36424	44.4611
 294	1	3	0.043342	-43.6786	-8.01411	43.7407
 295	1	6	0.163244	-42.9143	-6.82099	40.6239
 296	1	6	0.101178	-44.498	-8.30992	41.7544
 297	1	6	0.165346	-40.5281	-2.7506	38.5662
 298	1	6	0.135111	-38.1654	-2.15975	38.0327
 299	1	6	0.171751	-36.7929	-4.63275	41.3428
 300	1	5	-0.478239	-38.8938	-6.14009	42.7856
 301	1	5	-0.481107	-42.3391	-4.33101	40.2745
 302	1	5	-0.49957	-34.9681	-3.72006	39.7298
 303	1	6	0.151248	-40.9651	-6.02334	44.3951
 304	1	6	0.146138	-42.5315	-7.52177	45.5288
 305	1	7	0.044043	-44.6663	-8.99573	44.4046
 306	1	7	-0.215975	-46.1369	-8.67277	44.021
 307	1	8	0.063789	-46.3231	-8.81105	42.9495
 308	1	8	0.072206	-46.3858	-7.63485	44.276
 309	1	8	0.045489	-46.833	-9.3272	44.5618
 310	1	7	0.005306	-44.2986	-10.4617	44.0004
 311	1	7	0.164932	-44.1329	-11.3223	45.2929
 312	1	8	0.005277	-43.3604	-10.4674	43.4292
 313	1	8	0.017604	-45.0565	-10.8909	43.3317
 314	1	3	0.008363	-44.2769	-10.302	46.4029
 315	1	7	-0.151488	-42.7428	-12.0016	45.3354
 316	1	7	-0.269275	-45.2451	-12.3942	45.3892
 317	1	3	0.096378	-44.5721	-9.03433	45.9222
 318	1	8	0.063418	-46.2391	-11.9287	45.3721
 319	1	8	0.061085	-45.1589	-12.9686	46.32
 320	1	8	0.065045	-45.1842	-13.099	44.5502
 321	1	3	-0.142025	-44.1679	-10.5375	47.7811
 322	1	3	-0.448546	-44.7959	-7.96335	46.8048
 323	1	3	0.277842	-44.6816	-8.16488	48.199
 324	1	3	-0.409063	-44.3624	-9.46247	48.669
 325	1	6	0.203923	-45.0298	-6.97884	46.4069
 326	1	8	0.016419	-42.6118	-12.6804	44.483
 327	1	8	0.049665	-42.6171	-12.5862	46.2552
 328	1	8	0.035794	-41.9407	-11.2528	45.3004
 329	1	6	0.161583	-43.9442	-11.535	48.1533
 330	1	6	0.199011	-44.2846	-9.64174	49.7397
 331	1	1	0.463181	-18.2876	-11.0904	31.243
 332	1	2	0.074399	-18.5126	-10.055	30.3292
 333	1	3	0.034296	-19.5639	-9.20657	30.9441
 334	1	2	0.051625	-19.097	-10.9762	32.379
 335	1	3	0.019035	-19.9153	-9.75766	32.1592
 336	1	5	-0.389616	-17.9976	-9.8672	29.2386
 337	1	5	-0.380104	-19.1393	-11.6903	33.368
 338	1	3	-0.045097	-20.1736	-8.04228	30.4626
 339	1	3	-0.056032	-20.9114	-9.18793	32.9589
 340	1	3	-0.174781	-21.5413	-8.01385	32.495
 341	1	3	-0.129342	-21.1647	-7.41998	31.2585
 342	1	6	0.168842	-19.8823	-7.63286	29.4961
 343	1	6	0.15893	-21.1926	-9.65188	33.9021
 344	1	6	0.147704	-22.3396	-7.57863	33.0932
 345	1	2	0.584577	-21.8372	-6.17355	30.7362
 346	1	3	-0.046755	-22.391	-5.1497	31.697
 347	1	3	-0.110868	-23.4906	-4.35215	31.2975
 348	1	3	-0.046132	-23.9728	-3.38263	32.1877
 349	1	3	-0.135873	-21.7892	-4.92453	32.9651
 350	1	3	-0.117662	-22.2873	-3.94041	33.8428
 351	1	3	-0.064457	-23.3872	-3.18409	33.4222
 352	1	2	0.492569	-24.0923	-2.06337	34.0957
 353	1	1	-0.072087	-25.0739	-1.64702	33.2064
 354	1	2	0.477555	-25.0801	-2.39857	32.0381
 355	1	3	0.042617	-25.9404	-0.548953	33.4559
 356	1	3	-0.20367	-25.4058	0.697743	33.8196
 357	1	3	-0.057018	-26.2533	1.78179	34.0937
 358	1	3	-0.18182	-27.335	-0.692023	33.3589
 359	1	3	-0.14326	-28.185	0.392264	33.6411
 360	1	3	0.043342	-27.6549	1.64702	34.019
 361	1	6	0.163244	-24.3298	0.826513	33.9036
 362	1	6	0.101178	-25.8122	2.73439	34.3712
 363	1	6	0.165346	-21.825	-3.75345	34.8107
 364	1	6	0.135111	-20.9122	-5.49429	33.2635
 365	1	6	0.171751	-23.9507	-4.47694	30.3177
 366	1	5	-0.478239	-25.8153	-2.28255	31.0731
 367	1	5	-0.481107	-23.8206	-1.60083	35.1905
 368	1	5	-0.49957	-21.9215	-5.99058	29.533
 369	1	6	0.151248	-27.7648	-1.64761	33.0677
 370	1	6	0.146138	-29.2574	0.239596	33.5599
 371	1	7	0.044043	-28.5452	2.86276	34.3439
 372	1	7	-0.215975	-28.2361	3.40071	35.7677
 373	1	8	0.063789	-27.225	3.82076	35.8304
 374	1	8	0.072206	-28.3132	2.59878	36.5127
 375	1	8	0.045489	-28.9424	4.1922	36.0501
 376	1	7	0.005306	-28.3545	3.98435	33.2722
 377	1	7	0.164932	-29.5012	3.84684	32.225
 378	1	8	0.005277	-27.363	3.95942	32.8019
 379	1	8	0.017604	-28.4393	4.96296	33.7639
 380	1	3	0.008363	-30.5552	3.10747	33.026
 381	1	7	-0.151488	-29.0503	3.00214	31.0091
 382	1	7	-0.269275	-29.989	5.23529	31.7442
 383	1	3	0.096378	-30.032	2.571	34.1963
 384	1	8	0.063418	-30.7939	5.13678	31.0054
 385	1	8	0.061085	-29.1697	5.79603	31.2765
 386	1	8	0.065045	-30.3733	5.82904	32.5835
 387	1	3	-0.142025	-31.9135	2.95295	32.711
 388	1	3	-0.448546	-30.8512	1.87185	35.0992
 389	1	3	0.277842	-32.2267	1.71757	34.8177
 390	1	3	-0.409063	-32.7419	2.25986	33.6154
 391	1	6	0.203923	-30.4247	1.45329	36.0068
 392	1	8	0.016419	-29.8798	2.85613	30.3057
 393	1	8	0.049665	-28.6976	2.01126	31.3196
 394	1	8	0.035794	-28.2327	3.49719	30.47
 395	1	6	0.161583	-32.3182	3.37658	31.7943
 396	1	6	0.199011	-33.8026	2.16063	33.3944
 397	1	1	0.463181	-0.0705682	-8.27969	33.2028
 398	1	2	0.074399	-1.41679	-8.63739	33.112
 399	1	3	0.034296	-2.16388	-7.35883	33.1715
 400	1	2	0.051625	0.112224	-6.89779	33.2943
 401	1	3	0.019035	-1.25835	-6.32286	33.2787
 402	1	5	-0.389616	-1.91203	-9.75159	33.054
 403	1	5	-0.380104	1.15519	-6.27178	33.3903
 404	1	3	-0.045097	-3.54353	-7.13588	33.1452
 405	1	3	-0.056032	-1.68457	-4.99312	33.3618
 406	1	3	-0.174781	-3.07371	-4.74281	33.3438
 407	1	3	-0.129342	-4.01545	-5.80355	33.2478
 408	1	6	0.168842	-4.21005	-7.98716	33.0314
 409	1	6	0.15893	-0.96113	-4.18398	33.4373
 410	1	6	0.147704	-3.42689	-3.71357	33.3993
 411	1	2	0.584577	-5.49395	-5.49241	33.1921
 412	1	3	-0.046755	-6.48437	-6.62042	33.2988
 413	1	3	-0.110868	-7.46832	-6.76308	32.295
 414	1	3	-0.046132	-8.34323	-7.85371	32.3737
 415	1	3	-0.135873	-6.43696	-7.54388	34.3773
 416	1	3	-0.117662	-7.33792	-8.62773	34.4428
 417	1	3	-0.064457	-8.27916	-8.75982	33.4133
 418	1	2	0.492569	-9.31114	-9.80499	33.1781
 419	1	1	-0.072087	-9.92765	-9.46538	31.9788
 420	1	2	0.477555	-9.40993	-8.29472	31.4375
 421	1	3	0.042617	-10.9294	-10.2573	31.3497
 422	1	3	-0.20367	-10.8177	-10.5944	29.9899
 423	1	3	-0.057018	-11.777	-11.4153	29.376
 424	1	3	-0.18182	-12.022	-10.7514	32.0832
 425	1	3	-0.14326	-12.9816	-11.5748	31.4695
 426	1	3	0.043342	-12.8793	-11.9134	30.1023
 427	1	6	0.163244	-9.97763	-10.2307	29.4037
 428	1	6	0.101178	-11.6382	-11.6784	28.333
 429	1	6	0.165346	-7.30194	-9.35055	35.2567
 430	1	6	0.135111	-5.69581	-7.42159	35.1649
 431	1	6	0.171751	-7.52975	-6.06271	31.4628
 432	1	5	-0.478239	-9.70682	-7.7522	30.3871
 433	1	5	-0.481107	-9.52201	-10.7736	33.8875
 434	1	5	-0.49957	-5.88335	-4.362	32.9512
 435	1	6	0.151248	-12.1153	-10.5205	33.1417
 436	1	6	0.146138	-13.7927	-11.9681	32.0762
 437	1	7	0.044043	-13.8741	-12.8929	29.4478
 438	1	7	-0.215975	-14.173	-12.5484	27.9617
 439	1	8	0.063789	-13.2972	-12.6937	27.3187
 440	1	8	0.072206	-14.504	-11.5064	27.8619
 441	1	8	0.045489	-14.9725	-13.1895	27.5678
 442	1	7	0.005306	-13.3266	-14.3511	29.5756
 443	1	7	0.164932	-14.4373	-15.2573	30.1954
 444	1	8	0.005277	-12.4398	-14.3569	30.224
 445	1	8	0.017604	-12.9884	-14.7378	28.6052
 446	1	3	0.008363	-15.519	-14.2636	30.5684
 447	1	7	-0.151488	-13.9103	-16.0059	31.4436
 448	1	7	-0.269275	-14.9626	-16.275	29.1549
 449	1	3	0.096378	-15.2054	-12.9706	30.1777
 450	1	8	0.063418	-15.3476	-15.7605	28.265
 451	1	8	0.061085	-15.777	-16.8798	29.5728
 452	1	8	0.065045	-14.1644	-16.9569	28.8355
 453	1	3	-0.142025	-16.7393	-14.5404	31.201
 454	1	3	-0.448546	-16.0975	-11.91	30.4071
 455	1	3	0.277842	-17.3439	-12.1534	31.0315
 456	1	3	-0.409063	-17.6438	-13.4835	31.4222
 457	1	6	0.203923	-15.8309	-10.9114	30.07
 458	1	8	0.016419	-13.5659	-15.2974	32.2083
 459	1	8	0.049665	-13.0679	-16.6586	31.1816
 460	1	8	0.035794	-14.6946	-16.629	31.8911
 461	1	6	0.161583	-16.985	-15.5571	31.5005
 462	1	6	0.199011	-18.5939	-13.7024	31.9055
 463	1	1	0.463181	12.7005	-9.61716	18.0653
 464	1	2	0.074399	12.8668	-10.656	18.9838
 465	1	3	0.034296	11.5464	-10.791	19.653
 466	1	2	0.051625	11.3884	-9.14957	18.0087
 467	1	3	0.019035	10.6693	-9.89881	19.0688
 468	1	5	-0.389616	13.8944	-11.241	19.2897
 469	1	5	-0.380104	10.9488	-8.20307	17.3771
 470	1	3	-0.045097	11.1948	-11.5175	20.7974
 471	1	3	-0.056032	9.39202	-9.68369	19.5929
 472	1	3	-0.174781	9.02199	-10.3922	20.7548
 473	1	3	-0.129342	9.91122	-11.32	21.3681
 474	1	6	0.168842	11.9312	-12.1664	21.2699
 475	1	6	0.15893	8.73777	-8.93542	19.1498
 476	1	6	0.147704	8.06179	-10.1577	21.2048
 477	1	2	0.584577	9.60163	-12.0006	22.6866
 478	1	3	-0.046755	8.21393	-11.977	23.285
 479	1	3	-0.110868	8.08687	-11.864	24.6906
 480	1	3	-0.046132	6.80388	-11.8703	25.2533
 481	1	3	-0.135873	7.04428	-12.1379	22.4935
 482	1	3	-0.117662	5.76061	-12.1434	23.0814
 483	1	3	-0.064457	5.67286	-12.0034	24.4729
 484	1	2	0.492569	4.48943	-12.0348	25.377
 485	1	1	-0.072087	4.99797	-11.9242	26.664
 486	1	2	0.477555	6.38007	-11.8052	26.6777
 487	1	3	0.042617	4.21809	-12.0302	27.8452
 488	1	3	-0.20367	3.59747	-13.2478	28.1633
 489	1	3	-0.057018	2.92345	-13.402	29.3852
 490	1	3	-0.18182	4.12692	-10.9578	28.7484
 491	1	3	-0.14326	3.436	-11.107	29.965
 492	1	3	0.043342	2.83785	-12.3401	30.3108
 493	1	6	0.163244	3.66471	-14.0887	27.4782
 494	1	6	0.101178	2.49406	-14.3699	29.623
 495	1	6	0.165346	4.86195	-12.2765	22.4809
 496	1	6	0.135111	7.12985	-12.2854	21.419
 497	1	6	0.171751	8.9654	-11.7852	25.3305
 498	1	5	-0.478239	7.116	-11.7153	27.6448
 499	1	5	-0.481107	3.32866	-12.1861	25.0386
 500	1	5	-0.49957	10.5131	-12.5002	23.3265
 501	1	6	0.151248	4.62095	-10.016	28.5234
 502	1	6	0.146138	3.41142	-10.2661	30.6523
 503	1	7	0.044043	2.18244	-12.5816	31.687
 504	1	7	-0.215975	0.806647	-13.2914	31.5481
 505	1	8	0.063789	0.160346	-12.7584	30.8393
 506	1	8	0.072206	0.286336	-13.3248	32.5146
 507	1	8	0.045489	0.914175	-14.3252	31.1988
 508	1	7	0.005306	3.14738	-13.416	32.5906
 509	1	7	0.164932	3.8885	-12.4348	33.5515
 510	1	8	0.005277	3.84982	-14.0225	32.0038
 511	1	8	0.017604	2.55559	-14.1221	33.1885
 512	1	3	0.008363	2.9645	-11.233	33.5364
 513	1	7	-0.151488	5.28546	-12.0523	33.0065
 514	1	7	-0.269275	4.03538	-13.0476	34.9662
 515	1	3	0.096378	2.02717	-11.3122	32.5136
 516	1	8	0.063418	4.55191	-12.3579	35.645
 517	1	8	0.061085	4.61497	-13.9788	34.9282
 518	1	8	0.065045	3.0534	-13.2753	35.4004
 519	1	3	-0.142025	2.96366	-10.1488	34.4267
 520	1	3	-0.448546	1.03875	-10.325	32.3651
 521	1	3	0.277842	0.988732	-9.23938	33.2691
 522	1	3	-0.409063	1.97092	-9.1594	34.2864
 523	1	6	0.203923	0.288248	-10.4274	31.5858
 524	1	8	0.016419	5.93739	-12.9329	32.9452
 525	1	8	0.049665	5.77068	-11.3172	33.6608
 526	1	8	0.035794	5.21897	-11.6131	32.0048
 527	1	6	0.161583	3.70279	-10.0883	35.2228
 528	1	6	0.199011	1.95439	-8.32436	34.9846
 529	1	1	0.463181	11.584	7.82544	11.974
 530	1	2	0.074399	10.5088	7.15206	11.3864
 531	1	3	0.034296	10.3806	5.88272	12.1419
 532	1	2	0.051625	12.1445	7.10587	13.0352
 533	1	3	0.019035	11.3589	5.8456	13.114
 534	1	5	-0.389616	9.83975	7.4721	10.4162
 535	1	5	-0.380104	13.0762	7.41442	13.7605
 536	1	3	-0.045097	9.4688	4.83612	11.9764
 537	1	3	-0.056032	11.4904	4.74602	13.9712
 538	1	3	-0.174781	10.5895	3.66847	13.8145
 539	1	3	-0.129342	9.5787	3.70217	12.8145
 540	1	6	0.168842	8.69236	4.90654	11.216
 541	1	6	0.15893	12.2627	4.73713	14.7376
 542	1	6	0.147704	10.66	2.82253	14.4956
 543	1	2	0.584577	8.55627	2.6041	12.6603
 544	1	3	-0.046755	8.89835	1.16925	12.9787
 545	1	3	-0.110868	10.208	0.653301	12.8041
 546	1	3	-0.046132	10.4214	-0.712556	13.045
 547	1	3	-0.135873	7.8546	0.299355	13.3903
 548	1	3	-0.117662	8.09447	-1.06425	13.6426
 549	1	3	-0.064457	9.39206	-1.544	13.4443
 550	1	2	0.492569	9.93436	-2.91397	13.6182
 551	1	1	-0.072087	11.2874	-2.81091	13.3384
 552	1	2	0.477555	11.6661	-1.52874	12.9644
 553	1	3	0.042617	12.1887	-3.88446	13.5238
 554	1	3	-0.20367	12.8678	-4.44905	12.4352
 555	1	3	-0.057018	13.7258	-5.54343	12.633
 556	1	3	-0.18182	12.3852	-4.41037	14.8092
 557	1	3	-0.14326	13.2485	-5.49722	15.007
 558	1	3	0.043342	13.9284	-6.08911	13.9184
 559	1	6	0.163244	12.7369	-4.03811	11.4369
 560	1	6	0.101178	14.2541	-5.95037	11.7766
 561	1	6	0.165346	7.30026	-1.73069	13.9738
 562	1	6	0.135111	6.84606	0.689954	13.5141
 563	1	6	0.171751	11.0319	1.2758	12.4607
 564	1	5	-0.478239	12.7941	-1.11121	12.76
 565	1	5	-0.481107	9.31531	-3.89004	14.0068
 566	1	5	-0.49957	7.44159	2.88027	12.2477
 567	1	6	0.151248	11.8523	-3.98832	15.6577
 568	1	6	0.146138	13.3679	-5.87323	16.0187
 569	1	7	0.044043	14.8975	-7.27276	14.1107
 570	1	7	-0.215975	14.6435	-8.39312	13.0656
 571	1	8	0.063789	14.8971	-8.06621	12.0502
 572	1	8	0.072206	13.5895	-8.69813	13.0718
 573	1	8	0.045489	15.2539	-9.27581	13.2852
 574	1	7	0.005306	16.378	-6.77198	14.055
 575	1	7	0.164932	16.8992	-6.617	15.519
 576	1	8	0.005277	16.4785	-5.83888	13.4859
 577	1	8	0.017604	16.9898	-7.51898	13.5319
 578	1	3	0.008363	15.8955	-7.44491	16.2974
 579	1	7	-0.151488	16.856	-5.14315	15.9885
 580	1	7	-0.269275	18.3458	-7.15282	15.6605
 581	1	3	0.096378	14.8178	-7.84416	15.5169
 582	1	8	0.063418	18.6812	-7.11155	16.7051
 583	1	8	0.061085	19.0445	-6.55416	15.0629
 584	1	8	0.065045	18.4259	-8.1937	15.3277
 585	1	3	-0.142025	15.9408	-7.7594	17.6608
 586	1	3	-0.448546	13.7616	-8.59479	16.0656
 587	1	3	0.277842	13.7935	-8.94427	17.4349
 588	1	3	-0.409063	14.8931	-8.51557	18.217
 589	1	6	0.203923	12.8917	-8.83469	15.4562
 590	1	8	0.016419	17.1777	-5.05839	17.0342
 591	1	8	0.049665	15.8422	-4.73431	15.917
 592	1	8	0.035794	17.5233	-4.51975	15.38
 593	1	6	0.161583	16.7791	-7.4293	18.2727
 594	1	6	0.199011	14.9314	-8.76192	19.2766
 595	1	1	0.463181	1.11421	10.4651	-3.05204
 596	1	2	0.074399	2.15616	10.6218	-2.13415
 597	1	3	0.034296	1.69939	9.94996	-0.897849
 598	1	2	0.051625	0.0585109	9.71149	-2.53766
 599	1	3	0.019035	0.453593	9.40294	-1.1328
 600	1	5	-0.389616	3.21678	11.2108	-2.26968
 601	1	5	-0.380104	-0.993564	9.41463	-3.07813
 602	1	3	-0.045097	2.31373	9.90252	0.359025
 603	1	3	-0.056032	-0.25033	8.76026	-0.10844
 604	1	3	-0.174781	0.356422	8.68445	1.1652
 605	1	3	-0.129342	1.64168	9.24213	1.41578
 606	1	6	0.168842	3.26394	10.4114	0.500845
 607	1	6	0.15893	-1.24513	8.35743	-0.287782
 608	1	6	0.147704	-0.189042	8.20895	1.97981
 609	1	2	0.584577	2.20487	9.21042	2.823
 610	1	3	-0.046755	3.6753	9.45158	3.0947
 611	1	3	-0.110868	4.03898	10.0712	4.31397
 612	1	3	-0.046132	5.39675	10.2761	4.58984
 613	1	3	-0.135873	4.70199	9.01956	2.20913
 614	1	3	-0.117662	6.06653	9.23772	2.50771
 615	1	3	-0.064457	6.3849	9.87796	3.71393
 616	1	2	0.492569	7.7042	10.2189	4.32257
 617	1	1	-0.072087	7.41519	10.8113	5.54688
 618	1	2	0.477555	6.04696	10.8826	5.77943
 619	1	3	0.042617	8.38402	11.2539	6.4937
 620	1	3	-0.20367	9.40062	10.3937	6.94414
 621	1	3	-0.057018	10.2447	10.7768	8.00316
 622	1	3	-0.18182	8.27613	12.5314	7.06951
 623	1	3	-0.14326	9.12058	12.9155	8.12451
 624	1	3	0.043342	10.086	12.0277	8.64387
 625	1	6	0.163244	9.51117	9.40496	6.50611
 626	1	6	0.101178	10.9919	10.0666	8.34401
 627	1	6	0.165346	6.85546	8.90392	1.83501
 628	1	6	0.135111	4.44758	8.48722	1.29593
 629	1	6	0.171751	3.28338	10.3799	5.03573
 630	1	5	-0.478239	5.46928	11.3419	6.7495
 631	1	5	-0.481107	8.79868	10.0004	3.83301
 632	1	5	-0.49957	1.44513	9.05073	3.76519
 633	1	6	0.151248	7.49547	13.2108	6.73714
 634	1	6	0.146138	8.98411	13.8948	8.572
 635	1	7	0.044043	10.8762	12.4184	9.91414
 636	1	7	-0.215975	9.91451	12.9335	11.0219
 637	1	8	0.063789	9.09728	12.2205	11.1908
 638	1	8	0.072206	9.46952	13.9006	10.7603
 639	1	8	0.045489	10.4473	13.064	11.9729
 640	1	7	0.005306	11.9757	13.4862	9.60547
 641	1	7	0.164932	13.3764	12.799	9.68735
 642	1	8	0.005277	11.9223	14.2932	10.3488
 643	1	8	0.017604	11.8152	13.9617	8.62902
 644	1	3	0.008363	13.0604	11.4794	10.3617
 645	1	7	-0.151488	14.3714	13.6442	10.5199
 646	1	7	-0.269275	13.9506	12.5535	8.27211
 647	1	3	0.096378	11.695	11.2689	10.4793
 648	1	8	0.063418	13.2548	11.9607	7.66429
 649	1	8	0.061085	14.9014	12.0083	8.32428
 650	1	8	0.065045	14.1326	13.5026	7.75238