pySIMM System Object

1190 atoms
1315 bonds
2322 angles
3722 dihedrals
378 impropers

8 atom types
10 bond types
17 angle types
9 dihedral types
4 improper types

-157.419242 157.419242 xlo xhi
-157.419242 157.419242 ylo yhi
-157.419242 157.419242 zlo zhi

Masses

   1	14.01	# n
   2	12.01	# c
   3	12.01	# ca
   4	1.008	# hn
   5	16.0	# o
   6	1.008	# ha
   7	12.01	# c3
   8	1.008	# hc

Pair Coeffs

   1	0.17	3.249998523775958	# n
   2	0.086	3.3996695084235347	# c
   3	0.086	3.3996695084235347	# ca
   4	0.0157	1.069078461768407	# hn
   5	0.21	2.959921901149463	# o
   6	0.015	2.59964245953351	# ha
   7	0.1094	3.3996695084235347	# c3
   8	0.0157	2.649532787749369	# hc

Bond Coeffs

   1	461.1	1.3984	# ca,ca
   2	427.6	1.3789	# c,n
   3	345.9	1.4906	# c,ca
   4	300.9	1.5375	# c3,c3
   5	345.8	1.086	# ca,ha
   6	384.2	1.4121	# ca,n
   7	637.7	1.2183	# c,o
   8	321.0	1.5156	# c3,ca
   9	330.6	1.0969	# c3,hc
  10	403.2	1.0129	# hn,n

Angle Coeffs

   1	68.72	122.6	# ca,c,o
   2	62.86	111.51	# c3,c3,c3
   3	63.82	123.71	# c,n,ca
   4	67.87	120.19	# ca,ca,n
   5	67.68	115.25	# ca,c,n
   6	63.0	118.11	# ca,c,ca
   7	63.56	112.24	# ca,c3,ca
   8	63.15	112.07	# c3,c3,ca
   9	46.34	109.8	# c3,c3,hc
  10	74.22	123.05	# n,c,o
  11	48.33	117.55	# c,n,hn
  12	64.28	120.33	# c,ca,ca
  13	39.4	107.58	# hc,c3,hc
  14	66.62	120.02	# ca,ca,ca
  15	63.53	120.77	# c3,ca,ca
  16	63.74	127.08	# c,n,c
  17	48.18	119.88	# ca,ca,ha

Dihedral Coeffs

   1	1	2.5	2	180	# X,c,n,X
   2	1	0.45	2	180	# X,ca,n,X
   3	3	0.18	3	0	0.25	2	180	0.2	1	180	# c3,c3,c3,c3
   4	2	2.5	2	180	2.0	1	0	# hn,n,c,o
   5	1	3.625	2	180	# X,ca,ca,X
   6	1	0.16	3	0	# hc,c3,c3,c3
   7	1	1.0	2	180	# X,c,ca,X
   8	1	0.15555555555555556	3	0	# X,c3,c3,X
   9	1	0.0	2	0	# X,c3,ca,X

Improper Coeffs

   1	10.5	-1	2	# c,X,X,o
   2	1.1	-1	2	# ca,X,X,ha
   3	1.1	-1	2	# ca,ca,ca,c3
   4	1.1	-1	2	# n,X,X,hn

Atoms

   1	1	1	0.463181	30.6534	-46.6964	9.42672
   2	1	2	0.074399	29.4388	-46.7968	10.1004
   3	1	3	0.034296	28.4879	-45.9907	9.29947
   4	1	2	0.051625	30.5814	-45.8952	8.28718
   5	1	3	0.019035	29.1596	-45.4616	8.21287
   6	1	5	-0.389616	29.1795	-47.4217	11.1163
   7	1	5	-0.380104	31.471	-45.618	7.4988
   8	1	3	-0.045097	27.1267	-45.7564	9.51088
   9	1	3	-0.056032	28.4949	-44.6859	7.25428
  10	1	3	-0.174781	27.1131	-44.4551	7.43317
  11	1	3	-0.129342	26.4315	-44.9705	8.56491
  12	1	6	0.168842	26.6272	-46.1866	10.377
  13	1	6	0.15893	29.0336	-44.28	6.40033
  14	1	6	0.147704	26.5679	-43.8596	6.70203
  15	1	2	0.584577	24.9774	-44.6717	8.78597
  16	1	3	-0.046755	24.5992	-44.0256	10.0934
  17	1	3	-0.110868	25.5358	-43.2189	10.7871
  18	1	3	-0.046132	25.1302	-42.5973	11.974
  19	1	3	-0.135873	23.288	-44.181	10.6122
  20	1	3	-0.117662	22.9057	-43.5581	11.818
  21	1	3	-0.064457	23.856	-42.7677	12.476
  22	1	2	0.492569	23.731	-41.943	13.7037
  23	1	1	-0.072087	24.9504	-41.2898	13.8482
  24	1	2	0.477555	25.8576	-41.6463	12.8585
  25	1	3	0.042617	25.2046	-40.3269	14.8635
  26	1	3	-0.20367	26.3691	-40.3818	15.6505
  27	1	3	-0.057018	26.5641	-39.4654	16.701
  28	1	3	-0.18182	24.2652	-39.3129	15.1093
  29	1	3	-0.14326	24.4629	-38.3958	16.1501
  30	1	3	0.043342	25.5967	-38.4763	16.9863
  31	1	6	0.163244	27.1172	-41.1483	15.4629
  32	1	6	0.101178	27.4635	-39.55	17.3022
  33	1	6	0.165346	21.8983	-43.6631	12.2177
  34	1	6	0.135111	22.5622	-44.7839	10.0691
  35	1	6	0.171751	26.5374	-43.0394	10.4004
  36	1	5	-0.478239	26.9954	-41.2392	12.6942
  37	1	5	-0.481107	22.7362	-41.8503	14.402
  38	1	5	-0.49957	24.1444	-44.9373	7.93583
  39	1	6	0.151248	23.3579	-39.2514	14.5132
  40	1	6	0.146138	23.7033	-37.6387	16.3278
  41	1	7	0.044043	25.7193	-37.5073	18.1812
  42	1	7	-0.215975	26.704	-37.9854	19.2825
  43	1	8	0.063789	26.446	-38.9944	19.6286
  44	1	8	0.072206	26.6661	-37.3173	20.1531
  45	1	8	0.045489	27.7396	-37.9953	18.9209
  46	1	7	0.005306	26.0961	-36.0699	17.6984
  47	1	7	0.164932	25.0553	-35.0554	18.2707
  48	1	8	0.005277	26.074	-36.0343	16.6024
  49	1	8	0.017604	27.1193	-35.8001	17.9906
  50	1	3	0.008363	23.9727	-35.9586	18.8234
  51	1	7	-0.151488	24.5172	-34.1285	17.1542
  52	1	7	-0.269275	25.6664	-34.21	19.4127
  53	1	3	0.096378	24.353	-37.2945	18.8112
  54	1	8	0.063418	26.0435	-34.8538	20.2172
  55	1	8	0.061085	24.9156	-33.5382	19.8468
  56	1	8	0.065045	26.5005	-33.5979	19.0473
  57	1	3	-0.142025	22.7114	-35.5745	19.3077
  58	1	3	-0.448546	23.4842	-38.2952	19.2781
  59	1	3	0.277842	22.2181	-37.93	19.7598
  60	1	3	-0.409063	21.8351	-36.5758	19.7721
  61	1	6	0.203923	23.7746	-39.3398	19.2463
  62	1	8	0.016419	24.0327	-34.7116	16.3604
  63	1	8	0.049665	25.3335	-33.5517	16.7009
  64	1	8	0.035794	23.78	-33.4188	17.549
  65	1	6	0.161583	22.4187	-34.5269	19.3169
  66	1	6	0.199011	20.8502	-36.3103	20.1448
  67	1	1	0.463181	29.8318	-36.1106	13.9848
  68	1	2	0.074399	29.9981	-35.9497	15.3671
  69	1	3	0.034296	31.3703	-36.4432	15.6583
  70	1	2	0.051625	31.0015	-36.5649	13.3635
  71	1	3	0.019035	31.9659	-36.7899	14.4616
  72	1	5	-0.389616	29.1828	-35.5928	16.2026
  73	1	5	-0.380104	31.1783	-36.906	12.2049
  74	1	3	-0.045097	31.9747	-36.7428	16.8882
  75	1	3	-0.056032	33.2171	-37.4072	14.4093
  76	1	3	-0.174781	33.8415	-37.7227	15.6299
  77	1	3	-0.129342	33.2072	-37.4371	16.8699
  78	1	6	0.168842	31.4541	-36.5374	17.8223
  79	1	6	0.15893	33.6485	-37.6949	13.453
  80	1	6	0.147704	34.7924	-38.2527	15.6122
  81	1	2	0.584577	33.7664	-38.0148	18.1442
  82	1	3	-0.046755	34.2317	-39.4476	18.0721
  83	1	3	-0.110868	33.5814	-40.3388	17.1869
  84	1	3	-0.046132	34.1307	-41.6063	16.9922
  85	1	3	-0.135873	35.3619	-39.8936	18.8045
  86	1	3	-0.117662	35.9013	-41.1832	18.5899
  87	1	3	-0.064457	35.272	-42.0137	17.6497
  88	1	2	0.492569	35.7024	-43.3089	17.0486
  89	1	1	-0.072087	34.7944	-43.5656	16.0242
  90	1	2	0.477555	33.7821	-42.6184	15.9697
  91	1	3	0.042617	34.9882	-44.5133	14.9816
  92	1	3	-0.20367	36.2076	-44.5475	14.285
  93	1	3	-0.057018	36.3379	-45.3168	13.1187
  94	1	3	-0.18182	33.9215	-45.3076	14.5249
  95	1	3	-0.14326	34.0527	-46.0793	13.357
  96	1	3	0.043342	35.2514	-46.0584	12.61
  97	1	6	0.163244	37.0479	-43.9445	14.6201
  98	1	6	0.101178	37.2853	-45.3038	12.5888
  99	1	6	0.165346	36.8131	-41.5044	19.0908
 100	1	6	0.135111	35.8588	-39.2102	19.4909
 101	1	6	0.171751	32.7138	-40.0378	16.6019
 102	1	5	-0.478239	32.8972	-42.5034	15.1387
 103	1	5	-0.481107	36.7413	-43.8974	17.2925
 104	1	5	-0.49957	33.7658	-37.3855	19.1874
 105	1	6	0.151248	32.9655	-45.2837	15.0429
 106	1	6	0.146138	33.1971	-46.6589	13.0223
 107	1	7	0.044043	35.3978	-46.7863	11.2586
 108	1	7	-0.215975	35.9623	-45.8271	10.1733
 109	1	8	0.063789	35.3616	-44.9109	10.1116
 110	1	8	0.072206	35.9454	-46.3048	9.18488
 111	1	8	0.045489	36.9996	-45.5385	10.3802
 112	1	7	0.005306	36.3074	-48.0483	11.4114
 113	1	7	0.164932	35.4212	-49.3258	11.2666
 114	1	8	0.005277	36.846	-48.044	12.3685
 115	1	8	0.017604	37.0797	-48.0429	10.6308
 116	1	3	0.008363	34.1136	-48.768	10.7414
 117	1	7	-0.151488	35.1996	-50.0086	12.6373
 118	1	7	-0.269275	36.0573	-50.3311	10.2758
 119	1	3	0.096378	34.0937	-47.3799	10.7472
 120	1	8	0.063418	36.1854	-49.8756	9.28522
 121	1	8	0.061085	35.429	-51.2223	10.157
 122	1	8	0.065045	37.0434	-50.6574	10.63
 123	1	3	-0.142025	33.0007	-49.4986	10.2989
 124	1	3	-0.448546	32.9648	-46.6711	10.2973
 125	1	3	0.277842	31.8298	-47.3822	9.85028
 126	1	3	-0.409063	31.8622	-48.7971	9.85811
 127	1	6	0.203923	32.9675	-45.5851	10.2988
 128	1	8	0.016419	34.7441	-49.3134	13.3542
 129	1	8	0.049665	36.1502	-50.358	13.0595
 130	1	8	0.035794	34.5346	-50.8762	12.5397
 131	1	6	0.161583	33.0183	-50.5863	10.3058
 132	1	6	0.199011	30.9888	-49.3564	9.52918
 133	1	1	0.463181	40.1925	-36.1843	12.0429
 134	1	2	0.074399	40.4823	-37.0035	10.9452
 135	1	3	0.034296	39.3198	-37.9238	10.8177
 136	1	2	0.051625	38.9599	-36.4963	12.6239
 137	1	3	0.019035	38.4194	-37.6176	11.8194
 138	1	5	-0.389616	41.4691	-36.997	10.2271
 139	1	5	-0.380104	38.3997	-35.9697	13.5722
 140	1	3	-0.045097	39.0537	-38.9293	9.87519
 141	1	3	-0.056032	37.212	-38.306	11.9579
 142	1	3	-0.174781	36.9178	-39.313	11.0185
 143	1	3	-0.129342	37.8154	-39.6117	9.95663
 144	1	6	0.168842	39.7686	-39.1439	9.08193
 145	1	6	0.15893	36.5219	-38.0497	12.758
 146	1	6	0.147704	35.9773	-39.8546	11.1077
 147	1	2	0.584577	37.4332	-40.622	8.90163
 148	1	3	-0.046755	35.9934	-40.6399	8.44847
 149	1	3	-0.110868	35.2548	-39.4344	8.43797
 150	1	3	-0.046132	33.8934	-39.4873	8.13416
 151	1	3	-0.135873	35.3527	-41.8506	8.07277
 152	1	3	-0.117662	33.9688	-41.8815	7.77779
 153	1	3	-0.064457	33.2539	-40.6744	7.84152
 154	1	2	0.492569	31.7922	-40.3857	7.72837
 155	1	1	-0.072087	31.6622	-39.0213	7.97489
 156	1	2	0.477555	32.8856	-38.4042	8.18667
 157	1	3	0.042617	30.4377	-38.3424	8.21303
 158	1	3	-0.20367	30.15	-37.1284	7.56425
 159	1	3	-0.057018	29.073	-36.3294	7.9891
 160	1	3	-0.18182	29.595	-38.7801	9.24583
 161	1	3	-0.14326	28.5184	-37.9855	9.66691
 162	1	3	0.043342	28.2669	-36.7255	9.07926
 163	1	6	0.163244	30.807	-36.7638	6.77881
 164	1	6	0.101178	28.9153	-35.3748	7.49828
 165	1	6	0.165346	33.4618	-42.8166	7.53955
 166	1	6	0.135111	35.925	-42.7768	8.05523
 167	1	6	0.171751	35.7075	-38.4798	8.70079
 168	1	5	-0.478239	33.1107	-37.2389	8.46593
 169	1	5	-0.481107	30.9035	-41.2086	7.58652
 170	1	5	-0.49957	38.2642	-41.3781	8.42874
 171	1	6	0.151248	29.8148	-39.7035	9.77603
 172	1	6	0.146138	27.9254	-38.325	10.512
 173	1	7	0.044043	27.1931	-35.8042	9.70148
 174	1	7	-0.215975	27.2877	-34.3201	9.25352
 175	1	8	0.063789	27.07	-34.2085	8.18404
 176	1	8	0.072206	28.2885	-33.9136	9.44898
 177	1	8	0.045489	26.5664	-33.7022	9.80426
 178	1	7	0.005306	25.7559	-36.3632	9.44716
 179	1	7	0.164932	25.0747	-36.6531	10.8258
 180	1	8	0.005277	25.8119	-37.2809	8.84656
 181	1	8	0.017604	25.1583	-35.657	8.85542
 182	1	3	0.008363	26.1782	-36.3605	11.8236
 183	1	7	-0.151488	24.6246	-38.1329	10.9183
 184	1	7	-0.269275	23.8625	-35.7197	11.0539
 185	1	3	0.096378	27.3189	-35.8645	11.2129
 186	1	8	0.063418	23.4157	-35.8914	12.0412
 187	1	8	0.061085	23.0875	-35.8925	10.2961
 188	1	8	0.065045	24.1637	-34.6657	10.9985
 189	1	3	-0.142025	26.1826	-36.6628	13.1928
 190	1	3	-0.448546	28.5023	-35.6636	11.9399
 191	1	3	0.277842	28.5691	-36.0399	13.3009
 192	1	3	-0.409063	27.385	-36.5231	13.9128
 193	1	6	0.203923	29.3962	-35.3482	11.4084
 194	1	8	0.016419	24.1604	-38.3471	11.8891
 195	1	8	0.049665	25.4799	-38.8104	10.7986
 196	1	8	0.035794	23.8928	-38.3682	10.1353
 197	1	6	0.161583	25.2964	-37.0757	13.6683
 198	1	6	0.199011	27.4101	-36.8551	14.947
 199	1	1	0.463181	38.37	-17.2128	4.31748
 200	1	2	0.074399	37.783	-18.413	3.90092
 201	1	3	0.034296	38.2591	-19.4437	4.86268
 202	1	2	0.051625	39.1398	-17.3811	5.47591
 203	1	3	0.019035	39.0604	-18.8267	5.79995
 204	1	5	-0.389616	37.0563	-18.6157	2.94141
 205	1	5	-0.380104	39.814	-16.5611	6.07836
 206	1	3	-0.045097	38.0665	-20.8315	4.86866
 207	1	3	-0.056032	39.7154	-19.5567	6.79705
 208	1	3	-0.174781	39.5433	-20.957	6.81748
 209	1	3	-0.129342	38.7118	-21.6092	5.86416
 210	1	6	0.168842	37.4588	-21.2964	4.09348
 211	1	6	0.15893	40.37	-19.0533	7.50568
 212	1	6	0.147704	40.1024	-21.532	7.55135
 213	1	2	0.584577	38.5799	-23.1169	5.79968
 214	1	3	-0.046755	38.9466	-23.9946	6.97524
 215	1	3	-0.110868	39.5094	-25.2694	6.72225
 216	1	3	-0.046132	39.8288	-26.0937	7.81021
 217	1	3	-0.135873	38.6877	-23.6053	8.31764
 218	1	3	-0.117662	39.0206	-24.4501	9.39886
 219	1	3	-0.064457	39.5961	-25.6947	9.11005
 220	1	2	0.492569	40.062	-26.78	10.017
 221	1	1	-0.072087	40.5717	-27.7763	9.19044
 222	1	2	0.477555	40.4516	-27.445	7.84469
 223	1	3	0.042617	41.2249	-28.9509	9.6695
 224	1	3	-0.20367	42.4738	-29.3266	9.14565
 225	1	3	-0.057018	43.1697	-30.4283	9.66856
 226	1	3	-0.18182	40.672	-29.7219	10.7085
 227	1	3	-0.14326	41.365	-30.8322	11.2265
 228	1	3	0.043342	42.6338	-31.1975	10.7234
 229	1	6	0.163244	42.9243	-28.7504	8.34155
 230	1	6	0.101178	44.1478	-30.6575	9.26005
 231	1	6	0.165346	38.8327	-24.1545	10.4298
 232	1	6	0.135111	38.2109	-22.65	8.52545
 233	1	6	0.171751	39.6981	-25.6086	5.70406
 234	1	5	-0.478239	40.8201	-28.0858	6.87545
 235	1	5	-0.481107	40.0347	-26.7511	11.2355
 236	1	5	-0.49957	38.2253	-23.6387	4.7552
 237	1	6	0.151248	39.7146	-29.4424	11.1422
 238	1	6	0.146138	40.9188	-31.3827	12.0501
 239	1	7	0.044043	43.4669	-32.3286	11.3665
 240	1	7	-0.215975	44.3071	-33.1193	10.3238
 241	1	8	0.063789	45.1247	-32.5139	9.91434
 242	1	8	0.072206	43.6814	-33.4622	9.49026
 243	1	8	0.045489	44.7632	-34.0051	10.7856
 244	1	7	0.005306	44.402	-31.7301	12.4683
 245	1	7	0.164932	43.812	-32.0814	13.8702
 246	1	8	0.005277	44.5339	-30.6467	12.345
 247	1	8	0.017604	45.4042	-32.1697	12.3767
 248	1	3	0.008363	42.8127	-33.1718	13.5356
 249	1	7	-0.151488	43.102	-30.8607	14.5037
 250	1	7	-0.269275	44.9185	-32.5881	14.8277
 251	1	3	0.096378	42.6183	-33.3063	12.1671
 252	1	8	0.063418	45.6898	-31.8212	14.9738
 253	1	8	0.061085	45.4035	-33.4867	14.4252
 254	1	8	0.065045	44.5048	-32.8415	15.8116
 255	1	3	-0.142025	42.1342	-34.0033	14.438
 256	1	3	-0.448546	41.7483	-34.2845	11.6541
 257	1	3	0.277842	41.0653	-35.1555	12.536
 258	1	3	-0.409063	41.2694	-34.9916	13.9296
 259	1	6	0.203923	41.6278	-34.3823	10.5783
 260	1	8	0.016419	42.3205	-30.4656	13.8445
 261	1	8	0.049665	43.8168	-30.0515	14.7
 262	1	8	0.035794	42.6307	-31.1329	15.4565
 263	1	6	0.161583	42.2831	-33.8902	15.5097
 264	1	6	0.199011	40.7453	-35.639	14.6298
 265	1	1	0.463181	22.2454	-13.2975	-7.18548
 266	1	2	0.074399	23.5506	-13.521	-7.6706
 267	1	3	0.034296	24.476	-13.0035	-6.6384
 268	1	2	0.051625	22.3012	-12.6747	-5.91771
 269	1	3	0.019035	23.7396	-12.4969	-5.59758
 270	1	5	-0.389616	23.937	-14.0455	-8.70149
 271	1	5	-0.380104	21.4057	-12.325	-5.16731
 272	1	3	-0.045097	25.8729	-12.9869	-6.62702
 273	1	3	-0.056032	24.3596	-11.9086	-4.48745
 274	1	3	-0.174781	25.7725	-11.8653	-4.45763
 275	1	3	-0.129342	26.5424	-12.4411	-5.5067
 276	1	6	0.168842	26.4247	-13.3899	-7.47519
 277	1	6	0.15893	23.7591	-11.4836	-3.68559
 278	1	6	0.147704	26.2611	-11.3561	-3.63024
 279	1	2	0.584577	28.0537	-12.428	-5.55481
 280	1	3	-0.046755	28.9271	-12.7828	-4.36301
 281	1	3	-0.110868	30.3212	-12.9153	-4.58989
 282	1	3	-0.046132	31.1571	-13.2681	-3.52411
 283	1	3	-0.135873	28.4261	-13.0448	-3.05555
 284	1	3	-0.117662	29.2955	-13.3486	-1.98463
 285	1	3	-0.064457	30.6662	-13.4457	-2.25262
 286	1	2	0.492569	31.8102	-13.7647	-1.35743
 287	1	1	-0.072087	32.9466	-13.8051	-2.1695
 288	1	2	0.477555	32.6204	-13.5238	-3.49812
 289	1	3	0.042617	34.2789	-14.0546	-1.69045
 290	1	3	-0.20367	35.3989	-13.482	-2.3262
 291	1	3	-0.057018	36.695	-13.6701	-1.82177
 292	1	3	-0.18182	34.5142	-14.8567	-0.553608
 293	1	3	-0.14326	35.8078	-15.0065	-0.0207611
 294	1	3	0.043342	36.918	-14.3814	-0.625004
 295	1	6	0.163244	35.2832	-12.8684	-3.21437
 296	1	6	0.101178	37.5245	-13.2216	-2.35841
 297	1	6	0.165346	28.917	-13.5289	-0.979818
 298	1	6	0.135111	27.3631	-13.0324	-2.8488
 299	1	6	0.171751	30.7502	-12.767	-5.5805
 300	1	5	-0.478239	33.3439	-13.5152	-4.47915
 301	1	5	-0.481107	31.7271	-13.9067	-0.149361
 302	1	5	-0.49957	28.5811	-12.2481	-6.64121
 303	1	6	0.151248	33.69	-15.3491	-0.0454086
 304	1	6	0.146138	35.931	-15.598	0.881891
 305	1	7	0.044043	38.3279	-14.4334	0.00474457
 306	1	7	-0.215975	39.206	-15.4597	-0.753932
 307	1	8	0.063789	39.3542	-15.1516	-1.79671
 308	1	8	0.072206	38.7284	-16.4477	-0.763142
 309	1	8	0.045489	40.1927	-15.5632	-0.284939
 310	1	7	0.005306	38.9924	-13.0156	0.0222712
 311	1	7	0.164932	38.5278	-12.2996	1.32466
 312	1	8	0.005277	38.8057	-12.4065	-0.867958
 313	1	8	0.017604	40.0818	-13.1502	0.0687718
 314	1	3	0.008363	38.3204	-13.4966	2.23166
 315	1	7	-0.151488	37.2086	-11.5141	1.1203
 316	1	7	-0.269275	39.625	-11.3376	1.84207
 317	1	3	0.096378	38.2819	-14.6878	1.51319
 318	1	8	0.063418	40.5529	-11.8805	2.06315
 319	1	8	0.061085	39.305	-10.8302	2.76044
 320	1	8	0.065045	39.8511	-10.5676	1.09343
 321	1	3	-0.142025	38.2589	-13.4989	3.63114
 322	1	3	-0.448546	38.2821	-15.9257	2.18466
 323	1	3	0.277842	38.2688	-15.9669	3.60256
 324	1	3	-0.409063	38.2168	-14.7349	4.30345
 325	1	6	0.203923	38.312	-16.8459	1.6078
 326	1	8	0.016419	37.3307	-10.7364	0.35553
 327	1	8	0.049665	36.9003	-11.0254	2.05286
 328	1	8	0.035794	36.3876	-12.1694	0.808056
 329	1	6	0.161583	38.282	-12.563	4.18518
 330	1	6	0.199011	38.2039	-14.7332	5.39152
 331	1	1	0.463181	4.55288	-7.56365	-9.87766
 332	1	2	0.074399	5.84984	-7.85489	-9.43373
 333	1	3	0.034296	6.73563	-6.87695	-10.1169
 334	1	2	0.051625	4.54016	-6.49725	-10.7863
 335	1	3	0.019035	5.95625	-6.07736	-10.9263
 336	1	5	-0.389616	6.22364	-8.72304	-8.66083
 337	1	5	-0.380104	3.59077	-5.96778	-11.3412
 338	1	3	-0.045097	8.12543	-6.71271	-10.0379
 339	1	3	-0.056032	6.51853	-5.06994	-11.7157
 340	1	3	-0.174781	7.91523	-4.88608	-11.6535
 341	1	3	-0.129342	8.7317	-5.68967	-10.812
 342	1	6	0.168842	8.70305	-7.38476	-9.40782
 343	1	6	0.15893	5.89148	-4.45829	-12.3612
 344	1	6	0.147704	8.37367	-4.11612	-12.273
 345	1	2	0.584577	10.2317	-5.48611	-10.8233
 346	1	3	-0.046755	11.0823	-6.12042	-9.75422
 347	1	3	-0.110868	12.2087	-6.88249	-10.1396
 348	1	3	-0.046132	12.9521	-7.52631	-9.14142
 349	1	3	-0.135873	10.7702	-5.97497	-8.37652
 350	1	3	-0.117662	11.5424	-6.62089	-7.38666
 351	1	3	-0.064457	12.6248	-7.40747	-7.80554
 352	1	2	0.492569	13.5163	-8.31467	-7.03021
 353	1	1	-0.072087	14.3022	-8.96912	-7.97315
 354	1	2	0.477555	14.0614	-8.50904	-9.26246
 355	1	3	0.042617	15.0896	-10.125	-7.69889
 356	1	3	-0.20367	14.5147	-11.2088	-7.01407
 357	1	3	-0.057018	15.207	-12.4231	-6.88733
 358	1	3	-0.18182	16.3917	-10.2643	-8.21315
 359	1	3	-0.14326	17.0918	-11.4789	-8.07477
 360	1	3	0.043342	16.4968	-12.5891	-7.43258
 361	1	6	0.163244	13.5078	-11.1293	-6.61309
 362	1	6	0.101178	14.71	-13.2558	-6.4003
 363	1	6	0.165346	11.2905	-6.5443	-6.3301
 364	1	6	0.135111	9.91877	-5.36819	-8.07452
 365	1	6	0.171751	12.4655	-7.01386	-11.19
 366	1	5	-0.478239	14.5417	-8.91424	-10.3067
 367	1	5	-0.481107	13.4534	-8.52258	-5.83077
 368	1	5	-0.49957	10.7669	-4.89554	-11.7468
 369	1	6	0.151248	16.8446	-9.44601	-8.7678
 370	1	6	0.146138	18.0781	-11.5615	-8.52256
 371	1	7	0.044043	17.1547	-13.9863	-7.40341
 372	1	7	-0.215975	17.1296	-14.603	-5.97741
 373	1	8	0.063789	16.1109	-14.8501	-5.65683
 374	1	8	0.072206	17.5579	-13.9093	-5.24289
 375	1	8	0.045489	17.7175	-15.5299	-5.94527
 376	1	7	0.005306	16.4329	-14.9249	-8.42563
 377	1	7	0.164932	17.2787	-14.961	-9.73594
 378	1	8	0.005277	15.3959	-14.6194	-8.61752
 379	1	8	0.017604	16.383	-15.9385	-8.00579
 380	1	3	0.008363	18.6389	-14.5243	-9.22746
 381	1	7	-0.151488	16.7435	-13.9585	-10.7868
 382	1	7	-0.269275	17.2986	-16.3848	-10.3459
 383	1	3	0.096378	18.5768	-13.9988	-7.9475
 384	1	8	0.063418	17.9002	-16.4151	-11.2628
 385	1	8	0.061085	16.2823	-16.7124	-10.6003
 386	1	8	0.065045	17.7231	-17.1104	-9.64032
 387	1	3	-0.142025	19.8667	-14.6107	-9.88881
 388	1	3	-0.448546	19.7402	-13.5918	-7.27249
 389	1	3	0.277842	21.0205	-13.6807	-7.88563
 390	1	3	-0.409063	21.0311	-14.181	-9.22217
 391	1	6	0.203923	19.6147	-13.223	-6.26382
 392	1	8	0.016419	15.7287	-14.2282	-11.106
 393	1	8	0.049665	17.3855	-13.947	-11.6767
 394	1	8	0.035794	16.71	-12.9383	-10.388
 395	1	6	0.161583	19.9199	-15.0123	-10.8988
 396	1	6	0.199011	21.9531	-14.2658	-9.78352
 397	1	1	0.463181	8.45379	2.82334	-1.67045
 398	1	2	0.074399	8.2113	1.83269	-0.722602
 399	1	3	0.034296	6.81685	1.39246	-0.985104
 400	1	2	0.051625	7.39256	3.00635	-2.55489
 401	1	3	0.019035	6.33717	2.07569	-2.08731
 402	1	5	-0.389616	8.9229	1.4751	0.201549
 403	1	5	-0.380104	7.27281	3.85061	-3.42749
 404	1	3	-0.045097	5.98257	0.573912	-0.217865
 405	1	3	-0.056032	5.01049	1.94672	-2.51437
 406	1	3	-0.174781	4.15445	1.1116	-1.76616
 407	1	3	-0.129342	4.63295	0.438854	-0.612152
 408	1	6	0.168842	6.35598	0.113181	0.694971
 409	1	6	0.15893	4.64693	2.52472	-3.36167
 410	1	6	0.147704	3.10311	1.04311	-2.04083
 411	1	2	0.584577	3.69731	-0.297526	0.297777
 412	1	3	-0.046755	3.32445	-1.71918	-0.0311915
 413	1	3	-0.110868	3.48613	-2.24322	-1.33727
 414	1	3	-0.046132	3.12419	-3.57813	-1.56279
 415	1	3	-0.135873	2.81419	-2.55263	0.999176
 416	1	3	-0.117662	2.47651	-3.89736	0.752941
 417	1	3	-0.064457	2.64449	-4.38179	-0.547648
 418	1	2	0.492569	2.34868	-5.72229	-1.11281
 419	1	1	-0.072087	2.64771	-5.63135	-2.46513
 420	1	2	0.477555	3.13369	-4.37704	-2.81584
 421	1	3	0.042617	2.43313	-6.68864	-3.38834
 422	1	3	-0.20367	2.87262	-7.99228	-3.10104
 423	1	3	-0.057018	2.65054	-9.03645	-4.01316
 424	1	3	-0.18182	1.74914	-6.44732	-4.59085
 425	1	3	-0.14326	1.53066	-7.48925	-5.504
 426	1	3	0.043342	1.99331	-8.79573	-5.23932
 427	1	6	0.163244	3.38209	-8.20307	-2.16386
 428	1	6	0.101178	3.00333	-10.0287	-3.75287
 429	1	6	0.165346	2.08785	-4.54035	1.54089
 430	1	6	0.135111	2.6885	-2.15223	2.00399
 431	1	6	0.171751	3.86497	-1.64084	-2.16018
 432	1	5	-0.478239	3.47346	-3.97682	-3.91651
 433	1	5	-0.481107	1.92099	-6.68252	-0.495902
 434	1	5	-0.49957	3.3866	0.207515	1.36275
 435	1	6	0.151248	1.394	-5.44695	-4.82691
 436	1	6	0.146138	1.0114	-7.27043	-6.43306
 437	1	7	0.044043	1.78325	-9.89919	-6.29279
 438	1	7	-0.215975	2.6715	-11.1544	-6.07055
 439	1	8	0.063789	2.38511	-11.6928	-5.15812
 440	1	8	0.072206	3.73109	-10.8782	-5.99326
 441	1	8	0.045489	2.57224	-11.8545	-6.91022
 442	1	7	0.005306	0.279595	-10.3208	-6.3791
 443	1	7	0.164932	-0.234826	-10.0595	-7.83244
 444	1	8	0.005277	-0.316424	-9.7553	-5.65014
 445	1	8	0.017604	0.152542	-11.3775	-6.10802
 446	1	3	0.008363	0.976112	-9.46879	-8.52709
 447	1	7	-0.151488	-1.40946	-9.05035	-7.82191
 448	1	7	-0.269275	-0.676504	-11.3732	-8.51922
 449	1	3	0.096378	2.06528	-9.35001	-7.67965
 450	1	8	0.063418	0.153021	-12.091	-8.55662
 451	1	8	0.061085	-1.00596	-11.1858	-9.54894
 452	1	8	0.065045	-1.50884	-11.8396	-7.97725
 453	1	3	-0.142025	1.06264	-9.03538	-9.85704
 454	1	3	-0.448546	3.25032	-8.72705	-8.10508
 455	1	3	0.277842	3.36779	-8.25146	-9.43331
 456	1	3	-0.409063	2.26309	-8.44763	-10.3027
 457	1	6	0.203923	4.06582	-8.60728	-7.39698
 458	1	8	0.016419	-1.1115	-8.10474	-7.3512
 459	1	8	0.049665	-2.26454	-9.45065	-7.2625
 460	1	8	0.035794	-1.74732	-8.82524	-8.84109
 461	1	6	0.161583	0.210227	-9.1387	-10.5252
 462	1	6	0.199011	2.31688	-8.10343	-11.3335
 463	1	1	0.463181	-1.70694	9.84489	10.6426
 464	1	2	0.074399	-0.909032	10.1587	9.53578
 465	1	3	0.034296	0.157954	9.12237	9.51188
 466	1	2	0.051625	-1.19674	8.76987	11.3749
 467	1	3	0.019035	-0.0199441	8.30141	10.6072
 468	1	5	-0.389616	-1.07128	11.0317	8.69828
 469	1	5	-0.380104	-1.6624	8.22232	12.3614
 470	1	3	-0.045097	1.12063	8.84397	8.52843
 471	1	3	-0.056032	0.753318	7.15597	10.794
 472	1	3	-0.174781	1.70941	6.84602	9.80999
 473	1	3	-0.129342	1.90247	7.66667	8.66372
 474	1	6	0.168842	1.17963	9.49453	7.66567
 475	1	6	0.15893	0.57716	6.4999	11.6437
 476	1	6	0.147704	2.28702	5.92913	9.92021
 477	1	2	0.584577	2.86814	7.15754	7.61118
 478	1	3	-0.046755	3.74616	8.05534	6.77094
 479	1	3	-0.110868	5.115	7.70133	6.6932
 480	1	3	-0.046132	5.93635	8.34693	5.76338
 481	1	3	-0.135873	3.24364	9.06055	5.90003
 482	1	3	-0.117662	4.09222	9.70737	4.97385
 483	1	3	-0.064457	5.43834	9.31855	4.92273
 484	1	2	0.492569	6.47555	9.60923	3.89723
 485	1	1	-0.072087	7.51963	8.72086	4.14721
 486	1	2	0.477555	7.30704	7.98848	5.31015
 487	1	3	0.042617	8.48746	8.38256	3.15397
 488	1	3	-0.20367	9.10625	9.3774	2.37691
 489	1	3	-0.057018	9.78036	9.03543	1.19169
 490	1	3	-0.18182	8.67611	7.03492	2.79339
 491	1	3	-0.14326	9.37082	6.69268	1.62176
 492	1	3	0.043342	9.85877	7.69521	0.757301
 493	1	6	0.163244	8.97567	10.4263	2.62986
 494	1	6	0.101178	10.1686	9.83018	0.561509
 495	1	6	0.165346	3.69883	10.4174	4.24777
 496	1	6	0.135111	2.18122	9.27126	5.84925
 497	1	6	0.171751	5.50877	6.86691	7.2725
 498	1	5	-0.478239	7.99995	7.10245	5.78045
 499	1	5	-0.481107	6.32472	10.3434	2.93548
 500	1	5	-0.49957	3.08407	5.95705	7.55755
 501	1	6	0.151248	8.21938	6.24117	3.37983
 502	1	6	0.146138	9.45366	5.64229	1.367
 503	1	7	0.044043	10.3305	7.40372	-0.684358
 504	1	7	-0.215975	9.35012	8.09463	-1.67203
 505	1	8	0.063789	8.31617	7.79451	-1.45585
 506	1	8	0.072206	9.55749	7.81406	-2.71099
 507	1	8	0.045489	9.40161	9.1875	-1.60061
 508	1	7	0.005306	11.7999	7.87975	-0.909044
 509	1	7	0.164932	12.5262	6.83661	-1.81577
 510	1	8	0.005277	12.3073	7.92143	0.0641121
 511	1	8	0.017604	11.8444	8.89381	-1.32758
 512	1	3	0.008363	11.6295	5.61934	-1.68643
 513	1	7	-0.151488	13.9682	6.56905	-1.32525
 514	1	7	-0.269275	12.5682	7.3148	-3.28994
 515	1	3	0.096378	10.4171	5.93575	-1.08323
 516	1	8	0.063418	13.0848	6.58461	-3.92527
 517	1	8	0.061085	13.0958	8.27273	-3.37888
 518	1	8	0.065045	11.5595	7.44704	-3.69811
 519	1	3	-0.142025	11.8596	4.33599	-2.21216
 520	1	3	-0.448546	9.36487	5.00747	-1.08044
 521	1	3	0.277842	9.56015	3.71779	-1.61461
 522	1	3	-0.409063	10.8236	3.38049	-2.15392
 523	1	6	0.203923	8.38677	5.3025	-0.7106
 524	1	8	0.016419	14.5634	7.491	-1.34995
 525	1	8	0.049665	14.4687	5.82828	-1.96114
 526	1	8	0.035794	13.97	6.1879	-0.296444
 527	1	6	0.161583	12.806	4.1024	-2.69528
 528	1	6	0.199011	10.9826	2.39146	-2.57708
 529	1	1	0.463181	-9.55354	4.63782	-2.84304
 530	1	2	0.074399	-8.27743	4.77359	-2.30802
 531	1	3	0.034296	-8.17787	3.7046	-1.29144
 532	1	2	0.051625	-10.2595	3.55634	-2.3166
 533	1	3	0.019035	-9.3427	2.96056	-1.30795
 534	1	5	-0.389616	-7.4399	5.63059	-2.53872
 535	1	5	-0.380104	-11.4123	3.22371	-2.53837
 536	1	3	-0.045097	-7.16305	3.46804	-0.363654
 537	1	3	-0.056032	-9.53301	1.88975	-0.425315
 538	1	3	-0.174781	-8.50354	1.60683	0.500276
 539	1	3	-0.129342	-7.33547	2.41113	0.555229
 540	1	6	0.168842	-6.27361	4.09524	-0.36067
 541	1	6	0.15893	-10.4545	1.31128	-0.448311
 542	1	6	0.147704	-8.62313	0.782242	1.20156
 543	1	2	0.584577	-6.27166	2.16802	1.58435
 544	1	3	-0.046755	-5.79776	3.35665	2.37762
 545	1	3	-0.110868	-6.73397	4.28673	2.89481
 546	1	3	-0.046132	-6.25642	5.34204	3.68664
 547	1	3	-0.135873	-4.4166	3.52185	2.65112
 548	1	3	-0.117662	-3.95526	4.60588	3.42587
 549	1	3	-0.064457	-4.90656	5.49776	3.93761
 550	1	2	0.492569	-4.73721	6.64617	4.8655
 551	1	1	-0.072087	-6.02001	7.09096	5.1525
 552	1	2	0.477555	-6.99323	6.38293	4.46046
 553	1	3	0.042617	-6.27761	8.08754	6.1304
 554	1	3	-0.20367	-6.00236	7.81614	7.48013
 555	1	3	-0.057018	-6.09648	8.83166	8.44488
 556	1	3	-0.18182	-6.7144	9.37144	5.7662
 557	1	3	-0.14326	-6.79716	10.3924	6.7322
 558	1	3	0.043342	-6.43648	10.152	8.0788
 559	1	6	0.163244	-5.66713	6.82642	7.77797
 560	1	6	0.101178	-5.84474	8.59595	9.47518
 561	1	6	0.165346	-2.89818	4.73056	3.65485
 562	1	6	0.135111	-3.70217	2.79582	2.2669
 563	1	6	0.171751	-7.80438	4.16375	2.73741
 564	1	5	-0.478239	-8.20325	6.51288	4.52205
 565	1	5	-0.481107	-3.68294	7.04919	5.32628
 566	1	5	-0.49957	-5.79976	1.05667	1.7501
 567	1	6	0.151248	-6.94608	9.59193	4.72708
 568	1	6	0.146138	-7.1019	11.3828	6.41019
 569	1	7	0.044043	-6.3408	11.293	9.11962
 570	1	7	-0.215975	-6.08961	12.6775	8.45919
 571	1	8	0.063789	-6.9765	13.0362	7.92227
 572	1	8	0.072206	-5.2529	12.624	7.75058
 573	1	8	0.045489	-5.83221	13.4355	9.20829
 574	1	7	0.005306	-7.59769	11.3521	10.0457
 575	1	7	0.164932	-7.11855	11.5863	11.5169
 576	1	8	0.005277	-8.12706	10.3918	9.98442
 577	1	8	0.017604	-8.31401	12.1187	9.72225
 578	1	3	0.008363	-5.64718	11.2323	11.4375
 579	1	7	-0.151488	-7.87791	10.6611	12.4995
 580	1	7	-0.269275	-7.29017	13.0609	11.9555
 581	1	3	0.096378	-5.22443	11.0512	10.128
 582	1	8	0.063418	-6.91357	13.2079	12.9759
 583	1	8	0.061085	-8.34592	13.3583	11.9387
 584	1	8	0.065045	-6.73403	13.7398	11.2987
 585	1	3	-0.142025	-4.75521	11.0658	12.5073
 586	1	3	-0.448546	-3.90825	10.6481	9.8476
 587	1	3	0.277842	-2.99594	10.4201	10.9047
 588	1	3	-0.409063	-3.43437	10.6612	12.2313
 589	1	6	0.203923	-3.61309	10.4762	8.8152
 590	1	8	0.016419	-7.54101	10.8173	13.5321
 591	1	8	0.049665	-7.71367	9.60491	12.2498
 592	1	8	0.035794	-8.95739	10.8551	12.4641
 593	1	6	0.161583	-5.0902	11.2149	13.5317
 594	1	6	0.199011	-2.75643	10.4789	13.0631
 595	1	1	0.463181	-21.745	-0.702531	5.74259
 596	1	2	0.074399	-20.514	-0.049708	5.75919
 597	1	3	0.034296	-20.1372	0.0864932	4.32815
 598	1	2	0.051625	-22.2263	-0.931895	4.45712
 599	1	3	0.019035	-21.1559	-0.445741	3.55781
 600	1	5	-0.389616	-19.8292	0.258133	6.721
 601	1	5	-0.380104	-23.2543	-1.49338	4.11784
 602	1	3	-0.045097	-18.9446	0.542283	3.75211
 603	1	3	-0.056032	-21.0459	-0.566398	2.17048
 604	1	3	-0.174781	-19.8466	-0.138805	1.57212
 605	1	3	-0.129342	-18.798	0.411379	2.35175
 606	1	6	0.168842	-18.145	0.925793	4.38217
 607	1	6	0.15893	-21.8458	-1.01732	1.58738
 608	1	6	0.147704	-19.7162	-0.249832	0.496457
 609	1	2	0.584577	-17.5279	0.812845	1.66841
 610	1	3	-0.046755	-17.2247	2.27653	1.67438
 611	1	3	-0.110868	-17.669	3.03978	0.575605
 612	1	3	-0.046132	-17.289	4.38146	0.501771
 613	1	3	-0.135873	-16.4139	2.86887	2.67487
 614	1	3	-0.117662	-16.0328	4.22409	2.57457
 615	1	3	-0.064457	-16.4884	4.95625	1.46804
 616	1	2	0.492569	-16.0233	6.26799	0.949067
 617	1	1	-0.072087	-16.4861	6.33219	-0.362337
 618	1	2	0.477555	-17.3656	5.29941	-0.660914
 619	1	3	0.042617	-15.7684	7.05112	-1.35709
 620	1	3	-0.20367	-15.172	6.3333	-2.40882
 621	1	3	-0.057018	-14.1695	6.91685	-3.19415
 622	1	3	-0.18182	-15.4249	8.40102	-1.17607
 623	1	3	-0.14326	-14.4131	8.98446	-1.95993
 624	1	3	0.043342	-13.7123	8.22319	-2.92299
 625	1	6	0.163244	-15.4118	5.28439	-2.56648
 626	1	6	0.101178	-13.6855	6.30305	-3.94853
 627	1	6	0.165346	-15.3348	4.67034	3.28125
 628	1	6	0.135111	-16.0159	2.26132	3.48444
 629	1	6	0.171751	-18.2143	2.57739	-0.245351
 630	1	5	-0.478239	-17.8779	5.03064	-1.73403
 631	1	5	-0.481107	-15.1941	6.9819	1.48763
 632	1	5	-0.49957	-17.0441	0.0965976	0.80962
 633	1	6	0.151248	-15.8632	8.96708	-0.357263
 634	1	6	0.146138	-14.1181	10.0061	-1.74386
 635	1	7	0.044043	-12.4076	8.74409	-3.56567
 636	1	7	-0.215975	-11.6148	9.64922	-2.58013
 637	1	8	0.063789	-11.5447	9.17316	-1.59275
 638	1	8	0.072206	-12.0899	10.6294	-2.45415
 639	1	8	0.045489	-10.5898	9.82155	-2.92805
 640	1	7	0.005306	-12.6601	9.46682	-4.92614
 641	1	7	0.164932	-11.5538	9.01466	-5.9363
 642	1	8	0.005277	-12.6923	10.5584	-4.81227
 643	1	8	0.017604	-13.6439	9.16406	-5.30848
 644	1	3	0.008363	-11.0218	7.75421	-5.28822
 645	1	7	-0.151488	-10.4207	10.0652	-6.04753
 646	1	7	-0.269275	-12.1422	8.73557	-7.3395
 647	1	3	0.096378	-11.4787	7.61377	-3.985
 648	1	8	0.063418	-12.8894	7.93272	-7.29861