pySIMM System Object

3038 atoms
3359 bonds
5934 angles
9518 dihedrals
966 impropers

8 atom types
10 bond types
17 angle types
9 dihedral types
4 improper types

-217.760455 217.760455 xlo xhi
-217.760455 217.760455 ylo yhi
-217.760455 217.760455 zlo zhi

Masses

   1	14.01	# n
   2	12.01	# c
   3	12.01	# ca
   4	1.008	# hn
   5	16.0	# o
   6	1.008	# ha
   7	12.01	# c3
   8	1.008	# hc

Pair Coeffs

   1	0.17	3.249998523775958	# n
   2	0.086	3.3996695084235347	# c
   3	0.086	3.3996695084235347	# ca
   4	0.0157	1.069078461768407	# hn
   5	0.21	2.959921901149463	# o
   6	0.015	2.59964245953351	# ha
   7	0.1094	3.3996695084235347	# c3
   8	0.0157	2.649532787749369	# hc

Bond Coeffs

   1	461.1	1.3984	# ca,ca
   2	427.6	1.3789	# c,n
   3	345.9	1.4906	# c,ca
   4	300.9	1.5375	# c3,c3
   5	345.8	1.086	# ca,ha
   6	384.2	1.4121	# ca,n
   7	637.7	1.2183	# c,o
   8	321.0	1.5156	# c3,ca
   9	330.6	1.0969	# c3,hc
  10	403.2	1.0129	# hn,n

Angle Coeffs

   1	68.72	122.6	# ca,c,o
   2	62.86	111.51	# c3,c3,c3
   3	63.82	123.71	# c,n,ca
   4	67.87	120.19	# ca,ca,n
   5	67.68	115.25	# ca,c,n
   6	63.0	118.11	# ca,c,ca
   7	63.56	112.24	# ca,c3,ca
   8	63.15	112.07	# c3,c3,ca
   9	46.34	109.8	# c3,c3,hc
  10	74.22	123.05	# n,c,o
  11	48.33	117.55	# c,n,hn
  12	64.28	120.33	# c,ca,ca
  13	39.4	107.58	# hc,c3,hc
  14	66.62	120.02	# ca,ca,ca
  15	63.53	120.77	# c3,ca,ca
  16	63.74	127.08	# c,n,c
  17	48.18	119.88	# ca,ca,ha

Dihedral Coeffs

   1	1	2.5	2	180	# X,c,n,X
   2	1	0.45	2	180	# X,ca,n,X
   3	3	0.18	3	0	0.25	2	180	0.2	1	180	# c3,c3,c3,c3
   4	2	2.5	2	180	2.0	1	0	# hn,n,c,o
   5	1	3.625	2	180	# X,ca,ca,X
   6	1	0.16	3	0	# hc,c3,c3,c3
   7	1	1.0	2	180	# X,c,ca,X
   8	1	0.15555555555555556	3	0	# X,c3,c3,X
   9	1	0.0	2	0	# X,c3,ca,X

Improper Coeffs

   1	10.5	-1	2	# c,X,X,o
   2	1.1	-1	2	# ca,X,X,ha
   3	1.1	-1	2	# ca,ca,ca,c3
   4	1.1	-1	2	# n,X,X,hn

Atoms

   1	1	1	0.463181	4.49416	51.368	-57.9352
   2	1	2	0.074399	3.7201	50.3592	-58.5049
   3	1	3	0.034296	3.7772	49.2372	-57.5363
   4	1	2	0.051625	5.02372	51.0155	-56.6959
   5	1	3	0.019035	4.54484	49.6292	-56.4558
   6	1	5	-0.389616	3.19381	50.3358	-59.6059
   7	1	5	-0.380104	5.79505	51.6497	-55.9954
   8	1	3	-0.045097	3.25339	47.9438	-57.6393
   9	1	3	-0.056032	4.80617	48.7564	-55.3947
  10	1	3	-0.174781	4.28566	47.4478	-55.4751
  11	1	3	-0.129342	3.54202	47.019	-56.6071
  12	1	6	0.168842	2.66667	47.6691	-58.5125
  13	1	6	0.15893	5.41656	49.0747	-54.5531
  14	1	6	0.147704	4.49985	46.7399	-54.6761
  15	1	2	0.584577	3.08293	45.5843	-56.6869
  16	1	3	-0.046755	3.05955	44.8499	-58.0125
  17	1	3	-0.110868	3.84499	45.259	-59.1222
  18	1	3	-0.046132	3.82573	44.4775	-60.2876
  19	1	3	-0.135873	2.28217	43.6668	-58.1213
  20	1	3	-0.117662	2.27207	42.8984	-59.3022
  21	1	3	-0.064457	3.06127	43.3333	-60.3719
  22	1	2	0.492569	3.26997	42.7299	-61.7118
  23	1	1	-0.072087	4.16793	43.5627	-62.3747
  24	1	2	0.477555	4.56131	44.6346	-61.5753
  25	1	3	0.042617	4.64072	43.3231	-63.7023
  26	1	3	-0.20367	4.81551	44.3805	-64.615
  27	1	3	-0.057018	5.21726	44.1305	-65.9396
  28	1	3	-0.18182	4.91239	42.0133	-64.1388
  29	1	3	-0.14326	5.31099	41.762	-65.4602
  30	1	3	0.043342	5.44841	42.8123	-66.3903
  31	1	6	0.163244	4.61729	45.4046	-64.3087
  32	1	6	0.101178	5.32068	44.9752	-66.6122
  33	1	6	0.165346	1.68191	41.9873	-59.3816
  34	1	6	0.135111	1.68737	43.3362	-57.2717
  35	1	6	0.171751	4.49314	46.13	-59.0789
  36	1	5	-0.478239	5.34562	45.5303	-61.8462
  37	1	5	-0.481107	2.73556	41.7114	-62.1181
  38	1	5	-0.49957	2.75647	45.0029	-55.6636
  39	1	6	0.151248	4.78627	41.1732	-63.4615
  40	1	6	0.146138	5.48422	40.7344	-65.7705
  41	1	7	0.044043	5.81828	42.4772	-67.8503
  42	1	7	-0.215975	5.63652	43.6624	-68.8378
  43	1	8	0.063789	4.6072	44.0424	-68.8087
  44	1	8	0.072206	5.84046	43.3446	-69.8686
  45	1	8	0.045489	6.31743	44.4902	-68.6064
  46	1	7	0.005306	7.27518	41.9194	-67.94
  47	1	7	0.164932	7.25401	40.5657	-68.7174
  48	1	8	0.005277	7.66246	41.7521	-66.9288
  49	1	8	0.017604	7.95758	42.6376	-68.412
  50	1	3	0.008363	5.77291	40.2557	-68.8125
  51	1	7	-0.151488	8.02384	39.4721	-67.9375
  52	1	7	-0.269275	7.86905	40.73	-70.1279
  53	1	3	0.096378	4.98894	41.3052	-68.3477
  54	1	8	0.063418	7.33567	41.4971	-70.7032
  55	1	8	0.061085	7.81592	39.7896	-70.6908
  56	1	8	0.065045	8.92402	41.0258	-70.0622
  57	1	3	-0.142025	5.17965	39.0795	-69.3015
  58	1	3	-0.448546	3.58706	41.2154	-68.3504
  59	1	3	0.277842	2.9784	40.0464	-68.833
  60	1	3	-0.409063	3.77331	38.9855	-69.3047
  61	1	6	0.203923	2.97899	42.0326	-67.9767
  62	1	8	0.016419	7.58963	39.3196	-66.9408
  63	1	8	0.049665	9.07627	39.7562	-67.811
  64	1	8	0.035794	7.99538	38.513	-68.4693
  65	1	6	0.161583	5.79446	38.2607	-69.6695
  66	1	6	0.199011	3.2874	38.0871	-69.6746
  67	1	1	0.463181	7.02894	40.0693	-61.2175
  68	1	2	0.074399	7.08936	41.3998	-61.622
  69	1	3	0.034296	7.97064	41.4022	-62.8134
  70	1	2	0.051625	7.77812	39.2168	-62.0218
  71	1	3	0.019035	8.39546	40.1068	-63.0406
  72	1	5	-0.389616	6.59464	42.3759	-61.0817
  73	1	5	-0.380104	7.94135	38.0138	-61.9077
  74	1	3	-0.045097	8.36607	42.469	-63.6285
  75	1	3	-0.056032	9.27943	39.8078	-64.0798
  76	1	3	-0.174781	9.71807	40.8708	-64.8956
  77	1	3	-0.129342	9.2693	42.2051	-64.6889
  78	1	6	0.168842	7.95315	43.4563	-63.4367
  79	1	6	0.15893	9.6154	38.7862	-64.2445
  80	1	6	0.147704	10.403	40.653	-65.714
  81	1	2	0.584577	9.71105	43.2833	-65.6542
  82	1	3	-0.046755	9.20919	44.6942	-65.5014
  83	1	3	-0.110868	9.42023	45.4441	-64.317
  84	1	3	-0.046132	8.9489	46.7666	-64.28
  85	1	3	-0.135873	8.56906	45.299	-66.6116
  86	1	3	-0.117662	8.08663	46.6184	-66.5476
  87	1	3	-0.064457	8.28957	47.3254	-65.3588
  88	1	2	0.492569	7.92915	48.7223	-65.0163
  89	1	1	-0.072087	8.42166	48.9346	-63.7373
  90	1	2	0.477555	9.04855	47.8083	-63.2169
  91	1	3	0.042617	8.26346	50.1655	-63.048
  92	1	3	-0.20367	9.37356	50.8988	-62.5942
  93	1	3	-0.057018	9.19267	52.1303	-61.936
  94	1	3	-0.18182	6.97578	50.6891	-62.8596
  95	1	3	-0.14326	6.79575	51.9145	-62.2036
  96	1	3	0.043342	7.89674	52.6433	-61.7022
  97	1	6	0.163244	10.3785	50.5172	-62.7508
  98	1	6	0.101178	10.0708	52.667	-61.5907
  99	1	6	0.165346	7.5918	47.0857	-67.3976
 100	1	6	0.135111	8.45236	44.7363	-67.5339
 101	1	6	0.171751	9.95173	45.0268	-63.4635
 102	1	5	-0.478239	9.60985	47.69	-62.1399
 103	1	5	-0.481107	7.32966	49.5041	-65.7335
 104	1	5	-0.49957	10.352	42.9877	-66.65
 105	1	6	0.151248	6.10701	50.1492	-63.2296
 106	1	6	0.146138	5.78277	52.2876	-62.0731
 107	1	7	0.044043	7.64306	53.9413	-60.9022
 108	1	7	-0.215975	8.82854	54.3587	-59.9893
 109	1	8	0.063789	9.12013	53.542	-59.318
 110	1	8	0.072206	8.55772	55.216	-59.3607
 111	1	8	0.045489	9.70742	54.6492	-60.5783
 112	1	7	0.005306	7.23895	55.1186	-61.847
 113	1	7	0.164932	5.94704	55.7934	-61.2789
 114	1	8	0.005277	7.03327	54.7207	-62.8498
 115	1	8	0.017604	8.055	55.8428	-61.9705
 116	1	3	0.008363	5.45183	54.7653	-60.2792
 117	1	7	-0.151488	4.91649	56.0494	-62.4054
 118	1	7	-0.269275	6.27681	57.1254	-60.5633
 119	1	3	0.096378	6.39893	53.7788	-60.046
 120	1	8	0.063418	6.99966	56.9713	-59.753
 121	1	8	0.061085	5.37312	57.5668	-60.1244
 122	1	8	0.065045	6.70338	57.8532	-61.265
 123	1	3	-0.142025	4.18652	54.6975	-59.6719
 124	1	3	-0.448546	6.11375	52.6871	-59.2143
 125	1	3	0.277842	4.83495	52.5623	-58.6353
 126	1	3	-0.409063	3.88097	53.5833	-58.8617
 127	1	6	0.203923	6.85787	51.9139	-59.0769
 128	1	8	0.016419	4.62501	55.1096	-62.892
 129	1	8	0.049665	5.33463	56.7136	-63.1723
 130	1	8	0.035794	4.00758	56.5207	-62.0113
 131	1	6	0.161583	3.44224	55.4675	-59.8645
 132	1	6	0.199011	2.8849	53.4918	-58.4348
 133	1	1	0.463181	17.3141	49.9558	-62.055
 134	1	2	0.074399	16.6332	50.839	-61.2147
 135	1	3	0.034296	15.2601	50.2878	-61.0996
 136	1	2	0.051625	16.509	48.8986	-62.4858
 137	1	3	0.019035	15.1864	49.1327	-61.8521
 138	1	5	-0.389616	17.0454	51.8542	-60.6767
 139	1	5	-0.380104	16.8024	47.9621	-63.2111
 140	1	3	-0.045097	14.1567	50.773	-60.3898
 141	1	3	-0.056032	14.0017	48.3942	-61.94
 142	1	3	-0.174781	12.8755	48.8622	-61.23
 143	1	3	-0.129342	12.9458	50.0427	-60.4392
 144	1	6	0.168842	14.2399	51.6948	-59.8158
 145	1	6	0.15893	13.9586	47.4934	-62.5487
 146	1	6	0.147704	11.9407	48.3125	-61.317
 147	1	2	0.584577	11.7475	50.5901	-59.7028
 148	1	3	-0.046755	10.6484	49.6698	-59.2335
 149	1	3	-0.110868	10.9083	48.3313	-58.8451
 150	1	3	-0.046132	9.82873	47.5405	-58.4274
 151	1	3	-0.135873	9.32681	50.1767	-59.1422
 152	1	3	-0.117662	8.25596	49.3611	-58.7345
 153	1	3	-0.064457	8.54373	48.0408	-58.388
 154	1	2	0.492569	7.63564	46.9662	-57.9305
 155	1	1	-0.072087	8.44316	45.8616	-57.7011
 156	1	2	0.477555	9.78037	46.1222	-57.9782
 157	1	3	0.042617	7.93521	44.6024	-57.2827
 158	1	3	-0.20367	8.51466	43.8916	-56.2176
 159	1	3	-0.057018	8.01866	42.6262	-55.8519
 160	1	3	-0.18182	6.83022	44.0504	-57.9452
 161	1	3	-0.14326	6.30746	42.8118	-57.5548
 162	1	3	0.043342	6.92227	42.0525	-56.5345
 163	1	6	0.163244	9.37583	44.301	-55.6956
 164	1	6	0.101178	8.51891	42.0878	-55.054
 165	1	6	0.165346	7.23661	49.7316	-58.6869
 166	1	6	0.135111	9.13213	51.2109	-59.4063
 167	1	6	0.171751	11.9124	47.9132	-58.8588
 168	1	5	-0.478239	10.7307	45.3638	-57.8861
 169	1	5	-0.481107	6.4264	47.0593	-57.8112
 170	1	5	-0.49957	11.6624	51.7931	-59.5124
 171	1	6	0.151248	6.39217	44.5701	-58.7909
 172	1	6	0.146138	5.45949	42.4127	-58.1062
 173	1	7	0.044043	6.45639	40.5984	-56.291
 174	1	7	-0.215975	7.51379	39.7199	-55.5688
 175	1	8	0.063789	7.66829	40.048	-54.5334
 176	1	8	0.072206	8.47732	39.758	-56.0932
 177	1	8	0.045489	7.20111	38.6694	-55.5375
 178	1	7	0.005306	5.08192	40.5355	-55.5514
 179	1	7	0.164932	4.15153	39.539	-56.3208
 180	1	8	0.005277	4.62892	41.5361	-55.5562
 181	1	8	0.017604	5.19536	40.2561	-54.4957
 182	1	3	0.008363	4.84449	39.4242	-57.6664
 183	1	7	-0.151488	2.71871	40.11	-56.4471
 184	1	7	-0.269275	4.09517	38.159	-55.6231
 185	1	3	0.096378	6.12388	39.9601	-57.6269
 186	1	8	0.063418	3.47457	37.4589	-56.1966
 187	1	8	0.061085	3.66676	38.2448	-54.6165
 188	1	8	0.065045	5.09408	37.7171	-55.5307
 189	1	3	-0.142025	4.30393	38.959	-58.8778
 190	1	3	-0.448546	6.89647	40.0749	-58.79
 191	1	3	0.277842	6.35116	39.6874	-60.0275
 192	1	3	-0.409063	5.05955	39.1103	-60.0603
 193	1	6	0.203923	7.85725	40.5817	-58.7485
 194	1	8	0.016419	2.06163	39.4211	-56.9925
 195	1	8	0.049665	2.72838	41.0646	-56.9849
 196	1	8	0.035794	2.279	40.2832	-55.4566
 197	1	6	0.161583	3.29536	38.5524	-58.9108
 198	1	6	0.199011	4.62023	38.8251	-61.0141
 199	1	1	0.463181	27.5463	44.8047	-48.0487
 200	1	2	0.074399	26.7762	43.7621	-48.5656
 201	1	3	0.034296	26.9279	43.8614	-50.0375
 202	1	2	0.051625	28.1793	45.5528	-49.0418
 203	1	3	0.019035	27.7558	44.93	-50.3224
 204	1	5	-0.389616	26.1124	42.9322	-47.9646
 205	1	5	-0.380104	28.9153	46.5179	-48.9165
 206	1	3	-0.045097	26.3759	43.0682	-51.0488
 207	1	3	-0.056032	28.0775	45.2716	-51.6403
 208	1	3	-0.174781	27.5223	44.4942	-52.6792
 209	1	3	-0.129342	26.6609	43.3992	-52.3934
 210	1	6	0.168842	25.7369	42.2235	-50.7954
 211	1	6	0.15893	28.7406	46.1096	-51.8456
 212	1	6	0.147704	27.7821	44.7332	-53.7088
 213	1	2	0.584577	26.0778	42.5424	-53.4877
 214	1	3	-0.046755	25.6602	43.1754	-54.7921
 215	1	3	-0.110868	25.2452	44.529	-54.8498
 216	1	3	-0.046132	24.8384	45.0484	-56.0856
 217	1	3	-0.135873	25.6243	42.3852	-55.9709
 218	1	3	-0.117662	25.2115	42.9296	-57.2044
 219	1	3	-0.064457	24.8243	44.2748	-57.2282
 220	1	2	0.492569	24.3324	45.1161	-58.3511
 221	1	1	-0.072087	24.0743	46.3675	-57.802
 222	1	2	0.477555	24.3537	46.4078	-56.4408
 223	1	3	0.042617	23.5894	47.4781	-58.5497
 224	1	3	-0.20367	24.1813	48.7457	-58.4136
 225	1	3	-0.057018	23.7137	49.8356	-59.1662
 226	1	3	-0.18182	22.5189	47.3234	-59.4481
 227	1	3	-0.14326	22.0512	48.4135	-60.2012
 228	1	3	0.043342	22.6423	49.6903	-60.0718
 229	1	6	0.163244	25.0077	48.892	-57.7229
 230	1	6	0.101178	24.1987	50.7999	-59.0484
 231	1	6	0.165346	25.1833	42.3263	-58.1103
 232	1	6	0.135111	25.9181	41.3378	-55.9239
 233	1	6	0.171751	25.2122	45.1593	-53.963
 234	1	5	-0.478239	24.2497	47.3492	-55.6731
 235	1	5	-0.481107	24.202	44.7572	-59.5086
 236	1	5	-0.49957	25.9151	41.3481	-53.2993
 237	1	6	0.151248	22.0526	46.3495	-59.5784
 238	1	6	0.146138	21.2344	48.2424	-60.8963
 239	1	7	0.044043	22.1763	50.9054	-60.9003
 240	1	7	-0.215975	21.8242	52.1043	-59.978
 241	1	8	0.063789	22.7112	52.4959	-59.4659
 242	1	8	0.072206	21.0959	51.8086	-59.2124
 243	1	8	0.045489	21.3853	52.9274	-60.557
 244	1	7	0.005306	23.2691	51.3062	-61.943
 245	1	7	0.164932	22.8863	50.667	-63.3136
 246	1	8	0.005277	24.2805	51.0213	-61.6251
 247	1	8	0.017604	23.275	52.3994	-62.0498
 248	1	3	0.008363	21.3972	50.4393	-63.1407
 249	1	7	-0.151488	23.6192	49.321	-63.5277
 250	1	7	-0.269275	23.2036	51.6265	-64.4863
 251	1	3	0.096378	21.0048	50.5812	-61.8161
 252	1	8	0.063418	24.2741	51.8666	-64.5152
 253	1	8	0.061085	22.6461	52.5667	-64.3858
 254	1	8	0.065045	22.9327	51.1763	-65.4493
 255	1	3	-0.142025	20.4599	50.1184	-64.1341
 256	1	3	-0.448546	19.6612	50.4205	-61.4409
 257	1	3	0.277842	18.6895	50.1118	-62.4194
 258	1	3	-0.409063	19.1098	49.9586	-63.7639
 259	1	6	0.203923	19.3737	50.548	-60.4005
 260	1	8	0.016419	23.4129	48.6194	-62.7106
 261	1	8	0.049665	24.7052	49.4699	-63.5781
 262	1	8	0.035794	23.299	48.8467	-64.464
 263	1	6	0.161583	20.7733	49.9953	-65.1686
 264	1	6	0.199011	18.3782	49.7022	-64.5281
 265	1	1	0.463181	14.6912	31.4748	-44.221
 266	1	2	0.074399	15.6403	31.7524	-43.239
 267	1	3	0.034296	16.4081	32.9076	-43.7618
 268	1	2	0.051625	14.7674	32.3391	-45.3124
 269	1	3	0.019035	15.8952	33.2546	-44.9969
 270	1	5	-0.389616	15.8197	31.1865	-42.1722
 271	1	5	-0.380104	14.0798	32.3549	-46.32
 272	1	3	-0.045097	17.4878	33.5905	-43.1946
 273	1	3	-0.056032	16.4507	34.296	-45.7482
 274	1	3	-0.174781	17.5441	34.9993	-45.1978
 275	1	3	-0.129342	18.0542	34.6701	-43.911
 276	1	6	0.168842	17.8749	33.2882	-42.2223
 277	1	6	0.15893	16.0532	34.5378	-46.7318
 278	1	6	0.147704	18.0072	35.7893	-45.7858
 279	1	2	0.584577	19.2307	35.3921	-43.302
 280	1	3	-0.046755	19.4623	36.8587	-43.5782
 281	1	3	-0.110868	20.7656	37.3848	-43.4123
 282	1	3	-0.046132	20.9694	38.753	-43.6314
 283	1	3	-0.135873	18.398	37.736	-43.9249
 284	1	3	-0.117662	18.6277	39.1101	-44.1455
 285	1	3	-0.064457	19.9345	39.5894	-43.9944
 286	1	2	0.492569	20.4754	40.9696	-44.1134
 287	1	1	-0.072087	21.8264	40.8772	-43.7949
 288	1	2	0.477555	22.2032	39.5709	-43.4999
 289	1	3	0.042617	22.7139	41.9909	-43.7381
 290	1	3	-0.20367	22.3206	43.1906	-43.1189
 291	1	3	-0.057018	23.2051	44.2792	-43.0381
 292	1	3	-0.18182	24.0127	41.9006	-44.2683
 293	1	3	-0.14326	24.9007	42.9846	-44.1778
 294	1	3	0.043342	24.5064	44.2012	-43.5778
 295	1	6	0.163244	21.325	43.285	-42.6934
 296	1	6	0.101178	22.8685	45.1814	-42.539
 297	1	6	0.165346	17.8151	39.7877	-44.4028
 298	1	6	0.135111	17.3797	37.3623	-43.9969
 299	1	6	0.171751	21.597	36.7489	-43.109
 300	1	5	-0.478239	23.2984	39.1564	-43.1616
 301	1	5	-0.481107	19.832	41.9634	-44.4056
 302	1	5	-0.49957	19.9832	34.7867	-42.5561
 303	1	6	0.151248	24.3487	40.9802	-44.7404
 304	1	6	0.146138	25.9032	42.8606	-44.5779
 305	1	7	0.044043	25.4866	45.3882	-43.4545
 306	1	7	-0.215975	24.7806	46.7627	-43.6225
 307	1	8	0.063789	24.1142	46.9875	-42.7813
 308	1	8	0.072206	24.188	46.7841	-44.546
 309	1	8	0.045489	25.5133	47.5771	-43.6816
 310	1	7	0.005306	26.2514	45.3168	-42.0945
 311	1	7	0.164932	27.7663	45.5943	-42.3571
 312	1	8	0.005277	26.1367	44.3078	-41.6753
 313	1	8	0.017604	25.8309	46.0052	-41.3498
 314	1	3	0.008363	27.8717	45.4301	-43.8612
 315	1	7	-0.151488	28.6559	44.5773	-41.6015
 316	1	7	-0.269275	28.1519	47.0334	-41.9381
 317	1	3	0.096378	26.6241	45.3233	-44.4604
 318	1	8	0.063418	27.5441	47.7768	-42.4678
 319	1	8	0.061085	29.2051	47.2385	-42.1674
 320	1	8	0.065045	28.0054	47.1803	-40.8605
 321	1	3	-0.142025	29.0422	45.3794	-44.6348
 322	1	3	-0.448546	26.5016	45.1614	-45.8486
 323	1	3	0.277842	27.6604	45.067	-46.6489
 324	1	3	-0.409063	28.9269	45.1902	-46.0271
 325	1	6	0.203923	25.5144	45.0579	-46.2923
 326	1	8	0.016419	28.4867	44.639	-40.5188
 327	1	8	0.049665	29.72	44.7678	-41.7878
 328	1	8	0.035794	28.4366	43.5504	-41.9217
 329	1	6	0.161583	30.0182	45.4735	-44.1633
 330	1	6	0.199011	29.8287	45.1393	-46.6343
 331	1	1	0.463181	20.9607	25.688	-27.3705
 332	1	2	0.074399	19.5943	25.5206	-27.5951
 333	1	3	0.034296	19.4114	25.7441	-29.0557
 334	1	2	0.051625	21.6641	26.0042	-28.5319
 335	1	3	0.019035	20.6455	26.0234	-29.6103
 336	1	5	-0.389616	18.7231	25.2352	-26.7901
 337	1	5	-0.380104	22.8605	26.2039	-28.6652
 338	1	3	-0.045097	18.2522	25.6999	-29.8417
 339	1	3	-0.056032	20.7957	26.2702	-30.9783
 340	1	3	-0.174781	19.6431	26.2256	-31.7898
 341	1	3	-0.129342	18.3673	25.927	-31.2362
 342	1	6	0.168842	17.2878	25.4936	-29.3794
 343	1	6	0.15893	21.7764	26.4965	-31.3917
 344	1	6	0.147704	19.745	26.4507	-32.8493
 345	1	2	0.584577	17.1149	25.9155	-32.0825
 346	1	3	-0.046755	17.1825	25.6016	-33.5596
 347	1	3	-0.110868	16.2298	26.1896	-34.4248
 348	1	3	-0.046132	16.2837	25.884	-35.7909
 349	1	3	-0.135873	18.1357	24.6913	-34.0937
 350	1	3	-0.117662	18.1677	24.3932	-35.4737
 351	1	3	-0.064457	17.2243	25.0145	-36.3034
 352	1	2	0.492569	17.0	24.9056	-37.7726
 353	1	1	-0.072087	15.9258	25.7433	-38.0559
 354	1	2	0.477555	15.4333	26.3616	-36.9119
 355	1	3	0.042617	15.3884	25.9574	-39.3591
 356	1	3	-0.20367	15.1052	24.8777	-40.2142
 357	1	3	-0.057018	14.5423	25.1014	-41.4834
 358	1	3	-0.18182	15.1075	27.2611	-39.8044
 359	1	3	-0.14326	14.5387	27.4842	-41.069
 360	1	3	0.043342	14.243	26.4055	-41.9323
 361	1	6	0.163244	15.3198	23.8602	-39.8977
 362	1	6	0.101178	14.3293	24.2483	-42.1208
 363	1	6	0.165346	18.8944	23.6952	-35.8869
 364	1	6	0.135111	18.8439	24.1943	-33.4342
 365	1	6	0.171751	15.4677	26.8692	-34.0444
 366	1	5	-0.478239	14.4997	27.1392	-36.8153
 367	1	5	-0.481107	17.6356	24.2057	-38.5425
 368	1	5	-0.49957	16.0413	26.1845	-31.5685
 369	1	6	0.151248	15.3153	28.1136	-39.1618
 370	1	6	0.146138	14.3283	28.5101	-41.3553
 371	1	7	0.044043	13.6163	26.6066	-43.3299
 372	1	7	-0.215975	14.5442	26.0259	-44.4308
 373	1	8	0.063789	14.647	24.9379	-44.3393
 374	1	8	0.072206	15.5474	26.4656	-44.3686
 375	1	8	0.045489	14.1456	26.2402	-45.4313
 376	1	7	0.005306	12.1951	25.9565	-43.4081
 377	1	7	0.164932	11.13	27.0863	-43.2565
 378	1	8	0.005277	12.0536	25.1629	-42.6632
 379	1	8	0.017604	12.0711	25.4806	-44.3901
 380	1	3	0.008363	11.9294	28.3226	-43.6129
 381	1	7	-0.151488	10.6311	27.1828	-41.7948
 382	1	7	-0.269275	9.93023	26.863	-44.2089
 383	1	3	0.096378	13.2932	28.0617	-43.6398
 384	1	8	0.063418	9.18199	27.657	-44.0944
 385	1	8	0.061085	9.43894	25.9043	-43.9994
 386	1	8	0.065045	10.257	26.8572	-45.2567
 387	1	3	-0.142025	11.4395	29.6165	-43.8518
 388	1	3	-0.448546	14.2151	29.089	-43.8929
 389	1	3	0.277842	13.7546	30.4069	-44.0991
 390	1	3	-0.409063	12.3612	30.6547	-44.0954
 391	1	6	0.203923	15.2804	28.8765	-43.8643
 392	1	8	0.016419	9.9342	28.0219	-41.6735
 393	1	8	0.049665	11.4674	27.3388	-41.1012
 394	1	8	0.035794	10.1102	26.2645	-41.4959
 395	1	6	0.161583	10.3699	29.8138	-43.8241
 396	1	6	0.199011	11.9949	31.6654	-44.2639
 397	1	1	0.463181	27.0059	8.79059	-30.3444
 398	1	2	0.074399	26.7378	9.93361	-29.58
 399	1	3	0.034296	26.5722	11.0344	-30.5552
 400	1	2	0.051625	27.0219	9.07205	-31.717
 401	1	3	0.019035	26.7593	10.5303	-31.8242
 402	1	5	-0.389616	26.7127	10.0684	-28.3669
 403	1	5	-0.380104	27.1999	8.31427	-32.6569
 404	1	3	-0.045097	26.2759	12.3817	-30.327
 405	1	3	-0.056032	26.6853	11.357	-32.9496
 406	1	3	-0.174781	26.4111	12.7258	-32.744
 407	1	3	-0.129342	26.2105	13.2554	-31.4393
 408	1	6	0.168842	26.0819	12.7135	-29.3103
 409	1	6	0.15893	26.8318	10.9489	-33.9475
 410	1	6	0.147704	26.3391	13.3848	-33.6087
 411	1	2	0.584577	25.8539	14.7167	-31.2816
 412	1	3	-0.046755	25.9901	15.4172	-29.9489
 413	1	3	-0.110868	25.0706	16.4455	-29.6405
 414	1	3	-0.046132	25.2025	17.1214	-28.4231
 415	1	3	-0.135873	27.0397	15.1283	-29.0322
 416	1	3	-0.117662	27.1485	15.8195	-27.8044
 417	1	3	-0.064457	26.2044	16.8167	-27.524
 418	1	2	0.492569	26.0685	17.7345	-26.3561
 419	1	1	-0.072087	24.9837	18.5504	-26.6493
 420	1	2	0.477555	24.4016	18.2393	-27.8683
 421	1	3	0.042617	24.502	19.5982	-25.8235
 422	1	3	-0.20367	23.9359	19.3227	-24.5692
 423	1	3	-0.057018	23.3315	20.3514	-23.8262
 424	1	3	-0.18182	24.5056	20.9195	-26.2991
 425	1	3	-0.14326	23.9096	21.9487	-25.5523
 426	1	3	0.043342	23.2734	21.6726	-24.3217
 427	1	6	0.163244	23.9366	18.3075	-24.1818
 428	1	6	0.101178	22.8879	20.1089	-22.8658
 429	1	6	0.165346	27.9514	15.6054	-27.1007
 430	1	6	0.135111	27.7916	14.3821	-29.2791
 431	1	6	0.171751	24.2764	16.719	-30.3345
 432	1	5	-0.478239	23.4357	18.7621	-28.3964
 433	1	5	-0.481107	26.7744	17.7517	-25.3628
 434	1	5	-0.49957	25.3878	15.3257	-32.2312
 435	1	6	0.151248	24.9423	21.1453	-27.2688
 436	1	6	0.146138	23.9271	22.9554	-25.9594
 437	1	7	0.044043	22.5332	22.7644	-23.5203
 438	1	7	-0.215975	21.1314	22.2761	-23.0606
 439	1	8	0.063789	21.1987	21.4633	-22.3281
 440	1	8	0.072206	20.5434	21.9167	-23.9147
 441	1	8	0.045489	20.5703	23.0945	-22.5903
 442	1	7	0.005306	23.3898	23.2109	-22.2914
 443	1	7	0.164932	23.8618	24.6826	-22.5151
 444	1	8	0.005277	24.2461	22.5404	-22.1379
 445	1	8	0.017604	22.7898	23.1456	-21.3742
 446	1	3	0.008363	23.0657	25.1151	-23.7302
 447	1	7	-0.151488	25.3761	24.7349	-22.8302
 448	1	7	-0.269275	23.5518	25.5585	-21.2772
 449	1	3	0.096378	22.358	24.0634	-24.2954
 450	1	8	0.063418	22.4769	25.5534	-21.0545
 451	1	8	0.061085	23.8568	26.5992	-21.4419
 452	1	8	0.065045	24.0844	25.1858	-20.3929
 453	1	3	-0.142025	23.0456	26.3897	-24.3175
 454	1	3	-0.448546	21.6117	24.2471	-25.4739
 455	1	3	0.277842	21.6004	25.5109	-26.1054
 456	1	3	-0.409063	22.3139	26.5771	-25.5068
 457	1	6	0.203923	21.0775	23.4081	-25.9121
 458	1	8	0.016419	25.615	24.1231	-23.7098
 459	1	8	0.049665	25.9672	24.3603	-21.985
 460	1	8	0.035794	25.6982	25.7631	-23.0383
 461	1	6	0.161583	23.6141	27.2063	-23.8776
 462	1	6	0.199011	22.3302	27.5503	-25.9927
 463	1	1	0.463181	11.8701	-2.6796	-23.6928
 464	1	2	0.074399	12.6208	-2.96839	-24.8383
 465	1	3	0.034296	13.3227	-1.71433	-25.1716
 466	1	2	0.051625	11.939	-1.32237	-23.3485
 467	1	3	0.019035	12.9193	-0.730594	-24.2932
 468	1	5	-0.389616	12.8064	-4.03505	-25.4016
 469	1	5	-0.380104	11.4112	-0.73394	-22.4187
 470	1	3	-0.045097	14.3655	-1.51777	-26.0776
 471	1	3	-0.056032	13.5139	0.535898	-24.297
 472	1	3	-0.174781	14.5729	0.761066	-25.2023
 473	1	3	-0.129342	15.0285	-0.274753	-26.0646
 474	1	6	0.168842	14.7057	-2.33654	-26.7101
 475	1	6	0.15893	13.2021	1.29583	-23.5832
 476	1	6	0.147704	15.0747	1.72716	-25.1975
 477	1	2	0.584577	16.2597	-0.122606	-26.9141
 478	1	3	-0.046755	17.4876	0.504003	-26.3036
 479	1	3	-0.110868	18.5174	0.980287	-27.1497
 480	1	3	-0.046132	19.6314	1.593	-26.5602
 481	1	3	-0.135873	17.6449	0.591914	-24.8923
 482	1	3	-0.117662	18.7648	1.2243	-24.3237
 483	1	3	-0.064457	19.7335	1.73344	-25.1925
 484	1	2	0.492569	20.9874	2.45999	-24.8899
 485	1	1	-0.072087	21.6026	2.69329	-26.1178
 486	1	2	0.477555	20.8436	2.19723	-27.176
 487	1	3	0.042617	22.8623	3.35201	-26.2578
 488	1	3	-0.20367	23.8629	3.17058	-25.287
 489	1	3	-0.057018	25.0806	3.85464	-25.3752
 490	1	3	-0.18182	23.1286	4.21564	-27.3389
 491	1	3	-0.14326	24.3703	4.86894	-27.4509
 492	1	3	0.043342	25.3695	4.69297	-26.4699
 493	1	6	0.163244	23.6984	2.51722	-24.435
 494	1	6	0.101178	25.7978	3.73008	-24.5706
 495	1	6	0.165346	18.8818	1.31347	-23.2446
 496	1	6	0.135111	16.9031	0.165809	-24.2214
 497	1	6	0.171751	18.4459	0.888177	-28.2332
 498	1	5	-0.478239	21.0948	2.22411	-28.3686
 499	1	5	-0.481107	21.348	2.79574	-23.7744
 500	1	5	-0.49957	16.2882	-0.589682	-28.0406
 501	1	6	0.151248	22.3733	4.38525	-28.1023
 502	1	6	0.146138	24.5391	5.52285	-28.3005
 503	1	7	0.044043	26.7222	5.42766	-26.5246
 504	1	7	-0.215975	26.7024	6.59777	-25.507
 505	1	8	0.063789	25.857	7.26992	-25.7023
 506	1	8	0.072206	27.6236	7.19152	-25.5674
 507	1	8	0.045489	26.6018	6.22664	-24.4795
 508	1	7	0.005306	27.9203	4.45932	-26.2402
 509	1	7	0.164932	28.4381	3.93328	-27.6086
 510	1	8	0.005277	27.6926	3.63616	-25.5552
 511	1	8	0.017604	28.7235	5.03581	-25.7614
 512	1	3	0.008363	28.0675	5.09374	-28.5086
 513	1	7	-0.151488	27.6896	2.64986	-28.0432
 514	1	7	-0.269275	29.961	3.66012	-27.5527
 515	1	3	0.096378	27.1081	5.91046	-27.9211
 516	1	8	0.063418	30.3369	3.31074	-28.522
 517	1	8	0.061085	30.1886	2.88864	-26.806
 518	1	8	0.065045	30.5148	4.56832	-27.2823
 519	1	3	-0.142025	28.6358	5.42922	-29.7448
 520	1	3	-0.448546	26.7054	7.10269	-28.546
 521	1	3	0.277842	27.2986	7.50466	-29.768
 522	1	3	-0.409063	28.2552	6.63852	-30.3576
 523	1	6	0.203923	25.9843	7.74129	-28.0447
 524	1	8	0.016419	27.8415	1.84136	-27.3169
 525	1	8	0.049665	28.0504	2.30168	-29.0191
 526	1	8	0.035794	26.6105	2.82507	-28.1328
 527	1	6	0.161583	29.3906	4.78936	-30.1969
 528	1	6	0.199011	28.7331	6.91502	-31.2951
 529	1	1	0.463181	-4.05001	-1.44423	-14.2535
 530	1	2	0.074399	-3.08905	-1.13766	-13.2879
 531	1	3	0.034296	-1.96998	-0.516122	-14.0402
 532	1	2	0.051625	-3.68852	-1.00321	-15.5287
 533	1	3	0.019035	-2.32302	-0.441416	-15.3729
 534	1	5	-0.389616	-3.08353	-1.42174	-12.101
 535	1	5	-0.380104	-4.28145	-1.15806	-16.584
 536	1	3	-0.045097	-0.697602	-0.138724	-13.5987
 537	1	3	-0.056032	-1.42122	0.00967754	-16.3439
 538	1	3	-0.174781	-0.124795	0.380162	-15.9252
 539	1	3	-0.129342	0.247209	0.300948	-14.5562
 540	1	6	0.168842	-0.441972	-0.215582	-12.5426
 541	1	6	0.15893	-1.71494	0.0479671	-17.3907
 542	1	6	0.147704	0.5854	0.741475	-16.6666
 543	1	2	0.584577	1.61235	0.72095	-14.079
 544	1	3	-0.046755	2.81864	0.574985	-14.9724
 545	1	3	-0.110868	3.02858	-0.588972	-15.7574
 546	1	3	-0.046132	4.26428	-0.734349	-16.4138
 547	1	3	-0.135873	3.83425	1.56149	-14.8965
 548	1	3	-0.117662	5.05459	1.40768	-15.58
 549	1	3	-0.064457	5.24328	0.238008	-16.3225
 550	1	2	0.492569	6.47666	-0.271035	-16.9715
 551	1	1	-0.072087	6.17818	-1.56078	-17.3805
 552	1	2	0.477555	4.85494	-1.90583	-17.1293
 553	1	3	0.042617	7.19111	-2.44894	-17.8288
 554	1	3	-0.20367	8.10643	-2.96687	-16.8983
 555	1	3	-0.057018	9.22187	-3.70529	-17.327
 556	1	3	-0.18182	7.38266	-2.7115	-19.1941
 557	1	3	-0.14326	8.5027	-3.44833	-19.6237
 558	1	3	0.043342	9.46042	-3.93246	-18.6982
 559	1	6	0.163244	7.97907	-2.75739	-15.8396
 560	1	6	0.101178	9.92139	-4.07332	-16.5833
 561	1	6	0.165346	5.85651	2.13781	-15.4821
 562	1	6	0.135111	3.68826	2.43311	-14.261
 563	1	6	0.171751	2.30017	-1.39758	-15.7829
 564	1	5	-0.478239	4.31071	-2.97803	-17.3275
 565	1	5	-0.481107	7.55753	0.291174	-16.999
 566	1	5	-0.49957	1.7456	1.15407	-12.9461
 567	1	6	0.151248	6.68795	-2.30995	-19.9272
 568	1	6	0.146138	8.62687	-3.60763	-20.6906
 569	1	7	0.044043	10.744	-4.67519	-19.1418
 570	1	7	-0.215975	12.0132	-4.08451	-18.465
 571	1	8	0.063789	12.0297	-4.28971	-17.3876
 572	1	8	0.072206	12.0629	-2.99699	-18.6022
 573	1	8	0.045489	12.9216	-4.52298	-18.8961
 574	1	7	0.005306	10.6277	-6.20524	-18.8524
 575	1	7	0.164932	10.2242	-6.92467	-20.1786
 576	1	8	0.005277	9.92177	-6.41722	-18.0388
 577	1	8	0.017604	11.6035	-6.58409	-18.5186
 578	1	3	0.008363	10.5133	-5.86769	-21.2228
 579	1	7	-0.151488	8.72803	-7.31034	-20.179
 580	1	7	-0.269275	11.0993	-8.17893	-20.4157
 581	1	3	0.096378	10.894	-4.66358	-20.6534
 582	1	8	0.063418	10.8159	-8.69255	-21.3427
 583	1	8	0.061085	11.0026	-8.89189	-19.5878
 584	1	8	0.065045	12.1554	-7.89627	-20.5052
 585	1	3	-0.142025	10.4394	-6.00597	-22.6145
 586	1	3	-0.448546	11.3121	-3.58838	-21.4521
 587	1	3	0.277842	11.2963	-3.70447	-22.8629
 588	1	3	-0.409063	10.8088	-4.91428	-23.4221
 589	1	6	0.203923	11.6451	-2.67465	-20.969
 590	1	8	0.016419	8.43854	-7.7513	-21.1413
 591	1	8	0.049665	8.09462	-6.43176	-20.0045
 592	1	8	0.035794	8.51522	-8.04533	-19.3926
 593	1	6	0.161583	10.119	-6.94623	-23.0585
 594	1	6	0.199011	10.7678	-5.03711	-24.5022
 595	1	1	0.463181	-21.5494	-1.94352	-6.25536
 596	1	2	0.074399	-20.9419	-1.66357	-7.47848
 597	1	3	0.034296	-20.0894	-0.479293	-7.22681
 598	1	2	0.051625	-21.1886	-1.03705	-5.25469
 599	1	3	0.019035	-20.2423	-0.0913145	-5.9093
 600	1	5	-0.389616	-21.0262	-2.27432	-8.53189
 601	1	5	-0.380104	-21.5209	-1.03108	-4.08066
 602	1	3	-0.045097	-19.2088	0.17411	-8.09246
 603	1	3	-0.056032	-19.5416	1.00662	-5.38955
 604	1	3	-0.174781	-18.6587	1.69673	-6.25213
 605	1	3	-0.129342	-18.4767	1.27309	-7.59506
 606	1	6	0.168842	-19.0994	-0.168687	-9.11961
 607	1	6	0.15893	-19.6741	1.30646	-4.35043
 608	1	6	0.147704	-18.1032	2.55333	-5.87495
 609	1	2	0.584577	-17.5012	1.95379	-8.51056
 610	1	3	-0.046755	-16.2533	1.1913	-8.86674
 611	1	3	-0.110868	-15.7415	1.23556	-10.187
 612	1	3	-0.046132	-14.5812	0.499788	-10.4766
 613	1	3	-0.135873	-15.5849	0.423955	-7.87695
 614	1	3	-0.117662	-14.4051	-0.282551	-8.18306
 615	1	3	-0.064457	-13.9293	-0.224189	-9.49824
 616	1	2	0.492569	-12.7408	-0.870015	-10.11
 617	1	1	-0.072087	-12.7532	-0.504531	-11.4516
 618	1	2	0.477555	-13.8364	0.315945	-11.7561
 619	1	3	0.042617	-11.7868	-0.973487	-12.3908
 620	1	3	-0.20367	-10.4185	-0.96705	-12.0629
 621	1	3	-0.057018	-9.46941	-1.558	-12.914
 622	1	3	-0.18182	-12.1818	-1.53265	-13.619
 623	1	3	-0.14326	-11.2315	-2.12042	-14.4735
 624	1	3	0.043342	-9.86476	-2.17094	-14.1223
 625	1	6	0.163244	-10.0877	-0.546126	-11.1169
 626	1	6	0.101178	-8.43128	-1.56794	-12.597
 627	1	6	0.165346	-13.8763	-0.862166	-7.42803
 628	1	6	0.135111	-15.9688	0.39175	-6.85921
 629	1	6	0.171751	-16.2404	1.81177	-10.9657
 630	1	5	-0.478239	-14.1592	0.763911	-12.8428
 631	1	5	-0.481107	-11.9446	-1.58804	-9.5293
 632	1	5	-0.49957	-17.7823	3.00756	-9.05313
 633	1	6	0.151248	-13.2321	-1.54314	-13.9012
 634	1	6	0.146138	-11.5698	-2.57764	-15.3991
 635	1	7	0.044043	-8.87191	-2.94183	-15.0187
 636	1	7	-0.215975	-8.85102	-2.35343	-16.4548
 637	1	8	0.063789	-8.62161	-1.28077	-16.4348
 638	1	8	0.072206	-9.81704	-2.48156	-16.9574
 639	1	8	0.045489	-8.08702	-2.84868	-17.0687
 640	1	7	0.005306	-9.25165	-4.46	-15.0444
 641	1	7	0.164932	-8.37053	-5.20043	-13.9923
 642	1	8	0.005277	-9.02976	-4.86406	-16.0414
 643	1	8	0.017604	-10.3207	-4.63757	-14.8728
 644	1	3	0.008363	-7.20467	-4.2458	-13.8503
 645	1	7	-0.151488	-7.91992	-6.58453	-14.5226
 646	1	7	-0.269275	-9.10752	-5.37083	-12.6425
 647	1	3	0.096378	-7.45991	-3.01364	-14.4424
 648	1	8	0.063418	-9.44361	-4.40481	-12.2465