pySIMM System Object

2708 atoms
2994 bonds
5289 angles
8483 dihedrals
861 impropers

8 atom types
10 bond types
17 angle types
9 dihedral types
4 improper types

-209.376615 209.376615 xlo xhi
-209.376615 209.376615 ylo yhi
-209.376615 209.376615 zlo zhi

Masses

   1	14.01	# n
   2	12.01	# c
   3	12.01	# ca
   4	1.008	# hn
   5	16.0	# o
   6	1.008	# ha
   7	12.01	# c3
   8	1.008	# hc

Pair Coeffs

   1	0.17	3.249998523775958	# n
   2	0.086	3.3996695084235347	# c
   3	0.086	3.3996695084235347	# ca
   4	0.0157	1.069078461768407	# hn
   5	0.21	2.959921901149463	# o
   6	0.015	2.59964245953351	# ha
   7	0.1094	3.3996695084235347	# c3
   8	0.0157	2.649532787749369	# hc

Bond Coeffs

   1	461.1	1.3984	# ca,ca
   2	427.6	1.3789	# c,n
   3	345.9	1.4906	# c,ca
   4	300.9	1.5375	# c3,c3
   5	345.8	1.086	# ca,ha
   6	384.2	1.4121	# ca,n
   7	637.7	1.2183	# c,o
   8	321.0	1.5156	# c3,ca
   9	330.6	1.0969	# c3,hc
  10	403.2	1.0129	# hn,n

Angle Coeffs

   1	68.72	122.6	# ca,c,o
   2	62.86	111.51	# c3,c3,c3
   3	63.82	123.71	# c,n,ca
   4	67.87	120.19	# ca,ca,n
   5	67.68	115.25	# ca,c,n
   6	63.0	118.11	# ca,c,ca
   7	63.56	112.24	# ca,c3,ca
   8	63.15	112.07	# c3,c3,ca
   9	46.34	109.8	# c3,c3,hc
  10	74.22	123.05	# n,c,o
  11	48.33	117.55	# c,n,hn
  12	64.28	120.33	# c,ca,ca
  13	39.4	107.58	# hc,c3,hc
  14	66.62	120.02	# ca,ca,ca
  15	63.53	120.77	# c3,ca,ca
  16	63.74	127.08	# c,n,c
  17	48.18	119.88	# ca,ca,ha

Dihedral Coeffs

   1	1	2.5	2	180	# X,c,n,X
   2	1	0.45	2	180	# X,ca,n,X
   3	3	0.18	3	0	0.25	2	180	0.2	1	180	# c3,c3,c3,c3
   4	2	2.5	2	180	2.0	1	0	# hn,n,c,o
   5	1	3.625	2	180	# X,ca,ca,X
   6	1	0.16	3	0	# hc,c3,c3,c3
   7	1	1.0	2	180	# X,c,ca,X
   8	1	0.15555555555555556	3	0	# X,c3,c3,X
   9	1	0.0	2	0	# X,c3,ca,X

Improper Coeffs

   1	10.5	-1	2	# c,X,X,o
   2	1.1	-1	2	# ca,X,X,ha
   3	1.1	-1	2	# ca,ca,ca,c3
   4	1.1	-1	2	# n,X,X,hn

Atoms

   1	1	1	0.463181	32.5258	23.9222	68.7276
   2	1	2	0.074399	33.7369	24.042	68.049
   3	1	3	0.034296	33.4921	23.4381	66.7163
   4	1	2	0.051625	31.5292	23.3198	67.9644
   5	1	3	0.019035	32.178	23.0128	66.6637
   6	1	5	-0.389616	34.8068	24.4504	68.4715
   7	1	5	-0.380104	30.3964	23.0182	68.3018
   8	1	3	-0.045097	34.3815	23.2224	65.6573
   9	1	3	-0.056032	31.6676	22.3666	65.5339
  10	1	3	-0.174781	32.5458	22.1371	64.4546
  11	1	3	-0.129342	33.9107	22.5276	64.5168
  12	1	6	0.168842	35.4089	23.568	65.7407
  13	1	6	0.15893	30.6333	22.0323	65.5066
  14	1	6	0.147704	32.1785	21.6131	63.5737
  15	1	2	0.584577	34.8203	22.1937	63.3598
  16	1	3	-0.046755	36.2827	21.8576	63.579
  17	1	3	-0.110868	36.7886	21.4049	64.827
  18	1	3	-0.046132	38.1435	21.0467	64.9157
  19	1	3	-0.135873	37.1631	21.9266	62.4669
  20	1	3	-0.117662	38.5186	21.561	62.5757
  21	1	3	-0.064457	38.9786	21.1222	63.8207
  22	1	2	0.492569	40.3291	20.6614	64.2281
  23	1	1	-0.072087	40.2335	20.332	65.5773
  24	1	2	0.477555	38.941	20.5239	66.0636
  25	1	3	0.042617	41.3296	19.8395	66.3514
  26	1	3	-0.20367	41.5383	20.2721	67.6743
  27	1	3	-0.057018	42.6547	19.8326	68.4087
  28	1	3	-0.18182	42.2492	18.9326	65.793
  29	1	3	-0.14326	43.3627	18.4921	66.5245
  30	1	3	0.043342	43.5981	18.9501	67.8369
  31	1	6	0.163244	40.8458	20.9722	68.1351
  32	1	6	0.101178	42.7839	20.207	69.4182
  33	1	6	0.165346	39.1894	21.6063	61.7198
  34	1	6	0.135111	36.7838	22.2586	61.5021
  35	1	6	0.171751	36.1496	21.2848	65.6983
  36	1	5	-0.478239	38.5225	20.3155	67.1917
  37	1	5	-0.481107	41.3057	20.6037	63.4996
  38	1	5	-0.49957	34.3589	22.1718	62.229
  39	1	6	0.151248	42.1216	18.5834	64.7719
  40	1	6	0.146138	44.0661	17.8104	66.0523
  41	1	7	0.044043	44.8733	18.4903	68.5768
  42	1	7	-0.215975	45.1951	19.3192	69.8506
  43	1	8	0.063789	45.2719	20.388	69.6116
  44	1	8	0.072206	46.1549	19.0109	70.2846
  45	1	8	0.045489	44.428	19.1924	70.6236
  46	1	7	0.005306	44.8009	16.9676	68.9229
  47	1	7	0.164932	46.1063	16.2705	68.426
  48	1	8	0.005277	43.9394	16.5239	68.4123
  49	1	8	0.017604	44.6417	16.7988	69.9956
  50	1	3	0.008363	46.7465	17.3377	67.5634
  51	1	7	-0.151488	45.781	14.9973	67.6077
  52	1	7	-0.269275	47.0332	15.9102	69.6113
  53	1	3	0.096378	46.0772	18.5527	67.6518
  54	1	8	0.063418	47.2878	16.8023	70.1977
  55	1	8	0.061085	47.9704	15.4662	69.2536
  56	1	8	0.065045	46.5511	15.1878	70.2823
  57	1	3	-0.142025	47.8847	17.2001	66.7514
  58	1	3	-0.448546	46.5195	19.6723	66.9282
  59	1	3	0.277842	47.654	19.5516	66.11
  60	1	3	-0.409063	48.3309	18.3209	66.0233
  61	1	6	0.203923	45.992	20.6178	66.9924
  62	1	8	0.016419	45.1575	15.2384	66.7366
  63	1	8	0.049665	45.241	14.2665	68.2229
  64	1	8	0.035794	46.6982	14.5184	67.2432
  65	1	6	0.161583	48.4089	16.2487	66.69
  66	1	6	0.199011	49.2071	18.2449	65.3853
  67	1	1	0.463181	40.1084	16.1122	63.6662
  68	1	2	0.074399	39.7634	16.7546	64.8525
  69	1	3	0.034296	40.5224	16.0474	65.9114
  70	1	2	0.051625	41.004	15.0642	63.8513
  71	1	3	0.019035	41.2465	15.0304	65.3182
  72	1	5	-0.389616	38.9651	17.6634	65.014
  73	1	5	-0.380104	41.4746	14.3112	63.0155
  74	1	3	-0.045097	40.5746	16.2929	67.289
  75	1	3	-0.056032	42.0382	14.1676	66.0794
  76	1	3	-0.174781	42.0821	14.3741	67.4733
  77	1	3	-0.129342	41.3637	15.4335	68.0947
  78	1	6	0.168842	40.0325	17.1451	67.6918
  79	1	6	0.15893	42.5994	13.3656	65.6041
  80	1	6	0.147704	42.7024	13.7149	68.079
  81	1	2	0.584577	41.5281	15.6529	69.5831
  82	1	3	-0.046755	40.8372	16.8013	70.2677
  83	1	3	-0.110868	39.4275	16.9468	70.2504
  84	1	3	-0.046132	38.8654	18.0186	70.9626
  85	1	3	-0.135873	41.6284	17.7094	71.015
  86	1	3	-0.117662	41.0476	18.7886	71.705
  87	1	3	-0.064457	39.6563	18.9164	71.6549
  88	1	2	0.492569	38.7734	19.9133	72.3076
  89	1	1	-0.072087	37.4784	19.5381	71.982
  90	1	2	0.477555	37.4415	18.4086	71.1727
  91	1	3	0.042617	36.3356	20.2627	72.4107
  92	1	3	-0.20367	35.3133	19.6459	73.1526
  93	1	3	-0.057018	34.1911	20.386	73.5707
  94	1	3	-0.18182	36.2389	21.6322	72.1223
  95	1	3	-0.14326	35.1212	22.3688	72.5377
  96	1	3	0.043342	34.0595	21.7526	73.2364
  97	1	6	0.163244	35.3818	18.5904	73.4011
  98	1	6	0.101178	33.4126	19.8749	74.1286
  99	1	6	0.165346	41.6518	19.4889	72.2795
 100	1	6	0.135111	42.7047	17.567	71.0637
 101	1	6	0.171751	38.7868	16.2385	69.7284
 102	1	5	-0.478239	36.4615	17.8182	70.7482
 103	1	5	-0.481107	39.137	20.8534	72.9926
 104	1	5	-0.49957	42.3346	14.9889	70.2141
 105	1	6	0.151248	37.0339	22.1326	71.5738
 106	1	6	0.146138	35.077	23.4263	72.2879
 107	1	7	0.044043	32.7929	22.5738	73.5684
 108	1	7	-0.215975	31.5319	21.7027	73.8213
 109	1	8	0.063789	31.3513	21.0154	72.9855
 110	1	8	0.072206	30.6371	22.328	73.9293
 111	1	8	0.045489	31.6295	21.1094	74.739
 112	1	7	0.005306	33.042	23.5441	74.7675
 113	1	7	0.164932	32.5498	24.9731	74.3633
 114	1	8	0.005277	34.1179	23.5759	74.9861
 115	1	8	0.017604	32.5561	23.1917	75.6869
 116	1	3	0.008363	32.4056	24.8566	72.8574
 117	1	7	-0.151488	33.5877	26.0493	74.765
 118	1	7	-0.269275	31.1832	25.3008	75.0114
 119	1	3	0.096378	32.4977	23.5388	72.4335
 120	1	8	0.063418	30.4248	24.5588	74.7339
 121	1	8	0.061085	30.8225	26.2843	74.6846
 122	1	8	0.065045	31.2606	25.3147	76.1059
 123	1	3	-0.142025	32.2653	25.8979	71.9243
 124	1	3	-0.448546	32.4681	23.2145	71.0699
 125	1	3	0.277842	32.3844	24.2417	70.1089
 126	1	3	-0.409063	32.27	25.5822	70.549
 127	1	6	0.203923	32.5782	22.1816	70.7647
 128	1	8	0.016419	34.552	25.8677	74.2729
 129	1	8	0.049665	33.7537	26.0447	75.8497
 130	1	8	0.035794	33.2482	27.0529	74.4805
 131	1	6	0.161583	32.2018	26.9313	72.2592
 132	1	6	0.199011	32.2178	26.3852	69.8175
 133	1	1	0.463181	33.5314	12.166	75.4999
 134	1	2	0.074399	32.5819	13.1873	75.4132
 135	1	3	0.034296	33.0596	14.0743	74.3232
 136	1	2	0.051625	34.5632	12.3167	74.5697
 137	1	3	0.019035	34.2366	13.5571	73.8212
 138	1	5	-0.389616	31.5724	13.3528	76.0788
 139	1	5	-0.380104	35.5289	11.596	74.3767
 140	1	3	-0.045097	32.5041	15.2561	73.8207
 141	1	3	-0.056032	34.9319	14.1961	72.7895
 142	1	3	-0.174781	34.3916	15.3905	72.267
 143	1	3	-0.129342	33.1684	15.9218	72.7631
 144	1	6	0.168842	31.5813	15.6479	74.2459
 145	1	6	0.15893	35.8673	13.7828	72.4183
 146	1	6	0.147704	34.9449	15.9129	71.4899
 147	1	2	0.584577	32.5859	17.2192	72.2539
 148	1	3	-0.046755	32.895	17.7098	70.861
 149	1	3	-0.110868	33.1156	16.8152	69.7834
 150	1	3	-0.046132	33.4142	17.3542	68.5241
 151	1	3	-0.135873	32.9306	19.1079	70.6228
 152	1	3	-0.117662	33.2476	19.6274	69.3549
 153	1	3	-0.064457	33.4895	18.7173	68.3248
 154	1	2	0.492569	33.8557	18.9649	66.9127
 155	1	1	-0.072087	33.9741	17.7119	66.3268
 156	1	2	0.477555	33.7202	16.6852	67.2298
 157	1	3	0.042617	34.382	17.5182	64.9786
 158	1	3	-0.20367	33.7135	16.6224	64.1259
 159	1	3	-0.057018	34.175	16.4082	62.8134
 160	1	3	-0.18182	35.4871	18.2254	64.4849
 161	1	3	-0.14326	35.9211	18.0477	63.1661
 162	1	3	0.043342	35.3056	17.0987	62.321
 163	1	6	0.163244	32.8596	16.0579	64.4919
 164	1	6	0.101178	33.6624	15.6743	62.2007
 165	1	6	0.165346	33.312	20.6962	69.1731
 166	1	6	0.135111	32.7284	19.7949	71.438
 167	1	6	0.171751	33.0586	15.7365	69.9113
 168	1	5	-0.478239	33.7624	15.4821	67.0352
 169	1	5	-0.481107	34.0466	20.0589	66.4103
 170	1	5	-0.49957	31.8821	17.8883	72.9943
 171	1	6	0.151248	36.0382	18.8924	65.1386
 172	1	6	0.146138	36.7945	18.6019	62.8305
 173	1	7	0.044043	35.9632	16.7663	60.962
 174	1	7	-0.215975	35.5178	15.4012	60.3707
 175	1	8	0.063789	34.4592	15.416	60.0826
 176	1	8	0.072206	35.6694	14.5922	61.0968
 177	1	8	0.045489	36.0987	15.1491	59.4756
 178	1	7	0.005306	35.7699	17.9115	59.9171
 179	1	7	0.164932	37.1586	18.228	59.2678
 180	1	8	0.005277	35.3951	18.8058	60.4331
 181	1	8	0.017604	35.015	17.6559	59.1619
 182	1	3	0.008363	38.1265	17.5879	60.2463
 183	1	7	-0.151488	37.375	19.7561	59.1508
 184	1	7	-0.269275	37.2938	17.5805	57.8689
 185	1	3	0.096378	37.4704	16.754	61.1409
 186	1	8	0.063418	38.2871	17.7749	57.4451
 187	1	8	0.061085	36.545	17.9838	57.1755
 188	1	8	0.065045	37.1611	16.4934	57.9177
 189	1	3	-0.142025	39.5022	17.8406	60.385
 190	1	3	-0.448546	38.1512	16.1723	62.2195
 191	1	3	0.277842	39.5104	16.4711	62.4265
 192	1	3	-0.409063	40.1855	17.2892	61.4896
 193	1	6	0.203923	37.5961	15.6022	62.9602
 194	1	8	0.016419	38.3496	19.9876	58.7032
 195	1	8	0.049665	37.3358	20.2295	60.1383
 196	1	8	0.035794	36.5986	20.2134	58.5243
 197	1	6	0.161583	40.0128	18.5054	59.6914
 198	1	6	0.199011	41.2319	17.5415	61.6487
 199	1	1	0.463181	20.6977	1.05479	69.5815
 200	1	2	0.074399	21.7619	1.14246	68.6829
 201	1	3	0.034296	22.9847	1.03611	69.5176
 202	1	2	0.051625	21.1189	0.897606	70.9025
 203	1	3	0.019035	22.6025	0.896783	70.8378
 204	1	5	-0.389616	21.7268	1.2747	67.47
 205	1	5	-0.380104	20.4412	0.793124	71.9118
 206	1	3	-0.045097	24.3326	1.0619	69.1423
 207	1	3	-0.056032	23.5467	0.775359	71.8624
 208	1	3	-0.174781	24.9125	0.809319	71.51
 209	1	3	-0.129342	25.3153	0.967957	70.1551
 210	1	6	0.168842	24.6074	1.16164	68.0933
 211	1	6	0.15893	23.2259	0.653839	72.895
 212	1	6	0.147704	25.6583	0.69236	72.294
 213	1	2	0.584577	26.7701	0.991837	69.7588
 214	1	3	-0.046755	27.7836	1.64485	70.6676
 215	1	3	-0.110868	27.4126	2.69682	71.5411
 216	1	3	-0.046132	28.4032	3.27932	72.3413
 217	1	3	-0.135873	29.1429	1.23912	70.6064
 218	1	3	-0.117662	30.1247	1.84294	71.4196
 219	1	3	-0.064457	29.7185	2.86602	72.2851
 220	1	2	0.492569	30.5038	3.69153	73.2416
 221	1	1	-0.072087	29.5917	4.56374	73.8257
 222	1	2	0.477555	28.3046	4.37961	73.3347
 223	1	3	0.042617	29.9327	5.52906	74.8148
 224	1	3	-0.20367	29.1629	5.65552	75.9839
 225	1	3	-0.057018	29.499	6.60857	76.9591
 226	1	3	-0.18182	31.0453	6.37079	74.641
 227	1	3	-0.14326	31.3816	7.32466	75.6167
 228	1	3	0.043342	30.6094	7.462	76.7923
 229	1	6	0.163244	28.2963	5.01822	76.1393
 230	1	6	0.101178	28.8899	6.67831	77.8553
 231	1	6	0.165346	31.1674	1.53291	71.3754
 232	1	6	0.135111	29.4363	0.447894	69.9183
 233	1	6	0.171751	26.3925	3.07328	71.5885
 234	1	5	-0.478239	27.283	4.96723	73.6466
 235	1	5	-0.481107	31.7	3.59576	73.4553
 236	1	5	-0.49957	27.1144	0.514013	68.6904
 237	1	6	0.151248	31.6619	6.28185	73.7496
 238	1	6	0.146138	32.2574	7.94398	75.4469
 239	1	7	0.044043	30.9507	8.48797	77.8926
 240	1	7	-0.215975	29.7307	9.39937	78.1978
 241	1	8	0.063789	28.9053	8.83479	78.6476
 242	1	8	0.072206	29.3559	9.87175	77.2811
 243	1	8	0.045489	30.0056	10.1993	78.8978
 244	1	7	0.005306	31.4386	7.76009	79.1868
 245	1	7	0.164932	32.9982	7.77796	79.1921
 246	1	8	0.005277	31.0398	6.74102	79.2738
 247	1	8	0.017604	31.0735	8.31052	80.0644
 248	1	3	0.008363	33.2955	8.9398	78.2646
 249	1	7	-0.151488	33.5744	6.46354	78.6131
 250	1	7	-0.269275	33.5503	8.00582	80.6204
 251	1	3	0.096378	32.1693	9.33498	77.5548
 252	1	8	0.063418	33.2232	7.20622	81.2972
 253	1	8	0.061085	33.1996	8.96248	81.0287
 254	1	8	0.065045	34.6471	8.02136	80.6222
 255	1	3	-0.142025	34.5241	9.58954	78.0757
 256	1	3	-0.448546	32.2298	10.3983	76.6389
 257	1	3	0.277842	33.45	11.0808	76.4316
 258	1	3	-0.409063	34.5901	10.6587	77.1602
 259	1	6	0.203923	31.3337	10.6964	76.1008
 260	1	8	0.016419	33.1977	6.27476	77.6006
 261	1	8	0.049665	33.3006	5.60578	79.2404
 262	1	8	0.035794	34.6695	6.50762	78.5595
 263	1	6	0.161583	35.4069	9.26851	78.6245
 264	1	6	0.199011	35.5433	11.1601	77.0024
 265	1	1	0.463181	26.8265	4.67661	52.6195
 266	1	2	0.074399	25.4933	4.26262	52.5969
 267	1	3	0.034296	25.0939	4.15723	54.022
 268	1	2	0.051625	27.3121	4.85363	53.9166
 269	1	3	0.019035	26.1743	4.5086	54.807
 270	1	5	-0.389616	24.7765	4.04874	51.6321
 271	1	5	-0.380104	28.4245	5.20532	54.274
 272	1	3	-0.045097	23.8718	3.77151	54.5835
 273	1	3	-0.056032	26.0989	4.48465	56.2037
 274	1	3	-0.174781	24.8754	4.10202	56.794
 275	1	3	-0.129342	23.7499	3.76178	55.993
 276	1	6	0.168842	23.0401	3.48775	53.9399
 277	1	6	0.15893	26.9672	4.74306	56.8062
 278	1	6	0.147704	24.8131	4.04869	57.8794
 279	1	2	0.584577	22.4393	3.32509	56.601
 280	1	3	-0.046755	21.9987	3.8719	57.937
 281	1	3	-0.110868	21.1407	3.09197	58.7483
 282	1	3	-0.046132	20.725	3.61587	59.9794
 283	1	3	-0.135873	22.3781	5.17133	58.3715
 284	1	3	-0.117662	21.9452	5.67961	59.6137
 285	1	3	-0.064457	21.119	4.86901	60.4016
 286	1	2	0.492569	20.5106	5.12101	61.7347
 287	1	1	-0.072087	19.7796	3.97832	62.0404
 288	1	2	0.477555	19.8519	3.02671	61.0287
 289	1	3	0.042617	19.059	3.79632	63.2556
 290	1	3	-0.20367	18.2365	4.81697	63.7638
 291	1	3	-0.057018	17.5416	4.6411	64.9724
 292	1	3	-0.18182	19.1598	2.59072	63.9713
 293	1	3	-0.14326	18.4603	2.41219	65.1757
 294	1	3	0.043342	17.6572	3.44339	65.7103
 295	1	6	0.163244	18.1392	5.7572	63.2273
 296	1	6	0.101178	16.9114	5.44959	65.3266
 297	1	6	0.165346	22.233	6.67338	59.953
 298	1	6	0.135111	22.9958	5.80196	57.7366
 299	1	6	0.171751	20.8086	2.10357	58.4315
 300	1	5	-0.478239	19.3224	1.92973	60.9828
 301	1	5	-0.481107	20.6465	6.13368	62.4002
 302	1	5	-0.49957	21.7299	2.53486	56.0004
 303	1	6	0.151248	19.7805	1.7811	63.5943
 304	1	6	0.146138	18.5555	1.46031	65.6912
 305	1	7	0.044043	16.8898	3.24338	67.0346
 306	1	7	-0.215975	16.7567	4.5568	67.8551
 307	1	8	0.063789	16.0899	5.2786	67.3685
 308	1	8	0.072206	17.7374	5.03064	67.9908
 309	1	8	0.045489	16.3456	4.35726	68.8526
 310	1	7	0.005306	15.4859	2.61652	66.7586
 311	1	7	0.164932	15.2513	1.44956	67.7706
 312	1	8	0.005277	15.4673	2.21858	65.7349
 313	1	8	0.017604	14.6858	3.3668	66.8071
 314	1	3	0.008363	16.6395	1.21943	68.3354
 315	1	7	-0.151488	14.7084	0.191002	67.0511
 316	1	7	-0.269275	14.2726	1.87107	68.893
 317	1	3	0.096378	17.535	2.20071	67.9332
 318	1	8	0.063418	14.6392	2.75751	69.4249
 319	1	8	0.061085	14.1512	1.06625	69.6288
 320	1	8	0.065045	13.2825	2.10618	68.4822
 321	1	3	-0.142025	17.0532	0.176469	69.1786
 322	1	3	-0.448546	18.8738	2.17283	68.3544
 323	1	3	0.277842	19.3267	1.12314	69.1835
 324	1	3	-0.409063	18.3993	0.1344	69.5938
 325	1	6	0.203923	19.5612	2.94322	68.0137
 326	1	8	0.016419	13.7476	0.402635	66.5647
 327	1	8	0.049665	14.5543	-0.633106	67.7585
 328	1	8	0.035794	15.4107	-0.153651	66.2809
 329	1	6	0.161583	16.3449	-0.582794	69.5034
 330	1	6	0.199011	18.7282	-0.668495	70.2508
 331	1	1	0.463181	12.0221	2.31245	42.0065
 332	1	2	0.074399	12.9722	3.02379	41.2707
 333	1	3	0.034296	14.2027	3.00712	42.1035
 334	1	2	0.051625	12.5242	1.8458	43.2224
 335	1	3	0.019035	13.936	2.30116	43.2604
 336	1	5	-0.389616	12.8525	3.54564	40.174
 337	1	5	-0.380104	11.9603	1.18157	44.077
 338	1	3	-0.045097	15.4624	3.56938	41.862
 339	1	3	-0.056032	14.912	2.11253	44.2436
 340	1	3	-0.174781	16.191	2.66265	44.0192
 341	1	3	-0.129342	16.4815	3.38101	42.8264
 342	1	6	0.168842	15.644	4.13341	40.9482
 343	1	6	0.15893	14.6781	1.56371	45.1536
 344	1	6	0.147704	16.9507	2.54681	44.7896
 345	1	2	0.584577	17.8372	4.0007	42.5888
 346	1	3	-0.046755	19.0701	3.35717	43.1737
 347	1	3	-0.110868	20.1612	4.17191	43.5602
 348	1	3	-0.046132	21.2966	3.55464	44.1038
 349	1	3	-0.135873	19.1699	1.94576	43.3065
 350	1	3	-0.117662	20.325	1.34535	43.8474
 351	1	3	-0.064457	21.3742	2.18337	44.2441
 352	1	2	0.492569	22.6848	1.85389	44.8632
 353	1	1	-0.072087	23.3186	3.0714	45.0787
 354	1	2	0.477555	22.5553	4.14545	44.6355
 355	1	3	0.042617	24.5726	3.196	45.74
 356	1	3	-0.20367	25.672	2.41468	45.3454
 357	1	3	-0.057018	26.8842	2.48197	46.0525
 358	1	3	-0.18182	24.7157	4.06435	46.8355
 359	1	3	-0.14326	25.9266	4.12865	47.5455
 360	1	3	0.043342	27.0269	3.32133	47.1775
 361	1	6	0.163244	25.581	1.73071	44.5056
 362	1	6	0.101178	27.7125	1.85823	45.7312
 363	1	6	0.165346	20.4057	0.264888	43.9564
 364	1	6	0.135111	18.3532	1.30738	42.9766
 365	1	6	0.171751	20.1209	5.25553	43.4533
 366	1	5	-0.478239	22.8222	5.33341	44.6909
 367	1	5	-0.481107	23.0837	0.735405	45.1394
 368	1	5	-0.49957	17.9313	5.02631	41.9349
 369	1	6	0.151248	23.8791	4.6819	47.154
 370	1	6	0.146138	25.9846	4.80353	48.3943
 371	1	7	0.044043	28.3518	3.31675	47.9699
 372	1	7	-0.215975	28.7475	1.87029	48.3761
 373	1	8	0.063789	29.0083	1.26005	47.5032
 374	1	8	0.072206	27.9222	1.37266	48.9011
 375	1	8	0.045489	29.6167	1.87627	49.0467
 376	1	7	0.005306	29.4973	3.99412	47.151
 377	1	7	0.164932	29.6855	5.44787	47.6863
 378	1	8	0.005277	29.3028	3.97691	46.0706
 379	1	8	0.017604	30.429	3.43329	47.305
 380	1	3	0.008363	29.0306	5.37051	49.0515
 381	1	7	-0.151488	28.9407	6.46714	46.7916
 382	1	7	-0.269275	31.1846	5.82381	47.7754
 383	1	3	0.096378	28.3005	4.20045	49.2069
 384	1	8	0.063418	31.3134	6.84618	48.1517
 385	1	8	0.061085	31.6612	5.76493	46.7887
 386	1	8	0.065045	31.7191	5.14609	48.4535
 387	1	3	-0.142025	29.075	6.32739	50.0771
 388	1	3	-0.448546	27.5883	3.94645	50.3897
 389	1	3	0.277842	27.5987	4.89629	51.4351
 390	1	3	-0.409063	28.3563	6.08131	51.2647
 391	1	6	0.203923	26.9973	3.03819	50.4761
 392	1	8	0.016419	29.0171	7.48063	47.2055
 393	1	8	0.049665	27.8754	6.21734	46.7096
 394	1	8	0.035794	29.3632	6.48227	45.779
 395	1	6	0.161583	29.6459	7.24467	49.9495
 396	1	6	0.199011	28.3859	6.81856	52.0648
 397	1	1	0.463181	13.1636	-13.7063	33.2231
 398	1	2	0.074399	12.9098	-12.3837	33.6011
 399	1	3	0.034296	12.9306	-12.3871	35.0852
 400	1	2	0.051625	13.3412	-14.5466	34.3277
 401	1	3	0.019035	13.1965	-13.6707	35.5169
 402	1	5	-0.389616	12.726	-11.4042	32.8961
 403	1	5	-0.380104	13.5472	-15.7492	34.3517
 404	1	3	-0.045097	12.7447	-11.332	35.9859
 405	1	3	-0.056032	13.3116	-13.9751	36.8775
 406	1	3	-0.174781	13.1385	-12.926	37.8043
 407	1	3	-0.129342	12.8369	-11.6077	37.3722
 408	1	6	0.168842	12.558	-10.3288	35.6079
 409	1	6	0.15893	13.5387	-14.989	37.2006
 410	1	6	0.147704	13.2379	-13.1333	38.8692
 411	1	2	0.584577	12.6772	-10.5049	38.3882
 412	1	3	-0.046755	11.7244	-9.37282	38.102
 413	1	3	-0.110868	12.0244	-8.07593	38.5807
 414	1	3	-0.046132	11.1199	-7.04022	38.3104
 415	1	3	-0.135873	10.5111	-9.59648	37.3965
 416	1	3	-0.117662	9.60923	-8.54126	37.1488
 417	1	3	-0.064457	9.94751	-7.26641	37.6185
 418	1	2	0.492569	9.21561	-5.9767	37.5116
 419	1	1	-0.072087	10.0162	-5.03144	38.144
 420	1	2	0.477555	11.181	-5.59533	38.6559
 421	1	3	0.042617	9.68909	-3.6476	38.2459
 422	1	3	-0.20367	9.16541	-2.94801	37.1437
 423	1	3	-0.057018	8.85377	-1.58188	37.2454
 424	1	3	-0.18182	9.88499	-2.95388	39.4528
 425	1	3	-0.14326	9.58124	-1.58627	39.5524
 426	1	3	0.043342	9.06956	-0.87259	38.445
 427	1	6	0.163244	8.98997	-3.46226	36.2023
 428	1	6	0.101178	8.43786	-1.07502	36.3802
 429	1	6	0.165346	8.67434	-8.70432	36.6149
 430	1	6	0.135111	10.2528	-10.5976	37.0578
 431	1	6	0.171751	12.9383	-7.87909	39.1405
 432	1	5	-0.478239	12.0967	-5.04216	39.2401
 433	1	5	-0.481107	8.13406	-5.81454	36.9728
 434	1	5	-0.49957	13.3239	-10.521	39.4223
 435	1	6	0.151248	10.2834	-3.47249	40.3217
 436	1	6	0.146138	9.74674	-1.09611	40.5072
 437	1	7	0.044043	8.72728	0.630711	38.5208
 438	1	7	-0.215975	9.36161	1.41493	37.3394
 439	1	8	0.063789	8.90761	1.14169	36.3794
 440	1	8	0.072206	10.4393	1.2192	37.2731
 441	1	8	0.045489	9.22638	2.49639	37.472
 442	1	7	0.005306	7.1796	0.840735	38.5597
 443	1	7	0.164932	6.75688	1.05981	40.0458
 444	1	8	0.005277	6.63438	0.00849042	38.0952
 445	1	8	0.017604	6.92526	1.73833	37.9801
 446	1	3	0.008363	8.068	1.47213	40.6871
 447	1	7	-0.151488	6.23547	-0.253902	40.6762
 448	1	7	-0.269275	5.67525	2.16089	40.1649
 449	1	3	0.096378	9.14863	1.25171	39.8435
 450	1	8	0.063418	6.04465	3.11726	39.7728
 451	1	8	0.061085	5.38409	2.31676	41.2111
 452	1	8	0.065045	4.77469	1.88628	39.6011
 453	1	3	-0.142025	8.2631	1.98456	41.9784
 454	1	3	-0.448546	10.4597	1.53992	40.2569
 455	1	3	0.277842	10.6898	2.05505	41.5518
 456	1	3	-0.409063	9.57649	2.27173	42.4011
 457	1	6	0.203923	11.2916	1.35472	39.5822
 458	1	8	0.016419	6.98046	-1.05507	40.6012
 459	1	8	0.049665	5.32224	-0.594642	40.1722
 460	1	8	0.035794	6.00246	-0.112023	41.7391
 461	1	6	0.161583	7.41588	2.13905	42.6432
 462	1	6	0.199011	9.73784	2.64531	43.4105
 463	1	1	0.463181	13.2598	-0.595177	19.2778
 464	1	2	0.074399	13.2154	-1.88571	19.808
 465	1	3	0.034296	14.238	-1.90375	20.8785
 466	1	2	0.051625	14.2183	0.207756	19.8996
 467	1	3	0.019035	14.8431	-0.663813	20.9323
 468	1	5	-0.389616	12.4774	-2.81177	19.512
 469	1	5	-0.380104	14.487	1.3776	19.6812
 470	1	3	-0.045097	14.5847	-2.93698	21.754
 471	1	3	-0.056032	15.8591	-0.395161	21.8574
 472	1	3	-0.174781	16.2272	-1.42361	22.7533
 473	1	3	-0.129342	15.5778	-2.68702	22.7304
 474	1	6	0.168842	14.0864	-3.90085	21.6705
 475	1	6	0.15893	16.3399	0.580467	21.8824
 476	1	6	0.147704	17.0131	-1.23801	23.4847
 477	1	2	0.584577	15.9648	-3.75883	23.7212
 478	1	3	-0.046755	14.9078	-4.7096	24.2337
 479	1	3	-0.110868	15.2829	-6.00623	24.6626
 480	1	3	-0.046132	14.285	-6.86799	25.1421
 481	1	3	-0.135873	13.5474	-4.30849	24.3393
 482	1	3	-0.117662	12.5613	-5.19112	24.8237
 483	1	3	-0.064457	12.9642	-6.47297	25.2132
 484	1	2	0.492569	12.1701	-7.59691	25.7741
 485	1	1	-0.072087	13.0795	-8.6184	26.017
 486	1	2	0.477555	14.3751	-8.26165	25.6588
 487	1	3	0.042617	12.7208	-9.87099	26.5906
 488	1	3	-0.20367	11.6349	-10.6048	26.0829
 489	1	3	-0.057018	11.2633	-11.8258	26.6694
 490	1	3	-0.18182	13.4291	-10.3821	27.6919
 491	1	3	-0.14326	13.0538	-11.6014	28.2826
 492	1	3	0.043342	11.9609	-12.3435	27.7807
 493	1	6	0.163244	11.0669	-10.2249	25.2376
 494	1	6	0.101178	10.4231	-12.3732	26.2527
 495	1	6	0.165346	11.5187	-4.88874	24.9093
 496	1	6	0.135111	13.2497	-3.29897	24.0662
 497	1	6	0.171751	16.3215	-6.33375	24.6243
 498	1	5	-0.478239	15.3903	-8.93091	25.7402
 499	1	5	-0.481107	10.9682	-7.59141	25.9781
 500	1	5	-0.49957	17.1179	-3.85011	24.108
 501	1	6	0.151248	14.2764	-9.83259	28.095
 502	1	6	0.146138	13.63	-11.9594	29.1306
 503	1	7	0.044043	11.5261	-13.6936	28.3885
 504	1	7	-0.215975	10.0294	-13.6561	28.8002
 505	1	8	0.063789	9.8277	-12.8023	29.4593
 506	1	8	0.072206	9.74773	-14.5707	29.338
 507	1	8	0.045489	9.37258	-13.5684	27.9263
 508	1	7	0.005306	11.7991	-14.8555	27.3798
 509	1	7	0.164932	13.1787	-15.4875	27.7392
 510	1	8	0.005277	11.7565	-14.5285	26.3329
 511	1	8	0.017604	11.0177	-15.6183	27.4981
 512	1	3	0.008363	13.3242	-15.0887	29.1949
 513	1	7	-0.151488	14.3167	-14.8752	26.8878
 514	1	7	-0.269275	13.1549	-17.0241	27.5516
 515	1	3	0.096378	12.3961	-14.1233	29.5626
 516	1	8	0.063418	14.1253	-17.4684	27.8054
 517	1	8	0.061085	12.9261	-17.2864	26.5109
 518	1	8	0.065045	12.3951	-17.4867	28.1947
 519	1	3	-0.142025	14.2413	-15.5903	30.1288
 520	1	3	-0.448546	12.3279	-13.6548	30.8862
 521	1	3	0.277842	13.2262	-14.1532	31.8597
 522	1	3	-0.409063	14.1885	-15.112	31.4525
 523	1	6	0.203923	11.5894	-12.902	31.1487
 524	1	8	0.016419	14.1744	-15.1014	25.8234
 525	1	8	0.049665	15.2911	-15.2776	27.1918
 526	1	8	0.035794	14.3573	-13.7851	26.9979
 527	1	6	0.161583	14.9704	-16.343	29.8362
 528	1	6	0.199011	14.8905	-15.5133	32.1811
 529	1	1	0.463181	17.212	9.21102	7.00754
 530	1	2	0.074399	15.9127	9.71879	6.9583
 531	1	3	0.034296	15.5744	10.0562	8.36382
 532	1	2	0.051625	17.7319	9.19005	8.30308
 533	1	3	0.019035	16.6515	9.73127	9.16516
 534	1	5	-0.389616	15.1785	9.84805	5.99221
 535	1	5	-0.380104	18.8236	8.79669	8.68046
 536	1	3	-0.045097	14.4017	10.6013	8.89767
 537	1	3	-0.056032	16.6175	9.92359	10.5507
 538	1	3	-0.174781	15.4389	10.4558	11.115
 539	1	3	-0.129342	14.3233	10.7851	10.2975
 540	1	6	0.168842	13.5715	10.8633	8.2432
 541	1	6	0.15893	17.4798	9.66815	11.1637
 542	1	6	0.147704	15.3999	10.6276	12.1895
 543	1	2	0.584577	13.0587	11.358	10.8813
 544	1	3	-0.046755	12.4858	10.7657	12.1463
 545	1	3	-0.110868	12.8228	9.45242	12.5557
 546	1	3	-0.046132	12.1767	8.91557	13.6751
 547	1	3	-0.135873	11.5057	11.4884	12.8768
 548	1	3	-0.117662	10.8668	10.9254	14.0008
 549	1	3	-0.064457	11.2276	9.62555	14.3762
 550	1	2	0.492569	10.65	8.728	15.4105
 551	1	1	-0.072087	11.2747	7.4905	15.2398
 552	1	2	0.477555	12.2318	7.54019	14.2274
 553	1	3	0.042617	10.8904	6.28304	15.908
 554	1	3	-0.20367	11.8291	5.27058	16.1948
 555	1	3	-0.057018	11.4223	4.03417	16.7306
 556	1	3	-0.18182	9.54196	6.04096	16.228
 557	1	3	-0.14326	9.13698	4.81564	16.773
 558	1	3	0.043342	10.0616	3.77879	17.0022
 559	1	6	0.163244	12.8809	5.41455	15.9638
 560	1	6	0.101178	12.1743	3.26858	16.897
 561	1	6	0.165346	10.0857	11.4641	14.5348
 562	1	6	0.135111	11.213	12.484	12.546
 563	1	6	0.171751	13.5119	8.82868	11.9907
 564	1	5	-0.478239	12.9115	6.63834	13.7692
 565	1	5	-0.481107	9.72264	9.02188	16.145
 566	1	5	-0.49957	12.4471	12.2156	10.2671
 567	1	6	0.151248	8.77885	6.78653	16.0325
 568	1	6	0.146138	8.08137	4.66233	16.9796
 569	1	7	0.044043	9.54678	2.41152	17.4917
 570	1	7	-0.215975	8.93561	2.54752	18.9111
 571	1	8	0.063789	8.05016	3.19512	18.9031
 572	1	8	0.072206	9.66285	2.98393	19.6072
 573	1	8	0.045489	8.63361	1.56881	19.3059
 574	1	7	0.005306	8.49545	1.84385	16.4809
 575	1	7	0.164932	9.25228	0.932947	15.4705
 576	1	8	0.005277	7.90915	2.61647	15.9692
 577	1	8	0.017604	7.77365	1.22989	17.0365
 578	1	3	0.008363	10.4395	0.50316	16.3084
 579	1	7	-0.151488	9.71751	1.72071	14.2213
 580	1	7	-0.269275	8.36492	-0.25918	15.0353
 581	1	3	0.096378	10.5953	1.30293	17.4368
 582	1	8	0.063418	8.89322	-0.905639	14.3238
 583	1	8	0.061085	7.44719	0.0958881	14.5497
 584	1	8	0.065045	8.07805	-0.872627	15.8991
 585	1	3	-0.142025	11.2694	-0.60517	16.0904
 586	1	3	-0.448546	11.5581	0.984668	18.4135
 587	1	3	0.277842	12.3753	-0.157503	18.243
 588	1	3	-0.409063	12.2329	-0.927001	17.0634
 589	1	6	0.203923	11.6459	1.59238	19.3096
 590	1	8	0.016419	10.2849	1.07218	13.5418
 591	1	8	0.049665	10.367	2.56146	14.4922
 592	1	8	0.035794	8.85952	2.12179	13.6674
 593	1	6	0.161583	11.1368	-1.22922	15.209
 594	1	6	0.199011	12.8401	-1.81919	16.926
 595	1	1	0.463181	22.5072	18.9216	-8.1271
 596	1	2	0.074399	22.6119	17.9887	-7.09096
 597	1	3	0.034296	22.8953	18.7852	-5.87306
 598	1	2	0.051625	22.7246	20.2313	-7.68546
 599	1	3	0.019035	22.9684	20.1176	-6.22437
 600	1	5	-0.389616	22.4889	16.7747	-7.13175
 601	1	5	-0.380104	22.6809	21.2711	-8.32287
 602	1	3	-0.045097	23.0466	18.3627	-4.54867
 603	1	3	-0.056032	23.2187	21.1094	-5.26908
 604	1	3	-0.174781	23.3735	20.7074	-3.92482
 605	1	3	-0.129342	23.2637	19.3423	-3.54915
 606	1	6	0.168842	22.9893	17.3013	-4.31571
 607	1	6	0.15893	23.281	22.1556	-5.56118
 608	1	6	0.147704	23.5647	21.4607	-3.16147
 609	1	2	0.584577	23.4019	18.9446	-2.09941
 610	1	3	-0.046755	22.6185	17.7612	-1.58565
 611	1	3	-0.110868	23.1474	16.9793	-0.531053
 612	1	3	-0.046132	22.4122	15.8695	-0.090121
 613	1	3	-0.135873	21.3455	17.4337	-2.1277
 614	1	3	-0.117662	20.624	16.3141	-1.6681
 615	1	3	-0.064457	21.1937	15.543	-0.648881
 616	1	2	0.492569	20.695	14.3088	0.0102782
 617	1	1	-0.072087	21.6646	13.9555	0.942575
 618	1	2	0.477555	22.7278	14.854	0.950485
 619	1	3	0.042617	21.5925	12.7849	1.75428
 620	1	3	-0.20367	20.3845	12.4107	2.37052
 621	1	3	-0.057018	20.2965	11.2256	3.11989
 622	1	3	-0.18182	22.7185	11.9592	1.92308
 623	1	3	-0.14326	22.6335	10.7793	2.68025
 624	1	3	0.043342	21.4194	10.3835	3.27836
 625	1	6	0.163244	19.4958	13.025	2.24897
 626	1	6	0.101178	19.3361	10.9655	3.55301
 627	1	6	0.165346	19.6548	16.0496	-2.08809
 628	1	6	0.135111	20.9051	18.0534	-2.90575
 629	1	6	0.171751	24.1103	17.218	-0.0802789
 630	1	5	-0.478239	23.7373	14.8245	1.63299
 631	1	5	-0.481107	19.6572	13.7295	-0.261027
 632	1	5	-0.49957	24.1414	19.5673	-1.35549
 633	1	6	0.151248	23.6656	12.2247	1.45974
 634	1	6	0.146138	23.5179	10.1574	2.78504
 635	1	7	0.044043	21.3521	9.04728	4.04567
 636	1	7	-0.215975	22.3272	9.06323	5.25258
 637	1	8	0.063789	22.1276	9.92316	5.90424
 638	1	8	0.072206	23.3714	9.12726	4.92384
 639	1	8	0.045489	22.2204	8.15226	5.85585
 640	1	7	0.005306	21.6638	7.85281	3.08584
 641	1	7	0.164932	20.3065	7.30381	2.55113
 642	1	8	0.005277	22.1653	7.06132	3.65929
 643	1	8	0.017604	22.3454	8.12125	2.26917
 644	1	3	0.008363	19.3558	7.74682	3.64549
 645	1	7	-0.151488	20.3514	5.76445	2.3951
 646	1	7	-0.269275	19.9257	7.95525	1.19935
 647	1	3	0.096378	19.9391	8.68694	4.48677
 648	1	8	0.063418	19.8877	9.04849	1.27646
 649	1	8	0.061085	18.9384	7.61085	0.866633
 650	1	8	0.065045	20.6538	7.69639	0.420367
 651	1	3	-0.142025	18.0454	7.3	3.8682
 652	1	3	-0.448546	19.2432	9.18643	5.60109
 653	1	3	0.277842	17.9279	8.74045	5.86273
 654	1	3	-0.409063	17.3394	7.80514	4.97706
 655	1	6	0.203923	19.7249	9.89762	6.26655
 656	1	8	0.016419	19.3977	5.37768	2.01452
 657	1	8	0.049665	20.5505	5.27759	3.35846
 658	1	8	0.035794	21.1404	5.46621	1.69305
 659	1	6	0.161583	17.589	6.57267	3.19959
 660	1	6	0.199011	16.3205	7.46459	5.15262
 661	1	1	0.463181	5.72588	12.8127	-5.40885
 662	1	2	0.074399	5.6097	14.1995	-5.5164
 663	1	3	0.034296	7.00412	14.6989	-5.62892
 664	1	2	0.051625	7.05169	12.3798	-5.44541