pySIMM System Object

3302 atoms
3651 bonds
6450 angles
10346 dihedrals
1050 impropers

8 atom types
10 bond types
17 angle types
9 dihedral types
4 improper types

-224.030357 224.030357 xlo xhi
-224.030357 224.030357 ylo yhi
-224.030357 224.030357 zlo zhi

Masses

   1	14.01	# n
   2	12.01	# c
   3	12.01	# ca
   4	1.008	# hn
   5	16.0	# o
   6	1.008	# ha
   7	12.01	# c3
   8	1.008	# hc

Pair Coeffs

   1	0.17	3.249998523775958	# n
   2	0.086	3.3996695084235347	# c
   3	0.086	3.3996695084235347	# ca
   4	0.0157	1.069078461768407	# hn
   5	0.21	2.959921901149463	# o
   6	0.015	2.59964245953351	# ha
   7	0.1094	3.3996695084235347	# c3
   8	0.0157	2.649532787749369	# hc

Bond Coeffs

   1	461.1	1.3984	# ca,ca
   2	427.6	1.3789	# c,n
   3	345.9	1.4906	# c,ca
   4	300.9	1.5375	# c3,c3
   5	345.8	1.086	# ca,ha
   6	384.2	1.4121	# ca,n
   7	637.7	1.2183	# c,o
   8	321.0	1.5156	# c3,ca
   9	330.6	1.0969	# c3,hc
  10	403.2	1.0129	# hn,n

Angle Coeffs

   1	68.72	122.6	# ca,c,o
   2	62.86	111.51	# c3,c3,c3
   3	63.82	123.71	# c,n,ca
   4	67.87	120.19	# ca,ca,n
   5	67.68	115.25	# ca,c,n
   6	63.0	118.11	# ca,c,ca
   7	63.56	112.24	# ca,c3,ca
   8	63.15	112.07	# c3,c3,ca
   9	46.34	109.8	# c3,c3,hc
  10	74.22	123.05	# n,c,o
  11	48.33	117.55	# c,n,hn
  12	64.28	120.33	# c,ca,ca
  13	39.4	107.58	# hc,c3,hc
  14	66.62	120.02	# ca,ca,ca
  15	63.53	120.77	# c3,ca,ca
  16	63.74	127.08	# c,n,c
  17	48.18	119.88	# ca,ca,ha

Dihedral Coeffs

   1	1	2.5	2	180	# X,c,n,X
   2	1	0.45	2	180	# X,ca,n,X
   3	3	0.18	3	0	0.25	2	180	0.2	1	180	# c3,c3,c3,c3
   4	2	2.5	2	180	2.0	1	0	# hn,n,c,o
   5	1	3.625	2	180	# X,ca,ca,X
   6	1	0.16	3	0	# hc,c3,c3,c3
   7	1	1.0	2	180	# X,c,ca,X
   8	1	0.15555555555555556	3	0	# X,c3,c3,X
   9	1	0.0	2	0	# X,c3,ca,X

Improper Coeffs

   1	10.5	-1	2	# c,X,X,o
   2	1.1	-1	2	# ca,X,X,ha
   3	1.1	-1	2	# ca,ca,ca,c3
   4	1.1	-1	2	# n,X,X,hn

Atoms

   1	1	1	0.463181	-36.3641	64.7947	0.935101
   2	1	2	0.074399	-35.0714	65.2617	0.705854
   3	1	3	0.034296	-34.212	64.0536	0.754316
   4	1	2	0.051625	-36.4229	63.4134	1.10588
   5	1	3	0.019035	-35.0156	62.9524	0.982274
   6	1	5	-0.389616	-34.689	66.4155	0.595231
   7	1	5	-0.380104	-37.3895	62.7277	1.39455
   8	1	3	-0.045097	-32.8189	63.9472	0.677507
   9	1	3	-0.056032	-34.4728	61.6701	1.11184
  10	1	3	-0.174781	-33.0706	61.5376	1.03372
  11	1	3	-0.129342	-32.233	62.6711	0.856519
  12	1	6	0.168842	-32.219	64.8392	0.513336
  13	1	6	0.15893	-35.1153	60.8126	1.29671
  14	1	6	0.147704	-32.6207	60.5546	1.16191
  15	1	2	0.584577	-30.736	62.4904	0.873096
  16	1	3	-0.046755	-29.8389	63.5235	1.52479
  17	1	3	-0.110868	-30.3225	64.4516	2.48413
  18	1	3	-0.046132	-29.4118	65.3262	3.09607
  19	1	3	-0.135873	-28.4521	63.5116	1.22016
  20	1	3	-0.117662	-27.554	64.4011	1.84276
  21	1	3	-0.064457	-28.0698	65.3006	2.78169
  22	1	2	0.492569	-27.3787	66.3266	3.60251
  23	1	1	-0.072087	-28.3649	66.9266	4.38197
  24	1	2	0.477555	-29.6187	66.3654	4.14488
  25	1	3	0.042617	-28.1079	67.9675	5.32813
  26	1	3	-0.20367	-29.0041	69.0409	5.49069
  27	1	3	-0.057018	-28.7204	70.0888	6.38476
  28	1	3	-0.18182	-26.9337	67.9564	6.10375
  29	1	3	-0.14326	-26.6474	69.003	6.99316
  30	1	3	0.043342	-27.5251	70.0964	7.13657
  31	1	6	0.163244	-29.9201	69.0806	4.90677
  32	1	6	0.101178	-29.4332	70.9028	6.46301
  33	1	6	0.165346	-26.4899	64.3861	1.6141
  34	1	6	0.135111	-28.0679	62.7941	0.497342
  35	1	6	0.171751	-31.365	64.4731	2.79092
  36	1	5	-0.478239	-30.6828	66.6442	4.67476
  37	1	5	-0.481107	-26.1845	66.5723	3.56554
  38	1	5	-0.49957	-30.2497	61.4808	0.386993
  39	1	6	0.151248	-26.217	67.1465	6.00195
  40	1	6	0.146138	-25.7166	68.9761	7.5547
  41	1	7	0.044043	-27.1322	71.2547	8.07705
  42	1	7	-0.215975	-28.0182	72.5214	7.92469
  43	1	8	0.063789	-28.0076	72.8828	6.88805
  44	1	8	0.072206	-27.6462	73.3355	8.56011
  45	1	8	0.045489	-29.0579	72.3263	8.21152
  46	1	7	0.005306	-27.1128	70.783	9.56773
  47	1	7	0.164932	-25.7409	71.1691	10.2055
  48	1	8	0.005277	-27.2373	69.695	9.60619
  49	1	8	0.017604	-27.949	71.2034	10.1401
  50	1	3	0.008363	-24.9225	71.595	9.00348
  51	1	7	-0.151488	-25.1063	69.9553	10.9294
  52	1	7	-0.269275	-25.9014	72.3484	11.1956
  53	1	3	0.096378	-25.6847	71.6507	7.84239
  54	1	8	0.063418	-26.3404	73.2226	10.6979
  55	1	8	0.061085	-24.9295	72.6501	11.6057
  56	1	8	0.065045	-26.5524	72.0726	12.0353
  57	1	3	-0.142025	-23.5559	71.9168	8.98101
  58	1	3	-0.448546	-25.1067	72.024	6.61683
  59	1	3	0.277842	-23.7407	72.3451	6.57749
  60	1	3	-0.409063	-22.9721	72.2907	7.75455
  61	1	6	0.203923	-25.7	72.0564	5.70915
  62	1	8	0.016419	-24.9511	69.1199	10.2339
  63	1	8	0.049665	-25.7532	69.6045	11.7437
  64	1	8	0.035794	-24.133	70.2185	11.3617
  65	1	6	0.161583	-22.9638	71.8772	9.89268
  66	1	6	0.199011	-21.9164	72.5418	7.706
  67	1	1	0.463181	-26.3266	64.1099	7.50554
  68	1	2	0.074399	-27.5045	64.8256	7.30789
  69	1	3	0.034296	-27.6408	65.6853	8.50764
  70	1	2	0.051625	-25.6914	64.419	8.70355
  71	1	3	0.019035	-26.5717	65.4304	9.34576
  72	1	5	-0.389616	-28.3075	64.7195	6.39496
  73	1	5	-0.380104	-24.6691	63.9414	9.16603
  74	1	3	-0.045097	-28.6366	66.6142	8.8329
  75	1	3	-0.056032	-26.4563	66.0657	10.5839
  76	1	3	-0.174781	-27.4627	66.9832	10.948
  77	1	3	-0.129342	-28.557	67.273	10.0858
  78	1	6	0.168842	-29.4227	66.8156	8.10935
  79	1	6	0.15893	-25.616	65.8505	11.2406
  80	1	6	0.147704	-27.3821	67.4918	11.9078
  81	1	2	0.584577	-29.5556	68.3299	10.5058
  82	1	3	-0.046755	-30.7007	68.7073	9.60381
  83	1	3	-0.110868	-31.6426	67.7543	9.14111
  84	1	3	-0.046132	-32.7081	68.2104	8.34793
  85	1	3	-0.135873	-30.8741	70.0774	9.28474
  86	1	3	-0.117662	-31.9364	70.5112	8.47196
  87	1	3	-0.064457	-32.838	69.5458	8.01531
  88	1	2	0.492569	-34.0622	69.7087	7.19492
  89	1	1	-0.072087	-34.621	68.4434	7.10024
  90	1	2	0.477555	-33.8675	67.4799	7.75992
  91	1	3	0.042617	-35.8139	68.1829	6.37724
  92	1	3	-0.20367	-36.9481	67.6408	7.0062
  93	1	3	-0.057018	-38.1257	67.4061	6.27091
  94	1	3	-0.18182	-35.8804	68.5169	5.01675
  95	1	3	-0.14326	-37.0523	68.283	4.28493
  96	1	3	0.043342	-38.1847	67.693	4.88847
  97	1	6	0.163244	-36.9199	67.398	8.06466
  98	1	6	0.101178	-38.98	66.9751	6.78381
  99	1	6	0.165346	-32.0722	71.5631	8.22572
 100	1	6	0.135111	-30.1793	70.8116	9.68315
 101	1	6	0.171751	-31.5704	66.7019	9.40993
 102	1	5	-0.478239	-34.1104	66.2909	7.88551
 103	1	5	-0.481107	-34.4761	70.7535	6.72334
 104	1	5	-0.49957	-29.3587	68.9882	11.5147
 105	1	6	0.151248	-35.0218	68.9647	4.52144
 106	1	6	0.146138	-37.0655	68.5478	3.23039
 107	1	7	0.044043	-39.4138	67.3548	4.01524
 108	1	7	-0.215975	-40.3563	66.2902	4.64023
 109	1	8	0.063789	-39.8061	65.3785	4.90361
 110	1	8	0.072206	-41.1463	66.0032	3.93507
 111	1	8	0.045489	-40.8467	66.6691	5.54564
 112	1	7	0.005306	-40.2141	68.6437	3.6402
 113	1	7	0.164932	-40.4427	68.6569	2.09271
 114	1	8	0.005277	-39.6322	69.5279	3.93302
 115	1	8	0.017604	-41.162	68.7104	4.19044
 116	1	3	0.008363	-39.4697	67.5991	1.60636
 117	1	7	-0.151488	-40.1268	70.0515	1.49948
 118	1	7	-0.269275	-41.8944	68.2562	1.73717
 119	1	3	0.096378	-38.9463	66.8604	2.65749
 120	1	8	0.063418	-42.1417	67.2667	2.14086
 121	1	8	0.061085	-42.0331	68.2171	0.64933
 122	1	8	0.065045	-42.6127	68.9789	2.14455
 123	1	3	-0.142025	-39.0359	67.3718	0.289371
 124	1	3	-0.448546	-37.9668	65.882	2.43558
 125	1	3	0.277842	-37.4738	65.6678	1.1328
 126	1	3	-0.409063	-38.0256	66.4131	0.063315
 127	1	6	0.203923	-37.5494	65.3441	3.27723
 128	1	8	0.016419	-39.084	70.3339	1.69384
 129	1	8	0.049665	-40.7745	70.8189	1.94193
 130	1	8	0.035794	-40.2827	70.0649	0.413644
 131	1	6	0.161583	-39.4394	67.9607	-0.531883
 132	1	6	0.199011	-37.6407	66.2715	-0.943931
 133	1	1	0.463181	-38.8009	64.9145	14.247
 134	1	2	0.074399	-39.5321	64.5187	13.1248
 135	1	3	0.034296	-38.5867	64.6281	11.9845
 136	1	2	0.051625	-37.4876	65.2703	13.932
 137	1	3	0.019035	-37.3705	65.0703	12.4659
 138	1	5	-0.389616	-40.6932	64.1482	13.0615
 139	1	5	-0.380104	-36.5977	65.6435	14.6789
 140	1	3	-0.045097	-38.7821	64.3565	10.6254
 141	1	3	-0.056032	-36.2764	65.2656	11.6172
 142	1	3	-0.174781	-36.4476	64.9924	10.2439
 143	1	3	-0.129342	-37.6919	64.524	9.73855
 144	1	6	0.168842	-39.7555	64.0216	10.2694
 145	1	6	0.15893	-35.3286	65.6233	12.0139
 146	1	6	0.147704	-35.6107	65.1659	9.57184
 147	1	2	0.584577	-37.9097	64.2629	8.26802
 148	1	3	-0.046755	-36.7511	63.8787	7.38185
 149	1	3	-0.110868	-35.6685	63.1019	7.86615
 150	1	3	-0.046132	-34.6243	62.7952	6.98239
 151	1	3	-0.135873	-36.7682	64.277	6.02069
 152	1	3	-0.117662	-35.7018	63.972	5.15524
 153	1	3	-0.064457	-34.6387	63.2304	5.67332
 154	1	2	0.492569	-33.3999	62.7632	5.01127
 155	1	1	-0.072087	-32.7043	62.043	5.97299
 156	1	2	0.477555	-33.3718	62.0188	7.19241
 157	1	3	0.042617	-31.4373	61.4427	5.73399
 158	1	3	-0.20367	-31.1587	60.1249	6.13729
 159	1	3	-0.057018	-29.8824	59.5692	5.92932
 160	1	3	-0.18182	-30.435	62.1775	5.08517
 161	1	3	-0.14326	-29.1783	61.612	4.83784
 162	1	3	0.043342	-28.8617	60.3144	5.29705
 163	1	6	0.163244	-31.9192	59.5406	6.64913
 164	1	6	0.101178	-29.6917	58.5661	6.29565
 165	1	6	0.165346	-35.694	64.2955	4.11869
 166	1	6	0.135111	-37.6127	64.8426	5.64027
 167	1	6	0.171751	-35.6346	62.7407	8.89179
 168	1	5	-0.478239	-33.0245	61.4826	8.2311
 169	1	5	-0.481107	-33.0797	62.9949	3.85833
 170	1	5	-0.49957	-39.0263	64.401	7.79414
 171	1	6	0.151248	-30.6194	63.2071	4.79894
 172	1	6	0.146138	-28.4239	62.2235	4.34833
 173	1	7	0.044043	-27.3995	59.8205	5.2055
 174	1	7	-0.215975	-27.0776	58.6389	6.16031
 175	1	8	0.063789	-27.6156	57.7289	5.86657
 176	1	8	0.072206	-27.3505	58.8859	7.1944
 177	1	8	0.045489	-26.0065	58.4046	6.153
 178	1	7	0.005306	-26.9823	59.4783	3.73934
 179	1	7	0.164932	-25.6144	60.1776	3.43826
 180	1	8	0.005277	-27.7482	59.8617	3.05166
 181	1	8	0.017604	-26.9332	58.3949	3.56834
 182	1	3	0.008363	-25.5301	61.2128	4.54512
 183	1	7	-0.151488	-25.6254	60.8257	2.0328
 184	1	7	-0.269275	-24.4335	59.1826	3.53757
 185	1	3	0.096378	-26.4766	60.9793	5.5326
 186	1	8	0.063418	-23.4784	59.6942	3.36405
 187	1	8	0.061085	-24.5297	58.3832	2.79198
 188	1	8	0.065045	-24.3852	58.7181	4.52937
 189	1	3	-0.142025	-24.7188	62.3598	4.59235
 190	1	3	-0.448546	-26.668	61.8891	6.58051
 191	1	3	0.277842	-25.9242	63.0825	6.60907
 192	1	3	-0.409063	-24.9342	63.3011	5.6218
 193	1	6	0.203923	-27.4783	61.731	7.28758
 194	1	8	0.016419	-24.6719	61.3232	1.81597
 195	1	8	0.049665	-26.4221	61.5745	1.95732
 196	1	8	0.035794	-25.7958	60.0694	1.25596
 197	1	6	0.161583	-23.987	62.5494	3.80991
 198	1	6	0.199011	-24.3658	64.229	5.62326
 199	1	1	0.463181	-37.731	47.3293	19.2306
 200	1	2	0.074399	-36.5763	47.9601	18.7653
 201	1	3	0.034296	-36.6733	49.3606	19.2567
 202	1	2	0.051625	-38.5665	48.1947	19.9396
 203	1	3	0.019035	-37.8601	49.4993	19.9487
 204	1	5	-0.389616	-35.6522	47.4805	18.1287
 205	1	5	-0.380104	-39.636	47.9543	20.4759
 206	1	3	-0.045097	-35.7612	50.4181	19.1539
 207	1	3	-0.056032	-38.2092	50.7018	20.5713
 208	1	3	-0.174781	-37.3068	51.7821	20.4794
 209	1	3	-0.129342	-36.0824	51.655	19.7664
 210	1	6	0.168842	-34.8164	50.2721	18.6319
 211	1	6	0.15893	-39.1378	50.7809	21.1331
 212	1	6	0.147704	-37.5482	52.7036	21.0046
 213	1	2	0.584577	-35.063	52.7691	19.7248
 214	1	3	-0.046755	-35.481	54.2043	19.9379
 215	1	3	-0.110868	-36.705	54.7039	19.4267
 216	1	3	-0.046132	-36.9991	56.0633	19.6122
 217	1	3	-0.135873	-34.5891	55.0897	20.598
 218	1	3	-0.117662	-34.906	56.4517	20.7752
 219	1	3	-0.064457	-36.1267	56.9101	20.2664
 220	1	2	0.492569	-36.6989	58.2822	20.2382
 221	1	1	-0.072087	-37.8958	58.179	19.5388
 222	1	2	0.477555	-38.1588	56.8712	19.1456
 223	1	3	0.042617	-38.7199	59.2929	19.2077
 224	1	3	-0.20367	-40.1098	59.2524	19.4138
 225	1	3	-0.057018	-40.9153	60.3498	19.0622
 226	1	3	-0.18182	-38.1527	60.4529	18.6516
 227	1	3	-0.14326	-38.9577	61.5484	18.2976
 228	1	3	0.043342	-40.3572	61.5115	18.487
 229	1	6	0.163244	-40.5725	58.3655	19.8389
 230	1	6	0.101178	-41.9847	60.2914	19.2396
 231	1	6	0.165346	-34.2173	57.1352	21.2691
 232	1	6	0.135111	-33.6351	54.7145	20.9652
 233	1	6	0.171751	-37.3924	54.0703	18.8688
 234	1	5	-0.478239	-39.118	56.4484	18.5234
 235	1	5	-0.481107	-36.1833	59.2812	20.7094
 236	1	5	-0.49957	-33.8865	52.5001	19.5445
 237	1	6	0.151248	-37.0784	60.512	18.4936
 238	1	6	0.146138	-38.4724	62.4259	17.8808
 239	1	7	0.044043	-41.271	62.6954	18.1024
 240	1	7	-0.215975	-42.4608	62.2219	17.223
 241	1	8	0.063789	-43.1525	61.5828	17.7844
 242	1	8	0.072206	-42.1043	61.654	16.3545
 243	1	8	0.045489	-43.0347	63.0798	16.8484
 244	1	7	0.005306	-41.7849	63.4311	19.3816
 245	1	7	0.164932	-40.8991	64.6965	19.6033
 246	1	8	0.005277	-41.7955	62.7773	20.2636
 247	1	8	0.017604	-42.824	63.7478	19.2192
 248	1	3	0.008363	-40.3098	64.9108	18.223
 249	1	7	-0.151488	-39.7765	64.4183	20.6316
 250	1	7	-0.269275	-41.7495	65.9022	20.0725
 251	1	3	0.096378	-40.5186	63.8147	17.3962
 252	1	8	0.063418	-42.2549	65.6781	21.0205
 253	1	8	0.061085	-42.5162	66.1545	19.3287
 254	1	8	0.065045	-41.1245	66.7907	20.2255
 255	1	3	-0.142025	-39.6066	66.033	17.7596
 256	1	3	-0.448546	-40.0359	63.8043	16.0769
 257	1	3	0.277842	-39.3256	64.9199	15.5788
 258	1	3	-0.409063	-39.1204	66.0283	16.4372
 259	1	6	0.203923	-40.2119	62.9374	15.4455
 260	1	8	0.016419	-39.1597	63.5643	20.3267
 261	1	8	0.049665	-40.1971	64.1947	21.6201
 262	1	8	0.035794	-39.1158	65.2884	20.7339
 263	1	6	0.161583	-39.4327	66.8836	18.4152
 264	1	6	0.199011	-38.5577	66.8877	16.0769
 265	1	1	0.463181	-22.926	37.2197	10.3178
 266	1	2	0.074399	-23.5886	36.7473	11.4496
 267	1	3	0.034296	-24.6252	37.7719	11.7463
 268	1	2	0.051625	-23.4142	38.4496	9.87803
 269	1	3	0.019035	-24.5124	38.7882	10.8169
 270	1	5	-0.389616	-23.403	35.705	12.0562
 271	1	5	-0.380104	-23.0602	39.1081	8.91368
 272	1	3	-0.045097	-25.6166	37.7935	12.7353
 273	1	3	-0.056032	-25.3578	39.9018	10.8429
 274	1	3	-0.174781	-26.3597	39.9478	11.8346
 275	1	3	-0.129342	-26.5217	38.8825	12.763
 276	1	6	0.168842	-25.6939	36.9745	13.4492
 277	1	6	0.15893	-25.2388	40.7008	10.1139
 278	1	6	0.147704	-27.0109	40.8187	11.8795
 279	1	2	0.584577	-27.6105	38.894	13.8102
 280	1	3	-0.046755	-28.9637	39.5028	13.5113
 281	1	3	-0.110868	-29.8034	39.8734	14.5908
 282	1	3	-0.046132	-31.067	40.4113	14.3078
 283	1	3	-0.135873	-29.445	39.6493	12.1803
 284	1	3	-0.117662	-30.7147	40.2039	11.9186
 285	1	3	-0.064457	-31.5032	40.5827	13.0109
 286	1	2	0.492569	-32.8739	41.1553	13.0528
 287	1	1	-0.072087	-33.1942	41.2822	14.4009
 288	1	2	0.477555	-32.153	40.8584	15.2221
 289	1	3	0.042617	-34.4497	41.7638	14.8795
 290	1	3	-0.20367	-35.6494	41.3541	14.2704
 291	1	3	-0.057018	-36.8864	41.8243	14.7385
 292	1	3	-0.18182	-34.5181	42.6532	15.9682
 293	1	3	-0.14326	-35.758	43.1176	16.4434
 294	1	3	0.043342	-36.9647	42.7048	15.837
 295	1	6	0.163244	-35.6305	40.6713	13.4249
 296	1	6	0.101178	-37.7942	41.491	14.2442
 297	1	6	0.165346	-31.0869	40.3187	10.9019
 298	1	6	0.135111	-28.8475	39.3113	11.3379
 299	1	6	0.171751	-29.4855	39.7381	15.6243
 300	1	5	-0.478239	-32.1173	40.8246	16.44
 301	1	5	-0.481107	-33.5555	41.4377	12.0819
 302	1	5	-0.49957	-27.4039	38.3691	14.892
 303	1	6	0.151248	-33.6064	42.9833	16.4607
 304	1	6	0.146138	-35.7635	43.7951	17.2924
 305	1	7	0.044043	-38.3486	43.1693	16.3343
 306	1	7	-0.215975	-39.0829	43.9602	15.2191
 307	1	8	0.063789	-39.3114	43.32	14.3582
 308	1	8	0.072206	-38.4662	44.7946	14.8622
 309	1	8	0.045489	-40.0299	44.3743	15.5892
 310	1	7	0.005306	-39.2017	41.943	16.7992
 311	1	7	0.164932	-39.0304	41.7981	18.3406
 312	1	8	0.005277	-38.9494	41.0144	16.2721
 313	1	8	0.017604	-40.2588	42.1445	16.579
 314	1	3	0.008363	-38.6533	43.2128	18.7308
 315	1	7	-0.151488	-37.8889	40.8137	18.6915
 316	1	7	-0.269275	-40.3475	41.3307	19.0072
 317	1	3	0.096378	-38.2898	43.9766	17.6272
 318	1	8	0.063418	-41.156	42.0508	18.8267
 319	1	8	0.061085	-40.2265	41.2262	20.0924
 320	1	8	0.065045	-40.6621	40.3579	18.6084
 321	1	3	-0.142025	-38.6795	43.7726	20.0158
 322	1	3	-0.448546	-37.9672	45.3389	17.7702
 323	1	3	0.277842	-38.0109	45.9377	19.0508
 324	1	3	-0.409063	-38.3567	45.1342	20.1645
 325	1	6	0.203923	-37.6895	45.9255	16.8986
 326	1	8	0.016419	-38.1255	39.7995	18.3454
 327	1	8	0.049665	-37.7301	40.7726	19.7764
 328	1	8	0.035794	-36.9423	41.1165	18.2276
 329	1	6	0.161583	-38.967	43.1702	20.8749
 330	1	6	0.199011	-38.4054	45.5834	21.1547
 331	1	1	0.463181	-17.5452	20.5781	19.888
 332	1	2	0.074399	-17.6924	20.6214	18.498
 333	1	3	0.034296	-17.885	22.0547	18.1666
 334	1	2	0.051625	-17.6058	21.8496	20.4672
 335	1	3	0.019035	-17.8338	22.7855	19.3363
 336	1	5	-0.389616	-17.7058	19.6989	17.6987
 337	1	5	-0.380104	-17.5062	22.1614	21.643
 338	1	3	-0.045097	-18.1207	22.6637	16.9288
 339	1	3	-0.056032	-18.024	24.1717	19.338
 340	1	3	-0.174781	-18.2581	24.81	18.101
 341	1	3	-0.129342	-18.2902	24.0676	16.888
 342	1	6	0.168842	-18.1742	22.0593	16.0243
 343	1	6	0.15893	-18.0076	24.7281	20.2729
 344	1	6	0.147704	-18.4407	25.8829	18.0916
 345	1	2	0.584577	-18.5693	24.7235	15.5576
 346	1	3	-0.046755	-18.0813	26.1256	15.2799
 347	1	3	-0.110868	-18.745	26.9049	14.3014
 348	1	3	-0.046132	-18.2685	28.1962	14.0357
 349	1	3	-0.135873	-16.9344	26.6565	15.9309
 350	1	3	-0.117662	-16.474	27.9591	15.6492
 351	1	3	-0.064457	-17.1722	28.7099	14.696
 352	1	2	0.492569	-16.9237	30.083	14.1843
 353	1	1	-0.072087	-17.9002	30.3157	13.2199
 354	1	2	0.477555	-18.7504	29.2231	13.0729
 355	1	3	0.042617	-18.0024	31.5209	12.4605
 356	1	3	-0.20367	-16.8471	32.1538	11.9679
 357	1	3	-0.057018	-16.9429	33.3375	11.2202
 358	1	3	-0.18182	-19.2548	32.1032	12.1866
 359	1	3	-0.14326	-19.3524	33.2802	11.4223
 360	1	3	0.043342	-18.1949	33.9111	10.917
 361	1	6	0.163244	-15.864	31.7352	12.1667
 362	1	6	0.101178	-16.0297	33.8062	10.8654
 363	1	6	0.165346	-15.5952	28.3709	16.1424
 364	1	6	0.135111	-16.3797	26.0515	16.6441
 365	1	6	0.171751	-19.6068	26.5153	13.7603
 366	1	5	-0.478239	-19.6929	29.0954	12.3109
 367	1	5	-0.481107	-16.0329	30.8275	14.5569
 368	1	5	-0.49957	-19.177	24.1058	14.6989
 369	1	6	0.151248	-20.1657	31.6375	12.5554
 370	1	6	0.146138	-20.34	33.6871	11.2249
 371	1	7	0.044043	-18.2533	35.188	10.0541
 372	1	7	-0.215975	-17.6152	36.3756	10.8215
 373	1	8	0.063789	-16.5474	36.2033	11.0045
 374	1	8	0.072206	-18.1026	36.5179	11.7943
 375	1	8	0.045489	-17.7137	37.3103	10.2543
 376	1	7	0.005306	-17.5362	34.9609	8.68152
 377	1	7	0.164932	-18.6154	34.5196	7.64998
 378	1	8	0.005277	-16.7044	34.248	8.72971
 379	1	8	0.017604	-17.104	35.9149	8.35009
 380	1	3	0.008363	-19.8568	35.1526	8.24524
 381	1	7	-0.151488	-18.7575	32.9786	7.60269
 382	1	7	-0.269275	-18.2873	35.0573	6.23566
 383	1	3	0.096378	-19.6592	35.5321	9.56931
 384	1	8	0.063418	-19.0438	34.7399	5.50739
 385	1	8	0.061085	-17.3138	34.6838	5.89342
 386	1	8	0.065045	-18.2533	36.1544	6.22994
 387	1	3	-0.142025	-21.0726	35.4092	7.59529
 388	1	3	-0.448546	-20.6689	36.2061	10.2812
 389	1	3	0.277842	-21.8954	36.4991	9.64194
 390	1	3	-0.409063	-22.0846	36.0861	8.30146
 391	1	6	0.203923	-20.5008	36.507	11.3113
 392	1	8	0.016419	-19.5603	32.6822	6.91589
 393	1	8	0.049665	-18.9969	32.5664	8.59032
 394	1	8	0.035794	-17.827	32.5099	7.25825
 395	1	6	0.161583	-21.2174	35.1119	6.55876
 396	1	6	0.199011	-23.0194	36.3181	7.79542
 397	1	1	0.463181	-0.556823	12.9899	24.2852
 398	1	2	0.074399	-1.90709	13.0968	23.9393
 399	1	3	0.034296	-1.96265	14.1644	22.9087
 400	1	2	0.051625	0.253026	13.8534	23.5423
 401	1	3	0.019035	-0.679233	14.6151	22.6759
 402	1	5	-0.389616	-2.86984	12.5234	24.4234
 403	1	5	-0.380104	1.46173	14.0104	23.6019
 404	1	3	-0.045097	-3.06914	14.7335	22.2678
 405	1	3	-0.056032	-0.422385	15.6575	21.7806
 406	1	3	-0.174781	-1.52328	16.2578	21.1362
 407	1	3	-0.129342	-2.85262	15.8249	21.3889
 408	1	6	0.168842	-4.06102	14.3331	22.4648
 409	1	6	0.15893	0.595665	15.9997	21.6076
 410	1	6	0.147704	-1.34752	17.0788	20.4418
 411	1	2	0.584577	-3.99854	16.5167	20.6868
 412	1	3	-0.046755	-5.38514	16.4959	21.2843
 413	1	3	-0.110868	-6.49781	16.5343	20.4123
 414	1	3	-0.046132	-7.78278	16.4913	20.966
 415	1	3	-0.135873	-5.60256	16.4736	22.69
 416	1	3	-0.117662	-6.90701	16.4264	23.2255
 417	1	3	-0.064457	-7.98327	16.4283	22.33
 418	1	2	0.492569	-9.44849	16.3586	22.579
 419	1	1	-0.072087	-10.0433	16.3726	21.3233
 420	1	2	0.477555	-9.10965	16.4657	20.2995
 421	1	3	0.042617	-11.4428	16.2583	21.1039
 422	1	3	-0.20367	-11.9411	15.2988	20.2073
 423	1	3	-0.057018	-13.3224	15.1726	19.9928
 424	1	3	-0.18182	-12.3477	17.091	21.7828
 425	1	3	-0.14326	-13.7298	16.9742	21.5575
 426	1	3	0.043342	-14.2412	16.0147	20.6544
 427	1	6	0.163244	-11.2569	14.6463	19.6709
 428	1	6	0.101178	-13.6691	14.4077	19.3065
 429	1	6	0.165346	-7.08086	16.3887	24.2999
 430	1	6	0.135111	-4.75928	16.4996	23.3763
 431	1	6	0.171751	-6.36627	16.5794	19.3315
 432	1	5	-0.478239	-9.30657	16.4785	19.0968
 433	1	5	-0.481107	-9.98804	16.2701	23.6684
 434	1	5	-0.49957	-3.80813	17.0756	19.6189
 435	1	6	0.151248	-11.9808	17.8258	22.4957
 436	1	6	0.146138	-14.3983	17.631	22.107
 437	1	7	0.044043	-15.7586	15.8465	20.4298
 438	1	7	-0.215975	-16.1031	15.4909	18.9555
 439	1	8	0.063789	-15.7869	14.4736	18.6957
 440	1	8	0.072206	-15.6203	16.1888	18.2593
 441	1	8	0.045489	-17.1863	15.5472	18.7852
 442	1	7	0.005306	-16.335	14.7679	21.4025
 443	1	7	0.164932	-17.0723	15.497	22.5706
 444	1	8	0.005277	-15.5523	14.0917	21.7715
 445	1	8	0.017604	-17.0528	14.1377	20.8604
 446	1	3	0.008363	-17.2495	16.8977	22.0146
 447	1	7	-0.151488	-16.2084	15.5151	23.8547
 448	1	7	-0.269275	-18.4327	14.8232	22.8753
 449	1	3	0.096378	-16.5357	17.0866	20.8395
 450	1	8	0.063418	-19.0884	14.849	21.9953
 451	1	8	0.061085	-18.9515	15.3336	23.6961
 452	1	8	0.065045	-18.2928	13.774	23.1652
 453	1	3	-0.142025	-18.0352	17.9325	22.5433
 454	1	3	-0.448546	-16.5893	18.3072	20.1477
 455	1	3	0.277842	-17.4028	19.3579	20.6303
 456	1	3	-0.409063	-18.1109	19.1526	21.8416
 457	1	6	0.203923	-16.0354	18.4195	19.2193
 458	1	8	0.016419	-15.2276	15.9682	23.6724
 459	1	8	0.049665	-16.0425	14.4964	24.2278
 460	1	8	0.035794	-16.7005	16.0897	24.6494
 461	1	6	0.161583	-18.5895	17.7851	23.4677
 462	1	6	0.199011	-18.7349	19.9499	22.2408
 463	1	1	0.463181	9.32009	-4.19441	20.6695
 464	1	2	0.074399	8.36813	-4.44769	21.6581
 465	1	3	0.034296	7.7107	-3.13167	21.8951
 466	1	2	0.051625	9.35183	-2.86371	20.2647
 467	1	3	0.019035	8.30846	-2.19551	21.0713
 468	1	5	-0.389616	8.13828	-5.49543	22.2429
 469	1	5	-0.380104	10.0961	-2.3284	19.4589
 470	1	3	-0.045097	6.67997	-2.77159	22.7749
 471	1	3	-0.056032	7.9437	-0.849098	21.0958
 472	1	3	-0.174781	6.91937	-0.463455	21.9791
 473	1	3	-0.129342	6.25883	-1.41818	22.8015
 474	1	6	0.168842	6.22025	-3.52086	23.4182
 475	1	6	0.15893	8.45116	-0.128392	20.4578
 476	1	6	0.147704	6.65651	0.590495	22.0279
 477	1	2	0.584577	5.15599	-1.00156	23.744
 478	1	3	-0.046755	4.44244	0.304022	23.5029
 479	1	3	-0.110868	4.14625	1.13997	24.6022
 480	1	3	-0.046132	3.5141	2.36415	24.3525
 481	1	3	-0.135873	4.04995	0.700037	22.1951
 482	1	3	-0.117662	3.40914	1.93604	21.9689
 483	1	3	-0.064457	3.16157	2.75643	23.0763
 484	1	2	0.492569	2.46217	4.06733	23.1705
 485	1	1	-0.072087	2.40843	4.36385	24.5257
 486	1	2	0.477555	3.05309	3.40745	25.3007
 487	1	3	0.042617	1.67112	5.44521	25.0786
 488	1	3	-0.20367	0.746548	5.1878	26.1028
 489	1	3	-0.057018	0.0287607	6.23519	26.6922
 490	1	3	-0.18182	1.83928	6.76614	24.6252
 491	1	3	-0.14326	1.1185	7.82013	25.2193
 492	1	3	0.043342	0.218276	7.56881	26.2797
 493	1	6	0.163244	0.599527	4.1739	26.466
 494	1	6	0.101178	-0.658242	6.00681	27.5017
 495	1	6	0.165346	3.09808	2.24172	20.9714
 496	1	6	0.135111	4.23534	0.0400989	21.3497
 497	1	6	0.171751	4.40275	0.846877	25.6198
 498	1	5	-0.478239	3.17882	3.37668	26.513
 499	1	5	-0.481107	1.99179	4.70158	22.2417
 500	1	5	-0.49957	4.89073	-1.67849	24.7236
 501	1	6	0.151248	2.53886	6.97975	23.8204
 502	1	6	0.146138	1.28944	8.83254	24.865
 503	1	7	0.044043	-0.516198	8.68751	27.0416
 504	1	7	-0.215975	-2.05304	8.51378	26.913
 505	1	8	0.063789	-2.35379	8.46992	25.8587
 506	1	8	0.072206	-2.58412	9.35351	27.3798
 507	1	8	0.045489	-2.39461	7.59087	27.3977
 508	1	7	0.005306	-0.0730059	8.67891	28.542
 509	1	7	0.164932	1.10869	9.68164	28.6908
 510	1	8	0.005277	0.190074	7.6821	28.917
 511	1	8	0.017604	-0.912524	9.02834	29.1581
 512	1	3	0.008363	0.816049	10.6355	27.5505
 513	1	7	-0.151488	2.47944	8.99186	28.4813
 514	1	7	-0.269275	1.08302	10.3688	30.0775
 515	1	3	0.096378	-0.0815564	10.0922	26.6373
 516	1	8	0.063418	1.91052	11.0814	30.181
 517	1	8	0.061085	1.17814	9.62539	30.8793
 518	1	8	0.065045	0.144061	10.9161	30.2295
 519	1	3	-0.142025	1.30831	11.9366	27.3863
 520	1	3	-0.448546	-0.534174	10.8443	25.5378
 521	1	3	0.277842	-0.071795	12.1694	25.3561
 522	1	3	-0.409063	0.854647	12.6946	26.2915
 523	1	6	0.203923	-1.26477	10.4173	24.8556
 524	1	8	0.016419	2.65187	8.22	29.2419
 525	1	8	0.049665	3.2956	9.7221	28.5485
 526	1	8	0.035794	2.54651	8.5144	27.4974
 527	1	6	0.161583	2.01122	12.3559	28.1029
 528	1	6	0.199011	1.22526	13.7107	26.1698
 529	1	1	0.463181	16.8358	1.9076	7.52313
 530	1	2	0.074399	15.4736	1.98103	7.23306
 531	1	3	0.034296	14.8462	2.52948	8.46389
 532	1	2	0.051625	17.1442	2.39344	8.79463
 533	1	3	0.019035	15.8417	2.77772	9.39049
 534	1	5	-0.389616	14.8901	1.61417	6.22614
 535	1	5	-0.380104	18.2308	2.44848	9.34695
 536	1	3	-0.045097	13.495	2.72054	8.77517
 537	1	3	-0.056032	15.5512	3.24989	10.6754
 538	1	3	-0.174781	14.196	3.43772	11.0169
 539	1	3	-0.129342	13.1682	3.15825	10.0786
 540	1	6	0.168842	12.7232	2.49079	8.0421
 541	1	6	0.15893	16.3513	3.43423	11.3899
 542	1	6	0.147704	13.9406	3.78375	12.0172
 543	1	2	0.584577	11.7238	3.25278	10.4735
 544	1	3	-0.046755	11.1712	2.19133	11.3972
 545	1	3	-0.110868	11.9898	1.13831	11.8821
 546	1	3	-0.046132	11.4013	0.140634	12.6689
 547	1	3	-0.135873	9.79246	2.20962	11.7384
 548	1	3	-0.117662	9.21874	1.18921	12.5241
 549	1	3	-0.064457	10.0538	0.155266	12.9639
 550	1	2	0.492569	9.74095	-1.06953	13.7443
 551	1	1	-0.072087	10.9424	-1.75161	13.8787
 552	1	2	0.477555	11.9998	-1.07711	13.2812
 553	1	3	0.042617	11.0538	-3.01108	14.5266
 554	1	3	-0.20367	10.1902	-4.06019	14.1721
 555	1	3	-0.057018	10.2385	-5.2917	14.8445
 556	1	3	-0.18182	11.9933	-3.21713	15.5483
 557	1	3	-0.14326	12.0367	-4.44451	16.2296
 558	1	3	0.043342	11.1506	-5.49584	15.9017
 559	1	6	0.163244	9.45955	-3.90668	13.3858
 560	1	6	0.101178	9.53844	-6.06637	14.5507
 561	1	6	0.165346	8.1585	1.19156	12.7708
 562	1	6	0.135111	9.15717	3.01304	11.3692
 563	1	6	0.171751	13.0473	1.06301	11.6407
 564	1	5	-0.478239	13.1843	-1.37304	13.2787
 565	1	5	-0.481107	8.64184	-1.38953	14.1622
 566	1	5	-0.49957	10.9969	4.06923	9.93307
 567	1	6	0.151248	12.6692	-2.41605	15.8363
 568	1	6	0.146138	12.7422	-4.56445	17.0473
 569	1	7	0.044043	11.1584	-6.78082	16.7563
 570	1	7	-0.215975	10.0169	-7.78208	16.4289
 571	1	8	0.063789	10.1005	-8.15721	15.4007
 572	1	8	0.072206	9.03318	-7.31221	16.5502
 573	1	8	0.045489	10.0506	-8.64774	17.1019
 574	1	7	0.005306	12.5427	-7.50222	16.6883
 575	1	7	0.164932	13.0556	-7.73888	18.1446
 576	1	8	0.005277	13.2577	-6.86758	16.1535
 577	1	8	0.017604	12.4844	-8.43975	16.1201
 578	1	3	0.008363	12.1304	-6.86385	18.9676
 579	1	7	-0.151488	14.5376	-7.31708	18.2853
 580	1	7	-0.269275	12.8886	-9.22027	18.5596
 581	1	3	0.096378	11.0646	-6.38969	18.2168
 582	1	8	0.063418	13.2068	-9.37041	19.5992
 583	1	8	0.061085	13.4907	-9.87925	17.9221
 584	1	8	0.065045	11.8409	-9.53566	18.4805
 585	1	3	-0.142025	12.2692	-6.50029	20.3163
 586	1	3	-0.448546	10.0953	-5.54942	18.7822
 587	1	3	0.277842	10.2127	-5.16302	20.1317
 588	1	3	-0.409063	11.3019	-5.65069	20.8913
 589	1	6	0.203923	9.29732	-5.14329	18.1643
 590	1	8	0.016419	14.8981	-7.48419	19.3079
 591	1	8	0.049665	14.6669	-6.25243	18.053
 592	1	8	0.035794	15.1781	-7.89346	17.6079
 593	1	6	0.161583	13.1205	-6.85005	20.9
 594	1	6	0.199011	11.4204	-5.34205	21.928
 595	1	1	0.463181	11.3435	-0.565306	-10.6515
 596	1	2	0.074399	12.1269	-0.0948548	-9.58991
 597	1	3	0.034296	11.1963	0.0720783	-8.45185
 598	1	2	0.051625	10.0063	-0.744763	-10.2709
 599	1	3	0.019035	9.93955	-0.334238	-8.84294
 600	1	5	-0.389616	13.3278	0.120041	-9.54517
 601	1	5	-0.380104	9.05686	-1.10248	-10.9482
 602	1	3	-0.045097	11.4489	0.567972	-7.17086
 603	1	3	-0.056032	8.85588	-0.285385	-7.9578
 604	1	3	-0.174781	9.09354	0.178804	-6.64451
 605	1	3	-0.129342	10.39	0.589902	-6.23134
 606	1	6	0.168842	12.4494	0.919281	-6.92737
 607	1	6	0.15893	7.86524	-0.597877	-8.28154
 608	1	6	0.147704	8.26501	0.224948	-5.93922
 609	1	2	0.584577	10.6179	1.07065	-4.81569
 610	1	3	-0.046755	11.9612	0.855893	-4.1525
 611	1	3	-0.110868	12.3389	1.66879	-3.05369
 612	1	3	-0.046132	13.5758	1.42766	-2.43491
 613	1	3	-0.135873	12.8279	-0.192554	-4.56761
 614	1	3	-0.117662	14.0678	-0.411695	-3.94205
 615	1	3	-0.064457	14.4127	0.422159	-2.8766
 616	1	2	0.492569	15.6145	0.400456	-2.01237
 617	1	1	-0.072087	15.4187	1.39352	-1.06869
 618	1	2	0.477555	14.2245	2.07814	-1.25828
 619	1	3	0.042617	16.3258	1.60011	0.000743478
 620	1	3	-0.20367	16.0679	1.02961	1.25744
 621	1	3	-0.057018	17.0336	1.0858	2.27758
 622	1	3	-0.18182	17.556	2.237	-0.225103
 623	1	3	-0.14326	18.5194	2.29627	0.79612
 624	1	3	0.043342	18.2754	1.72376	2.06377
 625	1	6	0.163244	15.1326	0.504347	1.43411
 626	1	6	0.101178	16.8154	0.595804	3.22144
 627	1	6	0.165346	14.7314	-1.21618	-4.25835
 628	1	6	0.135111	12.5329	-0.874942	-5.3611
 629	1	6	0.171751	11.6855	2.45994	-2.68629
 630	1	5	-0.478239	13.7765	3.00461	-0.607245
 631	1	5	-0.481107	16.5551	-0.365106	-2.11712
 632	1	5	-0.49957	9.70265	1.58112	-4.19036
 633	1	6	0.151248	17.7831	2.65041	-1.20434
 634	1	6	0.146138	19.4778	2.75833	0.581755
 635	1	7	0.044043	19.3954	1.71883	3.12471
 636	1	7	-0.215975	20.0279	3.12968	3.28345
 637	1	8	0.063789	19.25	3.88149	3.46877
 638	1	8	0.072206	20.5892	3.4342	2.39261
 639	1	8	0.045489	20.7222	3.15916	4.13226
 640	1	7	0.005306	20.4752	0.657154	2.73424
 641	1	7	0.164932	20.9161	-0.10846	4.01987
 642	1	8	0.005277	21.3278	1.10951	2.21074
 643	1	8	0.017604	20.0298	-0.0595368	2.0307
 644	1	3	0.008363	19.819	0.251875	5.00007
 645	1	7	-0.151488	22.2841	0.405605	4.53186
 646	1	7	-0.269275	20.9919	-1.6357	3.7731
 647	1	3	0.096378	18.9774	1.24521	4.51142
 648	1	8	0.063418	20.0172	-2.03157	3.46039
 649	1	8	0.061085	21.2944	-2.1671	4.68423
 650	1	8	0.065045	21.7239	-1.86887	2.98909
 651	1	3	-0.142025	19.6646	-0.24666	6.30151
 652	1	3	-0.448546	17.9731	1.79837	5.32571
 653	1	3	0.277842	17.8075	1.32978	6.64901