pySIMM System Object

1784 atoms
1972 bonds
3483 angles
5585 dihedrals
567 impropers

8 atom types
10 bond types
17 angle types
9 dihedral types
4 improper types

-181.370212 181.370212 xlo xhi
-181.370212 181.370212 ylo yhi
-181.370212 181.370212 zlo zhi

Masses

   1	14.01	# n
   2	12.01	# c
   3	12.01	# ca
   4	1.008	# hn
   5	16.0	# o
   6	1.008	# ha
   7	12.01	# c3
   8	1.008	# hc

Pair Coeffs

   1	0.17	3.249998523775958	# n
   2	0.086	3.3996695084235347	# c
   3	0.086	3.3996695084235347	# ca
   4	0.0157	1.069078461768407	# hn
   5	0.21	2.959921901149463	# o
   6	0.015	2.59964245953351	# ha
   7	0.1094	3.3996695084235347	# c3
   8	0.0157	2.649532787749369	# hc

Bond Coeffs

   1	461.1	1.3984	# ca,ca
   2	427.6	1.3789	# c,n
   3	345.9	1.4906	# c,ca
   4	300.9	1.5375	# c3,c3
   5	345.8	1.086	# ca,ha
   6	384.2	1.4121	# ca,n
   7	637.7	1.2183	# c,o
   8	321.0	1.5156	# c3,ca
   9	330.6	1.0969	# c3,hc
  10	403.2	1.0129	# hn,n

Angle Coeffs

   1	68.72	122.6	# ca,c,o
   2	62.86	111.51	# c3,c3,c3
   3	63.82	123.71	# c,n,ca
   4	67.87	120.19	# ca,ca,n
   5	67.68	115.25	# ca,c,n
   6	63.0	118.11	# ca,c,ca
   7	63.56	112.24	# ca,c3,ca
   8	63.15	112.07	# c3,c3,ca
   9	46.34	109.8	# c3,c3,hc
  10	74.22	123.05	# n,c,o
  11	48.33	117.55	# c,n,hn
  12	64.28	120.33	# c,ca,ca
  13	39.4	107.58	# hc,c3,hc
  14	66.62	120.02	# ca,ca,ca
  15	63.53	120.77	# c3,ca,ca
  16	63.74	127.08	# c,n,c
  17	48.18	119.88	# ca,ca,ha

Dihedral Coeffs

   1	1	2.5	2	180	# X,c,n,X
   2	1	0.45	2	180	# X,ca,n,X
   3	3	0.18	3	0	0.25	2	180	0.2	1	180	# c3,c3,c3,c3
   4	2	2.5	2	180	2.0	1	0	# hn,n,c,o
   5	1	3.625	2	180	# X,ca,ca,X
   6	1	0.16	3	0	# hc,c3,c3,c3
   7	1	1.0	2	180	# X,c,ca,X
   8	1	0.15555555555555556	3	0	# X,c3,c3,X
   9	1	0.0	2	0	# X,c3,ca,X

Improper Coeffs

   1	10.5	-1	2	# c,X,X,o
   2	1.1	-1	2	# ca,X,X,ha
   3	1.1	-1	2	# ca,ca,ca,c3
   4	1.1	-1	2	# n,X,X,hn

Atoms

   1	1	1	0.463181	41.9821	-29.5289	57.4429
   2	1	2	0.074399	40.9444	-30.4472	57.2952
   3	1	3	0.034296	40.4989	-30.3005	55.8874
   4	1	2	0.051625	42.258	-28.8237	56.2745
   5	1	3	0.019035	41.2853	-29.3408	55.278
   6	1	5	-0.389616	40.4298	-31.1549	58.1461
   7	1	5	-0.380104	43.054	-27.9141	56.1102
   8	1	3	-0.045097	39.4399	-30.9227	55.2159
   9	1	3	-0.056032	41.0761	-28.9659	53.9475
  10	1	3	-0.174781	40.0172	-29.5823	53.2496
  11	1	3	-0.129342	39.1726	-30.5348	53.8807
  12	1	6	0.168842	38.8403	-31.6685	55.7321
  13	1	6	0.15893	41.6987	-28.206	53.4814
  14	1	6	0.147704	39.8195	-29.2907	52.2194
  15	1	2	0.584577	38.0186	-31.1172	53.1033
  16	1	3	-0.046755	36.7123	-31.4731	53.7851
  17	1	3	-0.110868	36.3074	-30.8961	55.0186
  18	1	3	-0.046132	35.0401	-31.2226	55.5312
  19	1	3	-0.135873	35.8257	-32.3581	53.1168
  20	1	3	-0.117662	34.5578	-32.6687	53.6443
  21	1	3	-0.064457	34.1925	-32.0777	54.8575
  22	1	2	0.492569	32.9287	-32.1904	55.6272
  23	1	1	-0.072087	33.0884	-31.3863	56.7517
  24	1	2	0.477555	34.3352	-30.7612	56.7641
  25	1	3	0.042617	32.0816	-31.2203	57.7536
  26	1	3	-0.20367	32.4149	-31.1906	59.1203
  27	1	3	-0.057018	31.4135	-31.1031	60.1042
  28	1	3	-0.18182	30.7234	-31.12	57.397
  29	1	3	-0.14326	29.7232	-31.027	58.378
  30	1	3	0.043342	30.0468	-31.0491	59.7503
  31	1	6	0.163244	33.4547	-31.2611	59.43
  32	1	6	0.101178	31.7181	-31.1026	61.145
  33	1	6	0.165346	33.8739	-33.3356	53.1223
  34	1	6	0.135111	36.1217	-32.7968	52.1653
  35	1	6	0.171751	36.9275	-30.1743	55.5463
  36	1	5	-0.478239	34.7814	-29.9906	57.5996
  37	1	5	-0.481107	31.963	-32.863	55.3063
  38	1	5	-0.49957	38.1357	-31.2802	51.8983
  39	1	6	0.151248	30.4296	-31.1437	56.3512
  40	1	6	0.146138	28.6835	-30.9721	58.0641
  41	1	7	0.044043	28.9176	-31.0223	60.8051
  42	1	7	-0.215975	29.3633	-31.5545	62.195
  43	1	8	0.063789	29.8162	-32.5503	62.1038
  44	1	8	0.072206	28.5071	-31.646	62.8752
  45	1	8	0.045489	30.0902	-30.8851	62.6709
  46	1	7	0.005306	28.3126	-29.5888	60.9392
  47	1	7	0.164932	26.7554	-29.6927	60.9311
  48	1	8	0.005277	28.6333	-28.9914	60.0793
  49	1	8	0.017604	28.6763	-29.0679	61.8332
  50	1	3	0.008363	26.5286	-31.0997	60.4159
  51	1	7	-0.151488	26.1331	-28.625	59.9989
  52	1	7	-0.269275	26.1753	-29.5357	62.3579
  53	1	3	0.096378	27.7104	-31.8304	60.3524
  54	1	8	0.063418	26.5828	-30.2925	63.0387
  55	1	8	0.061085	25.0836	-29.6479	62.3508
  56	1	8	0.065045	26.4102	-28.5457	62.7701
  57	1	3	-0.142025	25.3051	-31.677	60.0385
  58	1	3	-0.448546	27.7089	-33.1638	59.9087
  59	1	3	0.277842	26.4946	-33.754	59.5227
  60	1	3	-0.409063	25.3009	-33.0117	59.5877
  61	1	6	0.203923	28.631	-33.7327	59.858
  62	1	8	0.016419	26.4932	-28.7441	58.9689
  63	1	8	0.049665	26.3947	-27.6144	60.3386
  64	1	8	0.035794	25.0385	-28.7022	59.9842
  65	1	6	0.161583	24.3825	-31.1037	60.0964
  66	1	6	0.199011	24.369	-33.4827	59.2874
  67	1	1	0.463181	30.5185	-28.62	54.2514
  68	1	2	0.074399	31.4232	-28.5115	55.3043
  69	1	3	0.034296	30.6451	-27.939	56.4282
  70	1	2	0.051625	29.243	-28.1712	54.5776
  71	1	3	0.019035	29.353	-27.7174	55.9899
  72	1	5	-0.389616	32.6153	-28.7724	55.3046
  73	1	5	-0.380104	28.2494	-28.1296	53.8719
  74	1	3	-0.045097	31.0467	-27.6532	57.7388
  75	1	3	-0.056032	28.3937	-27.1468	56.8295
  76	1	3	-0.174781	28.7838	-26.8153	58.1431
  77	1	3	-0.129342	30.1001	-27.0709	58.619
  78	1	6	0.168842	32.0583	-27.908	58.0457
  79	1	6	0.15893	27.381	-26.9686	56.4737
  80	1	6	0.147704	28.044	-26.3775	58.8117
  81	1	2	0.584577	30.4221	-26.7821	60.0693
  82	1	3	-0.046755	31.7631	-27.1556	60.6398
  83	1	3	-0.110868	32.9673	-26.592	60.1494
  84	1	3	-0.046132	34.1692	-26.9523	60.7798
  85	1	3	-0.135873	31.7986	-28.0345	61.7514
  86	1	3	-0.117662	33.0152	-28.3966	62.3571
  87	1	3	-0.064457	34.1878	-27.8358	61.8421
  88	1	2	0.492569	35.5909	-27.9964	62.2942
  89	1	1	-0.072087	36.3482	-27.1702	61.4753
  90	1	2	0.477555	35.5703	-26.507	60.5323
  91	1	3	0.042617	37.7613	-27.0567	61.5807
  92	1	3	-0.20367	38.3902	-25.8035	61.6885
  93	1	3	-0.057018	39.7925	-25.7133	61.7741
  94	1	3	-0.18182	38.5504	-28.2172	61.5982
  95	1	3	-0.14326	39.9464	-28.1278	61.6855
  96	1	3	0.043342	40.5959	-26.8751	61.7359
  97	1	6	0.163244	37.7954	-24.8941	61.6915
  98	1	6	0.101178	40.2444	-24.7278	61.8331
  99	1	6	0.165346	33.0476	-29.0704	63.2118
 100	1	6	0.135111	30.8696	-28.4317	62.1515
 101	1	6	0.171751	32.9701	-25.8779	59.3281
 102	1	5	-0.478239	35.9303	-25.6992	59.6916
 103	1	5	-0.481107	35.969	-28.7101	63.2067
 104	1	5	-0.49957	29.5487	-26.3882	60.8253
 105	1	6	0.151248	38.0831	-29.1977	61.5387
 106	1	6	0.146138	40.5259	-29.0481	61.6804
 107	1	7	0.044043	42.1395	-26.8248	61.6857
 108	1	7	-0.215975	42.7083	-25.4453	61.2549
 109	1	8	0.063789	42.2761	-25.12	60.3002
 110	1	8	0.072206	43.7963	-25.4932	61.1217
 111	1	8	0.045489	42.5031	-24.6731	62.0069
 112	1	7	0.005306	42.7742	-27.284	63.0383
 113	1	7	0.164932	43.8588	-28.3712	62.7372
 114	1	8	0.005277	41.9907	-27.7135	63.6769
 115	1	8	0.017604	43.1931	-26.4388	63.6002
 116	1	3	0.008363	43.5505	-28.7561	61.3024
 117	1	7	-0.151488	43.7192	-29.574	63.7018
 118	1	7	-0.269275	45.287	-27.7841	62.8411
 119	1	3	0.096378	42.6428	-27.8832	60.7205
 120	1	8	0.063418	45.4134	-26.9284	62.1667
 121	1	8	0.061085	46.0386	-28.5363	62.57
 122	1	8	0.065045	45.4998	-27.4459	63.8632
 123	1	3	-0.142025	44.0215	-29.8734	60.5922
 124	1	3	-0.448546	42.1626	-28.0997	59.4214
 125	1	3	0.277842	42.5806	-29.2371	58.7023
 126	1	3	-0.409063	43.5204	-30.1139	59.2951
 127	1	6	0.203923	41.4264	-27.4229	59.0049
 128	1	8	0.016419	42.73	-30.0403	63.6072
 129	1	8	0.049665	43.8458	-29.2543	64.7439
 130	1	8	0.035794	44.4747	-30.341	63.4908
 131	1	6	0.161583	44.7269	-30.5613	61.054
 132	1	6	0.199011	43.8392	-31.003	58.7561
 133	1	1	0.463181	35.734	-18.1646	61.9355
 134	1	2	0.074399	37.0592	-18.4838	61.6316
 135	1	3	0.034296	36.9965	-19.7899	60.9294
 136	1	2	0.051625	34.8334	-19.1279	61.4739
 137	1	3	0.019035	35.6736	-20.1714	60.8313
 138	1	5	-0.389616	38.0759	-17.8671	61.9056
 139	1	5	-0.380104	33.6178	-19.149	61.5806
 140	1	3	-0.045097	38.0325	-20.6031	60.4566
 141	1	3	-0.056032	35.3092	-21.3897	60.2486
 142	1	3	-0.174781	36.3369	-22.2256	59.7614
 143	1	3	-0.129342	37.7035	-21.8391	59.8506
 144	1	6	0.168842	39.0684	-20.2886	60.5751
 145	1	6	0.15893	34.2633	-21.6849	60.2002
 146	1	6	0.147704	36.0637	-23.1932	59.3471
 147	1	2	0.584577	38.83	-22.7442	59.4078
 148	1	3	-0.046755	38.6057	-23.796	58.3493
 149	1	3	-0.110868	37.69	-23.6005	57.2854
 150	1	3	-0.046132	37.5206	-24.637	56.357
 151	1	3	-0.135873	39.3582	-24.9977	58.4074
 152	1	3	-0.117662	39.1594	-26.0324	57.4749
 153	1	3	-0.064457	38.2208	-25.8213	56.463
 154	1	2	0.492569	37.7853	-26.7221	55.3708
 155	1	1	-0.072087	36.8444	-26.0053	54.6432
 156	1	2	0.477555	36.6276	-24.7375	55.1711
 157	1	3	0.042617	36.1352	-26.5443	53.5354
 158	1	3	-0.20367	35.9742	-25.8204	52.341
 159	1	3	-0.057018	35.2081	-26.3482	51.285
 160	1	3	-0.18182	35.5602	-27.8185	53.6375
 161	1	3	-0.14326	34.834	-28.3641	52.5723
 162	1	3	0.043342	34.6	-27.6189	51.3957
 163	1	6	0.163244	36.4046	-24.8269	52.2447
 164	1	6	0.101178	35.0653	-25.7396	50.3985
 165	1	6	0.165346	39.7073	-26.9683	57.5334
 166	1	6	0.135111	40.0893	-25.1347	59.198
 167	1	6	0.171751	37.1237	-22.6779	57.1775
 168	1	5	-0.478239	35.8524	-23.8805	54.7814
 169	1	5	-0.481107	38.1545	-27.8725	55.2075
 170	1	5	-0.49957	39.9203	-22.6475	59.9492
 171	1	6	0.151248	35.6417	-28.3749	54.5646
 172	1	6	0.146138	34.3848	-29.3459	52.7022
 173	1	7	0.044043	33.5977	-28.1601	50.3506
 174	1	7	-0.215975	33.0482	-27.0703	49.3904
 175	1	8	0.063789	33.8354	-26.6848	48.7303
 176	1	8	0.072206	32.6246	-26.2294	49.9545
 177	1	8	0.045489	32.2509	-27.47	48.7528
 178	1	7	0.005306	34.1801	-29.365	49.5448
 179	1	7	0.164932	33.1199	-30.5165	49.5427
 180	1	8	0.005277	35.0978	-29.7136	50.0377
 181	1	8	0.017604	34.4713	-29.0765	48.5263
 182	1	3	0.008363	32.1993	-30.1103	50.6796
 183	1	7	-0.151488	33.7958	-31.885	49.7977
 184	1	7	-0.269275	32.3406	-30.5699	48.207
 185	1	3	0.096378	32.4326	-28.8026	51.0815
 186	1	8	0.063418	31.5698	-31.3503	48.238
 187	1	8	0.061085	33.0132	-30.7915	47.3687
 188	1	8	0.065045	31.8399	-29.6173	47.9983
 189	1	3	-0.142025	31.2865	-30.9185	51.3793
 190	1	3	-0.448546	31.7892	-28.2654	52.205
 191	1	3	0.277842	30.9281	-29.0763	52.9678
 192	1	3	-0.409063	30.6662	-30.3979	52.5351
 193	1	6	0.203923	32.0614	-27.2731	52.5555
 194	1	8	0.016419	33.0599	-32.6988	49.8031
 195	1	8	0.049665	34.3096	-31.8873	50.7651
 196	1	8	0.035794	34.5376	-32.1051	49.0194
 197	1	6	0.161583	31.1162	-31.9487	51.0738
 198	1	6	0.199011	30.0201	-31.0418	53.1287
 199	1	1	0.463181	35.3657	-1.44325	52.8976
 200	1	2	0.074399	34.4728	-2.33896	52.3012
 201	1	3	0.034296	34.0285	-3.23798	53.3936
 202	1	2	0.051625	35.5327	-1.69098	54.2635
 203	1	3	0.019035	34.6532	-2.85093	54.5613
 204	1	5	-0.389616	34.0757	-2.37375	51.1475
 205	1	5	-0.380104	36.2315	-1.09789	55.0693
 206	1	3	-0.045097	33.1154	-4.29747	53.3633
 207	1	3	-0.056032	34.3867	-3.49274	55.7753
 208	1	3	-0.174781	33.4635	-4.5607	55.7723
 209	1	3	-0.129342	32.8368	-4.98752	54.5672
 210	1	6	0.168842	32.6284	-4.56844	52.4274
 211	1	6	0.15893	34.8663	-3.15591	56.6922
 212	1	6	0.147704	33.2178	-5.03326	56.7209
 213	1	2	0.584577	31.8184	-6.10412	54.5352
 214	1	3	-0.046755	31.82	-7.177	55.5969
 215	1	3	-0.110868	33.0241	-7.62703	56.1923
 216	1	3	-0.046132	32.9481	-8.61949	57.1782
 217	1	3	-0.135873	30.5902	-7.77713	55.9758
 218	1	3	-0.117662	30.5384	-8.77834	56.9672
 219	1	3	-0.064457	31.7435	-9.17379	57.5594
 220	1	2	0.492569	32.0092	-10.1676	58.6333
 221	1	1	-0.072087	33.3843	-10.1417	58.8418
 222	1	2	0.477555	34.0226	-9.24347	57.9929
 223	1	3	0.042617	34.0526	-10.9098	59.8388
 224	1	3	-0.20367	35.0212	-10.3144	60.6657
 225	1	3	-0.057018	35.6632	-11.0619	61.6653
 226	1	3	-0.18182	33.7421	-12.2682	60.0313
 227	1	3	-0.14326	34.3819	-13.0162	61.0353
 228	1	3	0.043342	35.3523	-12.4216	61.8721
 229	1	6	0.163244	35.2813	-9.26674	60.5387
 230	1	6	0.101178	36.4017	-10.5722	62.2932
 231	1	6	0.165346	29.5949	-9.22937	57.2705
 232	1	6	0.135111	29.666	-7.45301	55.4999
 233	1	6	0.171751	33.9939	-7.22729	55.9014
 234	1	5	-0.478239	35.2083	-8.96606	57.9341
 235	1	5	-0.481107	31.1677	-10.8268	59.219
 236	1	5	-0.49957	30.9781	-6.12596	53.6507
 237	1	6	0.151248	32.9864	-12.7468	59.4129
 238	1	6	0.146138	34.0977	-14.0567	61.1615
 239	1	7	0.044043	36.0571	-13.1931	63.006
 240	1	7	-0.215975	37.5959	-13.1743	62.8022
 241	1	8	0.063789	38.003	-12.1606	62.8992
 242	1	8	0.072206	37.8626	-13.5492	61.806
 243	1	8	0.045489	38.0979	-13.808	63.5449
 244	1	7	0.005306	35.6702	-12.5912	64.3958
 245	1	7	0.164932	34.4945	-13.4362	64.9738
 246	1	8	0.005277	35.4217	-11.5233	64.3463
 247	1	8	0.017604	36.5328	-12.6766	65.0704
 248	1	3	0.008363	34.6799	-14.7496	64.2394
 249	1	7	-0.151488	33.1241	-12.8068	64.6255
 250	1	7	-0.269275	34.6223	-13.5912	66.509
 251	1	3	0.096378	35.5505	-14.6211	63.1639
 252	1	8	0.063418	34.6085	-12.611	67.0023
 253	1	8	0.061085	35.561	-14.0937	66.776
 254	1	8	0.065045	33.7951	-14.1852	66.9166
 255	1	3	-0.142025	34.1051	-15.9903	64.5515
 256	1	3	-0.448546	35.896	-15.735	62.3797
 257	1	3	0.277842	35.3533	-17.0046	62.6838
 258	1	3	-0.409063	34.4493	-17.1104	63.7697
 259	1	6	0.203923	36.6034	-15.6212	61.5626
 260	1	8	0.016419	32.9998	-12.6926	63.5421
 261	1	8	0.049665	33.0209	-11.8149	65.0833
 262	1	8	0.035794	32.3023	-13.4354	64.991
 263	1	6	0.161583	33.417	-16.0844	65.3889
 264	1	6	0.199011	34.0118	-18.0775	64.0108
 265	1	1	0.463181	23.9543	-8.96692	43.8626
 266	1	2	0.074399	24.2834	-7.88344	43.0467
 267	1	3	0.034296	25.296	-7.1145	43.8124
 268	1	2	0.051625	24.6311	-8.94906	45.0829
 269	1	3	0.019035	25.4997	-7.74626	45.0244
 270	1	5	-0.389616	23.8973	-7.63789	41.9149
 271	1	5	-0.380104	24.5826	-9.75907	45.9942
 272	1	3	-0.045097	26.0247	-5.9773	43.4444
 273	1	3	-0.056032	26.4294	-7.26524	45.9518
 274	1	3	-0.174781	27.18	-6.12394	45.6015
 275	1	3	-0.129342	27.0037	-5.48941	44.3407
 276	1	6	0.168842	25.857	-5.50703	42.4763
 277	1	6	0.15893	26.5711	-7.77055	46.9051
 278	1	6	0.147704	27.9034	-5.73344	46.3151
 279	1	2	0.584577	27.8329	-4.29559	43.94
 280	1	3	-0.046755	29.2686	-4.21246	44.3938
 281	1	3	-0.110868	29.8615	-2.94456	44.6012
 282	1	3	-0.046132	31.1893	-2.89569	45.0481
 283	1	3	-0.135873	30.0423	-5.38831	44.5931
 284	1	3	-0.117662	31.3761	-5.31504	45.0407
 285	1	3	-0.064457	31.9194	-4.04602	45.2688
 286	1	2	0.492569	33.2552	-3.65737	45.7885
 287	1	1	-0.072087	33.2409	-2.26953	45.8688
 288	1	2	0.477555	32.0398	-1.73213	45.4162
 289	1	3	0.042617	34.2909	-1.50876	46.4569
 290	1	3	-0.20367	35.6381	-1.78613	46.1623
 291	1	3	-0.057018	36.6722	-1.12306	46.8455
 292	1	3	-0.18182	33.9963	-0.519655	47.4103
 293	1	3	-0.14326	35.0278	0.150208	48.0844
 294	1	3	0.043342	36.3817	-0.165035	47.8411
 295	1	6	0.163244	35.8899	-2.55321	45.4346
 296	1	6	0.101178	37.6966	-1.39398	46.6141
 297	1	6	0.165346	31.9689	-6.2115	45.2151
 298	1	6	0.135111	29.6104	-6.36727	44.3976
 299	1	6	0.171751	29.2979	-2.0256	44.4428
 300	1	5	-0.478239	31.7051	-0.560795	45.3696
 301	1	5	-0.481107	34.1413	-4.42786	46.1179
 302	1	5	-0.49957	27.3523	-3.42276	43.2363
 303	1	6	0.151248	32.9636	-0.289031	47.6604
 304	1	6	0.146138	34.7651	0.886695	48.8392
 305	1	7	0.044043	37.4747	0.490436	48.7106
 306	1	7	-0.215975	38.8511	-0.225713	48.6366
 307	1	8	0.063789	39.2946	-0.139498	47.6368
 308	1	8	0.072206	38.7518	-1.29093	48.8821
 309	1	8	0.045489	39.5607	0.211074	49.3502
 310	1	7	0.005306	37.6328	2.01004	48.3826
 311	1	7	0.164932	37.5992	2.81314	49.7241
 312	1	8	0.005277	36.8017	2.33118	47.7406
 313	1	8	0.017604	38.5493	2.211	47.8122
 314	1	3	0.008363	37.0729	1.78775	50.7107
 315	1	7	-0.151488	36.6581	4.03714	49.6106
 316	1	7	-0.269275	39.0159	3.28233	50.1335
 317	1	3	0.096378	37.0224	0.516376	50.1596
 318	1	8	0.063418	39.7031	2.43251	50.2252
 319	1	8	0.061085	38.992	3.79844	51.1015
 320	1	8	0.065045	39.4295	3.9757	49.3902
 321	1	3	-0.142025	36.6223	2.01255	52.0206
 322	1	3	-0.448546	36.499	-0.56705	50.8819
 323	1	3	0.277842	35.9975	-0.368904	52.1878
 324	1	3	-0.409063	36.0819	0.931544	52.747
 325	1	6	0.203923	36.4246	-1.54047	50.4025
 326	1	8	0.016419	36.9952	4.71704	48.8177
 327	1	8	0.049665	36.6296	4.60288	50.55
 328	1	8	0.035794	35.6329	3.7228	49.3754
 329	1	6	0.161583	36.6671	3.00895	52.455
 330	1	6	0.199011	35.712	1.10674	53.7555
 331	1	1	0.463181	22.6465	-1.57548	27.2739
 332	1	2	0.074399	22.5717	-2.96305	27.1399
 333	1	3	0.034296	22.4408	-3.48058	28.5252
 334	1	2	0.051625	22.6023	-1.15974	28.6054
 335	1	3	0.019035	22.4497	-2.40713	29.3949
 336	1	5	-0.389616	22.5723	-3.63213	26.1192
 337	1	5	-0.380104	22.6368	-0.0247069	29.0524
 338	1	3	-0.045097	22.2956	-4.79556	28.9829
 339	1	3	-0.056032	22.3068	-2.58295	30.7746
 340	1	3	-0.174781	22.1443	-3.89746	31.2586
 341	1	3	-0.129342	22.1258	-5.00872	30.3709
 342	1	6	0.168842	22.2993	-5.62548	28.2777
 343	1	6	0.15893	22.3191	-1.72533	31.4443
 344	1	6	0.147704	22.05	-4.05042	32.3321
 345	1	2	0.584577	21.9699	-6.41862	30.8824
 346	1	3	-0.046755	21.1662	-6.66091	32.1334
 347	1	3	-0.110868	21.5733	-7.66949	33.0371
 348	1	3	-0.046132	20.8294	-7.84866	34.2112
 349	1	3	-0.135873	19.999	-5.89917	32.4098
 350	1	3	-0.117662	19.2582	-6.10651	33.591
 351	1	3	-0.064457	19.7094	-7.0881	34.4815
 352	1	2	0.492569	19.1868	-7.48864	35.8142
 353	1	1	-0.072087	20.0577	-8.46508	36.2837
 354	1	2	0.477555	21.06	-8.75739	35.3648
 355	1	3	0.042617	19.9778	-9.03731	37.5849
 356	1	3	-0.20367	18.751	-9.4858	38.1043
 357	1	3	-0.057018	18.677	-10.0061	39.4075
 358	1	3	-0.18182	21.1267	-9.12643	38.3898
 359	1	3	-0.14326	21.0541	-9.65173	39.6895
 360	1	3	0.043342	19.8241	-10.096	40.2238
 361	1	6	0.163244	17.846	-9.41489	37.5062
 362	1	6	0.101178	17.7145	-10.3366	39.787
 363	1	6	0.165346	18.3703	-5.51753	33.8163
 364	1	6	0.135111	19.6619	-5.14329	31.7037
 365	1	6	0.171751	22.4584	-8.27515	32.8449
 366	1	5	-0.478239	21.9784	-9.5513	35.4746
 367	1	5	-0.481107	18.2126	-7.01144	36.3708
 368	1	5	-0.49957	22.5007	-7.34725	30.2962
 369	1	6	0.151248	22.087	-8.78305	38.0122
 370	1	6	0.146138	21.9711	-9.69893	40.2685
 371	1	7	0.044043	19.6968	-10.6551	41.6562
 372	1	7	-0.215975	18.7201	-9.78461	42.491
 373	1	8	0.063789	17.6982	-9.83678	42.0962
 374	1	8	0.072206	19.0305	-8.73217	42.4814
 375	1	8	0.045489	18.6925	-10.1179	43.5365
 376	1	7	0.005306	19.2319	-12.1479	41.6331
 377	1	7	0.164932	20.4986	-13.0471	41.7616
 378	1	8	0.005277	18.6415	-12.3976	40.7423
 379	1	8	0.017604	18.5794	-12.3304	42.4975
 380	1	3	0.008363	21.4804	-12.098	42.4183
 381	1	7	-0.151488	21.0212	-13.4754	40.369
 382	1	7	-0.269275	20.2152	-14.3008	42.624
 383	1	3	0.096378	21.039	-10.7819	42.3645
 384	1	8	0.063418	21.1095	-14.9302	42.7108
 385	1	8	0.061085	19.4178	-14.9084	42.1777
 386	1	8	0.065045	19.9027	-14.0181	43.6374
 387	1	3	-0.142025	22.7196	-12.4166	42.9929
 388	1	3	-0.448546	21.824	-9.73714	42.8804
 389	1	3	0.277842	23.0887	-10.0232	43.4408
 390	1	3	-0.409063	23.5168	-11.3721	43.5003
 391	1	6	0.203923	21.4817	-8.70956	42.7902
 392	1	8	0.016419	21.9525	-14.0487	40.4602
 393	1	8	0.049665	21.2268	-12.6037	39.7353
 394	1	8	0.035794	20.2864	-14.1039	39.8502
 395	1	6	0.161583	23.0632	-13.4484	43.025
 396	1	6	0.199011	24.4856	-11.6091	43.9355
 397	1	1	0.463181	4.65404	1.10835	27.1754
 398	1	2	0.074399	5.88365	0.61678	26.7323
 399	1	3	0.034296	6.90692	1.40499	27.4676
 400	1	2	0.051625	4.78973	2.14678	28.0961
 401	1	3	0.019035	6.25324	2.31871	28.2726
 402	1	5	-0.389616	6.10232	-0.288309	25.9429
 403	1	5	-0.380104	3.91565	2.77165	28.6736
 404	1	3	-0.045097	8.3041	1.28921	27.4693
 405	1	3	-0.056032	6.95528	3.17874	29.1214
 406	1	3	-0.174781	8.36131	3.08598	29.1337
 407	1	3	-0.129342	9.04819	2.15647	28.3079
 408	1	6	0.168842	8.78269	0.522949	26.8625
 409	1	6	0.15893	6.42453	3.87806	29.7641
 410	1	6	0.147704	8.92899	3.73018	29.8044
 411	1	2	0.584577	10.5504	2.0559	28.4242
 412	1	3	-0.046755	11.4185	1.78757	27.2142
 413	1	3	-0.110868	12.7652	1.39891	27.4219
 414	1	3	-0.046132	13.5984	1.22635	26.3091
 415	1	3	-0.135873	10.9593	2.0024	25.8849
 416	1	3	-0.117662	11.8142	1.81323	24.7777
 417	1	3	-0.064457	13.1374	1.42596	25.0247
 418	1	2	0.492569	14.2772	1.22648	24.0885
 419	1	1	-0.072087	15.3768	0.927263	24.8858
 420	1	2	0.477555	15.0456	0.89076	26.2361
 421	1	3	0.042617	16.6971	0.730786	24.3857
 422	1	3	-0.20367	16.9348	-0.0974951	23.2743
 423	1	3	-0.057018	18.24	-0.283553	22.7843
 424	1	3	-0.18182	17.7886	1.37984	24.9889
 425	1	3	-0.14326	19.0921	1.19361	24.5006
 426	1	3	0.043342	19.344	0.3476	23.3989
 427	1	6	0.163244	16.1047	-0.595144	22.7789
 428	1	6	0.101178	18.3775	-0.924305	21.92
 429	1	6	0.165346	11.4724	1.99333	23.7596
 430	1	6	0.135111	9.94934	2.35866	25.7003
 431	1	6	0.171751	13.1641	1.26337	28.427
 432	1	5	-0.478239	15.7726	0.657772	27.1863
 433	1	5	-0.481107	14.2334	1.34487	22.8758
 434	1	5	-0.49957	11.0717	2.23675	29.5128
 435	1	6	0.151248	17.6309	2.02929	25.8469
 436	1	6	0.146138	19.9114	1.71044	24.9935
 437	1	7	0.044043	20.7904	0.158142	22.891
 438	1	7	-0.215975	20.9926	-1.13051	22.0469
 439	1	8	0.063789	20.4546	-1.07795	21.0924
 440	1	8	0.072206	20.6457	-2.01725	22.593
 441	1	8	0.045489	22.0557	-1.27906	21.8157
 442	1	7	0.005306	21.2628	1.41262	22.0853
 443	1	7	0.164932	22.5002	2.04455	22.8045
 444	1	8	0.005277	20.4466	2.14338	22.0081
 445	1	8	0.017604	21.5145	1.13975	21.0518
 446	1	3	0.008363	22.6879	1.15363	24.0167
 447	1	7	-0.151488	22.2063	3.50424	23.2274
 448	1	7	-0.269275	23.753	2.00515	21.8967
 449	1	3	0.096378	21.7615	0.122388	24.057
 450	1	8	0.063418	23.9923	0.973933	21.6063
 451	1	8	0.061085	24.6271	2.41967	22.4146
 452	1	8	0.065045	23.5937	2.58916	20.9814
 453	1	3	-0.142025	23.6402	1.29736	25.0382
 454	1	3	-0.448546	21.7473	-0.795315	25.1177
 455	1	3	0.277842	22.6858	-0.67359	26.1652
 456	1	3	-0.409063	23.6299	0.380936	26.1093
 457	1	6	0.203923	21.0049	-1.5891	25.1317
 458	1	8	0.016419	21.3352	3.55254	23.8933
 459	1	8	0.049665	21.9978	4.13036	22.3505
 460	1	8	0.035794	23.061	3.9414	23.7586
 461	1	6	0.161583	24.3602	2.1125	25.0082
 462	1	6	0.199011	24.3458	0.50232	26.92
 463	1	1	0.463181	6.59744	-12.8519	14.5996
 464	1	2	0.074399	6.01188	-11.8	15.3112
 465	1	3	0.034296	7.0932	-11.2513	16.1656
 466	1	2	0.051625	7.953	-13.0067	14.9005
 467	1	3	0.019035	8.24837	-11.9668	15.9205
 468	1	5	-0.389616	4.86203	-11.3922	15.2726
 469	1	5	-0.380104	8.73855	-13.8372	14.4734
 470	1	3	-0.045097	7.04232	-10.2341	17.1267
 471	1	3	-0.056032	9.42906	-11.7019	16.6219
 472	1	3	-0.174781	9.40238	-10.6825	17.5971
 473	1	3	-0.129342	8.21963	-9.93868	17.8567
 474	1	6	0.168842	6.09849	-9.7292	17.3215
 475	1	6	0.15893	10.3276	-12.2856	16.4333
 476	1	6	0.147704	10.3033	-10.4788	18.1748
 477	1	2	0.584577	8.21004	-8.91999	18.972
 478	1	3	-0.046755	7.20029	-7.80062	18.9648
 479	1	3	-0.110868	6.63079	-7.38193	20.1901
 480	1	3	-0.046132	5.73138	-6.30764	20.1773
 481	1	3	-0.135873	6.8654	-7.11491	17.7663
 482	1	3	-0.117662	5.97338	-6.02139	17.7812
 483	1	3	-0.064457	5.42209	-5.63941	19.0115
 484	1	2	0.492569	4.5131	-4.51256	19.3534
 485	1	1	-0.072087	4.31788	-4.57771	20.7317
 486	1	2	0.477555	5.00692	-5.64888	21.296
 487	1	3	0.042617	3.55633	-3.62581	21.4802
 488	1	3	-0.20367	2.36691	-3.07755	20.964
 489	1	3	-0.057018	1.66514	-2.08813	21.6739
 490	1	3	-0.18182	4.00184	-3.18179	22.7397
 491	1	3	-0.14326	3.28773	-2.20981	23.4601
 492	1	3	0.043342	2.11369	-1.63152	22.9307
 493	1	6	0.163244	1.99298	-3.39268	19.9934
 494	1	6	0.101178	0.769915	-1.66076	21.2313
 495	1	6	0.165346	5.7325	-5.47164	16.8727
 496	1	6	0.135111	7.32918	-7.4036	16.8255
 497	1	6	0.171751	6.89207	-7.87026	21.1284
 498	1	5	-0.478239	5.03529	-6.00468	22.4616
 499	1	5	-0.481107	4.08029	-3.69066	18.5635
 500	1	5	-0.49957	8.98706	-9.03042	19.9061
 501	1	6	0.151248	4.91701	-3.581	23.1698
 502	1	6	0.146138	3.67892	-1.90497	24.4252
 503	1	7	0.044043	1.35191	-0.492606	23.6422
 504	1	7	-0.215975	1.42161	0.799428	22.785
 505	1	8	0.063789	2.4628	1.06594	22.564
 506	1	8	0.072206	0.962421	1.64599	23.3121
 507	1	8	0.045489	0.897072	0.674436	21.8295
 508	1	7	0.005306	-0.138129	-0.886601	23.9176
 509	1	7	0.164932	-0.274642	-1.27693	25.4207
 510	1	8	0.005277	-0.494149	-1.68966	23.2601
 511	1	8	0.017604	-0.781725	-0.0201302	23.7147
 512	1	3	0.008363	0.958991	-0.639764	26.0258
 513	1	7	-0.151488	-0.225406	-2.81255	25.6016
 514	1	7	-0.269275	-1.58389	-0.716168	26.0285
 515	1	3	0.096378	1.8548	-0.212634	25.0537
 516	1	8	0.063418	-1.67675	-0.986612	27.0875
 517	1	8	0.061085	-2.46037	-1.11362	25.5011
 518	1	8	0.065045	-1.61143	0.378953	25.9578
 519	1	3	-0.142025	1.24648	-0.477364	27.3892
 520	1	3	-0.448546	3.06763	0.401579	25.4144
 521	1	3	0.277842	3.39478	0.558885	26.78
 522	1	3	-0.409063	2.46726	0.12073	27.7558
 523	1	6	0.203923	3.76572	0.712268	24.6418
 524	1	8	0.016419	-1.07778	-3.29422	25.1058
 525	1	8	0.049665	-0.256648	-3.08147	26.6651
 526	1	8	0.035794	0.695823	-3.23058	25.1759
 527	1	6	0.161583	0.541095	-0.81484	28.1456
 528	1	6	0.199011	2.69828	0.250091	28.8117
 529	1	1	0.463181	6.35948	-29.4324	9.43853
 530	1	2	0.074399	7.29301	-29.0275	8.47765
 531	1	3	0.034296	8.29375	-28.2183	9.21928
 532	1	2	0.051625	6.69356	-28.9933	10.7224
 533	1	3	0.019035	7.92523	-28.1852	10.5504
 534	1	5	-0.389616	7.26484	-29.1891	7.26766
 535	1	5	-0.380104	6.10067	-29.1738	11.7737
 536	1	3	-0.045097	9.40065	-27.5012	8.7461
 537	1	3	-0.056032	8.62615	-27.4193	11.4872
 538	1	3	-0.174781	9.72275	-26.6614	11.0293
 539	1	3	-0.129342	10.1132	-26.6975	9.66499
 540	1	6	0.168842	9.66894	-27.5319	7.6912
 541	1	6	0.15893	8.30859	-27.3945	12.5275
 542	1	6	0.147704	10.2747	-26.0454	11.7373
 543	1	2	0.584577	11.2551	-25.8473	9.18629
 544	1	3	-0.046755	11.2022	-24.3747	9.49922
 545	1	3	-0.110868	9.95219	-23.7147	9.576
 546	1	3	-0.046132	9.94114	-22.3351	9.81248
 547	1	3	-0.135873	12.3986	-23.6292	9.66285
 548	1	3	-0.117662	12.3624	-22.2414	9.92131
 549	1	3	-0.064457	11.1084	-21.6183	9.98843
 550	1	2	0.492569	10.7441	-20.186	10.1794
 551	1	1	-0.072087	9.36078	-20.1363	10.0771
 552	1	2	0.477555	8.79883	-21.3866	9.86786
 553	1	3	0.042617	8.60082	-18.9393	10.1124
 554	1	3	-0.20367	8.41956	-18.2333	11.3128
 555	1	3	-0.057018	7.62516	-17.072	11.3428
 556	1	3	-0.18182	8.00343	-18.4592	8.93696
 557	1	3	-0.14326	7.22349	-17.2923	8.96426
 558	1	3	0.043342	6.9997	-16.5924	10.1695
 559	1	6	0.163244	8.88783	-18.587	12.2272
 560	1	6	0.101178	7.49889	-16.5577	12.2904
 561	1	6	0.165346	13.2771	-21.6631	10.0423
 562	1	6	0.135111	13.3601	-24.1339	9.58413
 563	1	6	0.171751	9.01328	-24.2424	9.41691
 564	1	5	-0.478239	7.62222	-21.6674	9.71975
 565	1	5	-0.481107	11.5168	-19.2603	10.3535
 566	1	5	-0.49957	12.15	-26.3255	8.51082
 567	1	6	0.151248	8.13727	-18.9952	8.00081
 568	1	6	0.146138	6.77704	-16.939	8.0392
 569	1	7	0.044043	6.08985	-15.3455	10.1626
 570	1	7	-0.215975	6.76167	-14.2057	9.35344
 571	1	8	0.063789	6.87976	-14.4837	8.29884
 572	1	8	0.072206	7.75818	-13.9794	9.75324
 573	1	8	0.045489	6.16338	-13.2864	9.39556
 574	1	7	0.005306	4.68139	-15.6922	9.57322
 575	1	7	0.164932	3.7448	-16.0578	10.7618
 576	1	8	0.005277	4.70029	-16.4835	8.81453
 577	1	8	0.017604	4.2819	-14.7992	9.07367
 578	1	3	0.008363	4.40199	-15.2925	11.8921
 579	1	7	-0.151488	3.75876	-17.5787	11.0493
 580	1	7	-0.269275	2.29383	-15.5906	10.4898
 581	1	3	0.096378	5.68656	-14.8764	11.559
 582	1	8	0.063418	1.63165	-15.8515	11.3246
 583	1	8	0.061085	1.89554	-16.0645	9.58367
 584	1	8	0.065045	2.25003	-14.5025	10.3527
 585	1	3	-0.142025	3.83579	-14.958	13.1297
 586	1	3	-0.448546	6.42916	-14.0689	12.4408
 587	1	3	0.277842	5.87685	-13.6942	13.6893
 588	1	3	-0.409063	4.58228	-14.1656	14.0214
 589	1	6	0.203923	7.42598	-13.7392	12.1601
 590	1	8	0.016419	3.14425	-17.8149	11.9273
 591	1	8	0.049665	4.7748	-17.941	11.247
 592	1	8	0.035794	3.35967	-18.1418	10.1961
 593	1	6	0.161583	2.83049	-15.2875	13.3835
 594	1	6	0.199011	4.13501	-13.8863	14.9735
 595	1	1	0.463181	4.89717	-26.1258	-7.9534
 596	1	2	0.074399	4.49871	-26.9176	-6.8787
 597	1	3	0.034296	5.65375	-27.8032	-6.60441
 598	1	2	0.051625	6.17838	-26.439	-8.41156
 599	1	3	0.019035	6.65403	-27.5266	-7.51539
 600	1	5	-0.389616	3.46072	-26.8718	-6.23869
 601	1	5	-0.380104	6.80646	-25.9218	-9.32086
 602	1	3	-0.045097	5.8241	-28.74	-5.58318
 603	1	3	-0.056032	7.88114	-28.1999	-7.4722
 604	1	3	-0.174781	8.08018	-29.1456	-6.44164
 605	1	3	-0.129342	7.07282	-29.3961	-5.47215
 606	1	6	0.168842	5.01109	-28.9215	-4.88312
 607	1	6	0.15893	8.65984	-27.9777	-8.1991
 608	1	6	0.147704	9.03324	-29.6688	-6.3729
 609	1	2	0.584577	7.33295	-30.3438	-4.32688
 610	1	3	-0.046755	6.72819	-30.0337	-2.97699
 611	1	3	-0.110868	6.45641	-31.0863	-2.06994
 612	1	3	-0.046132	5.86806	-30.769	-0.836336
 613	1	3	-0.135873	6.45369	-28.6931	-2.58824
 614	1	3	-0.117662	5.85108	-28.3999	-1.34979
 615	1	3	-0.064457	5.557	-29.4688	-0.497678
 616	1	2	0.492569	4.952	-29.4698	0.858155
 617	1	1	-0.072087	4.96437	-30.7958	1.28211
 618	1	2	0.477555	5.49165	-31.6417	0.307954
 619	1	3	0.042617	4.56104	-31.2231	2.58477
 620	1	3	-0.20367	4.8545	-30.4367	3.71336
 621	1	3	-0.057018	4.52283	-30.8732	5.00443
 622	1	3	-0.18182	3.90832	-32.4546	2.78201
 623	1	3	-0.14326	3.60394	-32.9064	4.07851
 624	1	3	0.043342	3.91565	-32.1308	5.21516
 625	1	6	0.163244	5.36046	-29.481	3.60445
 626	1	6	0.101178	4.77755	-30.2205	5.83066
 627	1	6	0.165346	5.63073	-27.376	-1.05197
 628	1	6	0.135111	6.71567	-27.8654	-3.24303
 629	1	6	0.171751	6.69118	-32.1207	-2.31951
 630	1	5	-0.478239	5.65872	-32.848	0.359997
 631	1	5	-0.481107	4.54579	-28.4839	1.44933
 632	1	5	-0.49957	8.02074	-31.3377	-4.49046
 633	1	6	0.151248	3.66657	-33.0873	1.93159
 634	1	6	0.146138	3.14211	-33.8821	4.19961
 635	1	7	0.044043	3.65991	-32.7065	6.62624
 636	1	7	-0.215975	4.56477	-33.9469	6.85059
 637	1	8	0.063789	5.6209	-33.6919	6.69664
 638	1	8	0.072206	4.31231	-34.7571	6.15544
 639	1	8	0.045489	4.45699	-34.3332	7.87244
 640	1	7	0.005306	2.15232	-33.0807	6.83
 641	1	7	0.164932	1.49578	-32.0277	7.77656
 642	1	8	0.005277	2.08245	-34.0765	7.288
 643	1	8	0.017604	1.60785	-33.149	5.87989
 644	1	3	0.008363	2.69666	-31.3017	8.34499
 645	1	7	-0.151488	0.669487	-32.7175	8.88963
 646	1	7	-0.269275	0.596526	-31.05	6.98334
 647	1	3	0.096378	3.88308	-31.692	7.74051
 648	1	8	0.063418	1.16427	-30.5531	6.18603
 649	1	8	0.061085	0.187812	-30.2725	7.64109
 650	1	8	0.065045	-0.246981	-31.5792	6.52218
 651	1	3	-0.142025	2.69212	-30.3176	9.3435
 652	1	3	-0.448546	5.11164	-31.1405	8.14577
 653	1	3	0.277842	5.13915	-30.1156	9.11886