pySIMM System Object

662 atoms
731 bonds
1290 angles
2066 dihedrals
210 impropers

8 atom types
10 bond types
17 angle types
9 dihedral types
4 improper types

-104.688308 104.688308 xlo xhi
-104.688308 104.688308 ylo yhi
-104.688308 104.688308 zlo zhi

Masses

   1	14.01	# n
   2	12.01	# c
   3	12.01	# ca
   4	1.008	# hn
   5	16.0	# o
   6	1.008	# ha
   7	12.01	# c3
   8	1.008	# hc

Pair Coeffs

   1	0.17	3.249998523775958	# n
   2	0.086	3.3996695084235347	# c
   3	0.086	3.3996695084235347	# ca
   4	0.0157	1.069078461768407	# hn
   5	0.21	2.959921901149463	# o
   6	0.015	2.59964245953351	# ha
   7	0.1094	3.3996695084235347	# c3
   8	0.0157	2.649532787749369	# hc

Bond Coeffs

   1	461.1	1.3984	# ca,ca
   2	427.6	1.3789	# c,n
   3	345.9	1.4906	# c,ca
   4	300.9	1.5375	# c3,c3
   5	345.8	1.086	# ca,ha
   6	384.2	1.4121	# ca,n
   7	637.7	1.2183	# c,o
   8	321.0	1.5156	# c3,ca
   9	330.6	1.0969	# c3,hc
  10	403.2	1.0129	# hn,n

Angle Coeffs

   1	68.72	122.6	# ca,c,o
   2	62.86	111.51	# c3,c3,c3
   3	63.82	123.71	# c,n,ca
   4	67.87	120.19	# ca,ca,n
   5	67.68	115.25	# ca,c,n
   6	63.0	118.11	# ca,c,ca
   7	63.56	112.24	# ca,c3,ca
   8	63.15	112.07	# c3,c3,ca
   9	46.34	109.8	# c3,c3,hc
  10	74.22	123.05	# n,c,o
  11	48.33	117.55	# c,n,hn
  12	64.28	120.33	# c,ca,ca
  13	39.4	107.58	# hc,c3,hc
  14	66.62	120.02	# ca,ca,ca
  15	63.53	120.77	# c3,ca,ca
  16	63.74	127.08	# c,n,c
  17	48.18	119.88	# ca,ca,ha

Dihedral Coeffs

   1	1	2.5	2	180	# X,c,n,X
   2	1	0.45	2	180	# X,ca,n,X
   3	3	0.18	3	0	0.25	2	180	0.2	1	180	# c3,c3,c3,c3
   4	2	2.5	2	180	2.0	1	0	# hn,n,c,o
   5	1	3.625	2	180	# X,ca,ca,X
   6	1	0.16	3	0	# hc,c3,c3,c3
   7	1	1.0	2	180	# X,c,ca,X
   8	1	0.15555555555555556	3	0	# X,c3,c3,X
   9	1	0.0	2	0	# X,c3,ca,X

Improper Coeffs

   1	10.5	-1	2	# c,X,X,o
   2	1.1	-1	2	# ca,X,X,ha
   3	1.1	-1	2	# ca,ca,ca,c3
   4	1.1	-1	2	# n,X,X,hn

Atoms

   1	1	1	0.463181	1.71172	-34.1529	-5.19384
   2	1	2	0.074399	1.10011	-35.1727	-4.46358
   3	1	3	0.034296	2.21903	-35.9019	-3.80502
   4	1	2	0.051625	3.09789	-34.1463	-5.05931
   5	1	3	0.019035	3.40426	-35.2883	-4.16689
   6	1	5	-0.389616	-0.0901416	-35.4207	-4.35957
   7	1	5	-0.380104	3.90819	-33.3765	-5.5486
   8	1	3	-0.045097	2.20273	-36.9962	-2.92727
   9	1	3	-0.056032	4.64092	-35.7467	-3.70673
  10	1	3	-0.174781	4.64864	-36.8437	-2.82375
  11	1	3	-0.129342	3.43683	-37.458	-2.40602
  12	1	6	0.168842	1.25826	-37.4566	-2.63961
  13	1	6	0.15893	5.56208	-35.2643	-4.02724
  14	1	6	0.147704	5.60505	-37.2221	-2.46755
  15	1	2	0.584577	3.45564	-38.6123	-1.43339
  16	1	3	-0.046755	4.47768	-38.6175	-0.319844
  17	1	3	-0.110868	4.93491	-39.8451	0.221003
  18	1	3	-0.046132	5.86159	-39.8084	1.27619
  19	1	3	-0.135873	4.94852	-37.396	0.2325
  20	1	3	-0.117662	5.86842	-37.3821	1.29821
  21	1	3	-0.064457	6.30548	-38.6117	1.80001
  22	1	2	0.492569	7.22367	-38.9042	2.92857
  23	1	1	-0.072087	7.29263	-40.2908	3.01776
  24	1	2	0.477555	6.50593	-40.9095	2.04808
  25	1	3	0.042617	8.03591	-40.9751	4.02775
  26	1	3	-0.20367	7.48757	-42.0778	4.70779
  27	1	3	-0.057018	8.17838	-42.6759	5.77641
  28	1	3	-0.18182	9.31275	-40.5221	4.40847
  29	1	3	-0.14326	10.0043	-41.1223	5.47432
  30	1	3	0.043342	9.43204	-42.1884	6.20176
  31	1	6	0.163244	6.51231	-42.4659	4.42531
  32	1	6	0.101178	7.72324	-43.5175	6.29049
  33	1	6	0.165346	6.22299	-36.4503	1.73415
  34	1	6	0.135111	4.58076	-36.4487	-0.149427
  35	1	6	0.171751	4.57467	-40.7983	-0.164719
  36	1	5	-0.478239	6.35309	-42.1027	1.85113
  37	1	5	-0.481107	7.75645	-38.0684	3.63881
  38	1	5	-0.49957	2.63542	-39.5095	-1.52857
  39	1	6	0.151248	9.76689	-39.6764	3.89805
  40	1	6	0.146138	10.981	-40.7285	5.73355
  41	1	7	0.044043	10.1147	-42.8242	7.43356
  42	1	7	-0.215975	9.19668	-42.7015	8.67969
  43	1	8	0.063789	8.94575	-41.6507	8.87331
  44	1	8	0.072206	9.69476	-43.0976	9.57413
  45	1	8	0.045489	8.25697	-43.2517	8.54868
  46	1	7	0.005306	10.4613	-44.3236	7.14864
  47	1	7	0.164932	11.9703	-44.5711	7.4677
  48	1	8	0.005277	10.2641	-44.5578	6.09408
  49	1	8	0.017604	9.8174	-44.9977	7.72937
  50	1	3	0.008363	12.4908	-43.1786	7.75932
  51	1	7	-0.151488	12.6965	-45.2168	6.26294
  52	1	7	-0.269275	12.1312	-45.4691	8.71931
  53	1	3	0.096378	11.4753	-42.2295	7.777
  54	1	8	0.063418	11.6458	-45.0135	9.59211
  55	1	8	0.061085	13.1909	-45.6144	8.96448
  56	1	8	0.065045	11.6833	-46.4577	8.55768
  57	1	3	-0.142025	13.815	-42.8239	8.06771
  58	1	3	-0.448546	11.7448	-40.9035	8.16406
  59	1	3	0.277842	13.063	-40.5313	8.47027
  60	1	3	-0.409063	14.094	-41.4863	8.41074
  61	1	6	0.203923	10.9472	-40.1702	8.22105
  62	1	8	0.016419	12.6074	-44.5875	5.36807
  63	1	8	0.049665	12.2676	-46.2001	6.03104
  64	1	8	0.035794	13.7643	-45.3558	6.47281
  65	1	6	0.161583	14.6032	-43.5733	8.057
  66	1	6	0.199011	15.1082	-41.185	8.65565
  67	1	1	0.463181	-14.8274	-35.8492	-6.23577
  68	1	2	0.074399	-14.6457	-36.9195	-7.11913
  69	1	3	0.034296	-13.3444	-37.5312	-6.73565
  70	1	2	0.051625	-13.7855	-35.747	-5.30784
  71	1	3	0.019035	-12.8387	-36.8326	-5.65697
  72	1	5	-0.389616	-15.3435	-37.2601	-8.06079
  73	1	5	-0.380104	-13.5959	-34.8904	-4.45907
  74	1	3	-0.045097	-12.6191	-38.5691	-7.33812
  75	1	3	-0.056032	-11.5901	-37.1344	-5.1043
  76	1	3	-0.174781	-10.837	-38.165	-5.70123
  77	1	3	-0.129342	-11.3332	-38.8712	-6.82981
  78	1	6	0.168842	-13.0224	-39.0923	-8.20362
  79	1	6	0.15893	-11.2109	-36.5679	-4.25605
  80	1	6	0.147704	-9.85811	-38.4084	-5.29094
  81	1	2	0.584577	-10.4908	-39.9191	-7.50952
  82	1	3	-0.046755	-9.03992	-39.6042	-7.78914
  83	1	3	-0.110868	-8.60883	-38.2612	-7.91946
  84	1	3	-0.046132	-7.26253	-38.0163	-8.21093
  85	1	3	-0.135873	-8.10217	-40.6547	-7.97506
  86	1	3	-0.117662	-6.74719	-40.384	-8.268
  87	1	3	-0.064457	-6.3556	-39.043	-8.3823
  88	1	2	0.492569	-5.02762	-38.4368	-8.68263
  89	1	1	-0.072087	-5.23176	-37.0638	-8.65838
  90	1	2	0.477555	-6.54833	-36.7267	-8.39009
  91	1	3	0.042617	-4.20593	-36.1024	-8.83503
  92	1	3	-0.20367	-3.67335	-35.8464	-10.1079
  93	1	3	-0.057018	-2.66053	-34.8852	-10.27
  94	1	3	-0.18182	-3.73393	-35.3737	-7.73256
  95	1	3	-0.14326	-2.72164	-34.414	-7.89482
  96	1	3	0.043342	-2.14812	-34.1726	-9.16314
  97	1	6	0.163244	-4.04116	-36.3924	-10.9722
  98	1	6	0.101178	-2.27448	-34.7026	-11.2674
  99	1	6	0.165346	-6.02507	-41.1875	-8.4055
 100	1	6	0.135111	-8.43226	-41.6886	-7.88986
 101	1	6	0.171751	-9.29491	-37.4223	-7.81958
 102	1	5	-0.478239	-7.03715	-35.6146	-8.29285
 103	1	5	-0.481107	-3.98811	-39.0364	-8.89405
 104	1	5	-0.49957	-10.9947	-40.961	-7.89397
 105	1	6	0.151248	-4.15099	-35.5512	-6.74464
 106	1	6	0.146138	-2.38561	-33.8655	-7.01906
 107	1	7	0.044043	-1.0124	-33.1432	-9.34669
 108	1	7	-0.215975	0.0517219	-33.6367	-10.3669
 109	1	8	0.063789	0.376768	-34.6561	-10.1221
 110	1	8	0.072206	0.942934	-32.9979	-10.3524
 111	1	8	0.045489	-0.333195	-33.6374	-11.3935
 112	1	7	0.005306	-1.588	-31.751	-9.76076
 113	1	7	0.164932	-0.830908	-30.6428	-8.96078
 114	1	8	0.005277	-2.65409	-31.718	-9.49802
 115	1	8	0.017604	-1.53339	-31.5872	-10.845
 116	1	3	0.008363	-0.192868	-31.4383	-7.83746
 117	1	7	-0.151488	-1.80572	-29.5624	-8.43369
 118	1	7	-0.269275	0.258745	-29.9683	-9.83107
 119	1	3	0.096378	-0.285955	-32.8079	-8.05306
 120	1	8	0.063418	0.977623	-30.7031	-10.2115
 121	1	8	0.061085	0.820701	-29.2282	-9.24752
 122	1	8	0.065045	-0.187057	-29.4538	-10.6916
 123	1	3	-0.142025	0.486282	-30.9358	-6.71622
 124	1	3	-0.448546	0.318694	-33.7205	-7.17323
 125	1	3	0.277842	1.01619	-33.2428	-6.04343
 126	1	3	-0.409063	1.08331	-31.8462	-5.82228
 127	1	6	0.203923	0.258698	-34.7867	-7.37528
 128	1	8	0.016419	-2.56798	-30.0041	-7.77938
 129	1	8	0.049665	-2.31844	-29.0623	-9.26515
 130	1	8	0.035794	-1.27078	-28.7963	-7.85843
 131	1	6	0.161583	0.577406	-29.8624	-6.5563
 132	1	6	0.199011	1.63844	-31.4566	-4.97155
 133	1	1	0.463181	-2.25522	-32.5709	2.41967
 134	1	2	0.074399	-3.09555	-33.5452	1.88633
 135	1	3	0.034296	-4.46751	-33.0143	2.08033
 136	1	2	0.051625	-2.94377	-31.4762	2.9353
 137	1	3	0.019035	-4.37613	-31.7809	2.69824
 138	1	5	-0.389616	-2.79391	-34.6053	1.36302
 139	1	5	-0.380104	-2.49166	-30.4705	3.45732
 140	1	3	-0.045097	-5.70236	-33.5705	1.73084
 141	1	3	-0.056032	-5.51405	-31.0299	3.00603
 142	1	3	-0.174781	-6.76971	-31.5659	2.65661
 143	1	3	-0.129342	-6.87233	-32.8247	2.00369
 144	1	6	0.168842	-5.74814	-34.5458	1.24778
 145	1	6	0.15893	-5.42226	-30.0652	3.50085
 146	1	6	0.147704	-7.66768	-31.002	2.90224
 147	1	2	0.584577	-8.20894	-33.3976	1.61425
 148	1	3	-0.046755	-9.29724	-32.4748	1.12567
 149	1	3	-0.110868	-10.6443	-32.9027	1.18739
 150	1	3	-0.046132	-11.6327	-32.0785	0.634364
 151	1	3	-0.135873	-8.98503	-31.2394	0.494771
 152	1	3	-0.117662	-9.99441	-30.426	-0.05427
 153	1	3	-0.064457	-11.3151	-30.8771	0.0316785
 154	1	2	0.492569	-12.5284	-30.3617	-0.648514
 155	1	1	-0.072087	-13.4906	-31.3478	-0.477471
 156	1	2	0.477555	-13.0659	-32.3665	0.364229
 157	1	3	0.042617	-14.6093	-31.4841	-1.33715
 158	1	3	-0.20367	-15.903	-31.7281	-0.847578
 159	1	3	-0.057018	-16.96	-31.9825	-1.74162
 160	1	3	-0.18182	-14.3881	-31.4843	-2.72307
 161	1	3	-0.14326	-15.4393	-31.7312	-3.61151
 162	1	3	0.043342	-16.7369	-32.0112	-3.13771
 163	1	6	0.163244	-16.0833	-31.7559	0.223886
 164	1	6	0.101178	-17.9448	-32.1802	-1.33234
 165	1	6	0.165346	-9.75584	-29.5126	-0.596877
 166	1	6	0.135111	-7.94987	-30.9329	0.366366
 167	1	6	0.171751	-10.9077	-33.8791	1.59323
 168	1	5	-0.478239	-13.6655	-33.3799	0.679658
 169	1	5	-0.481107	-12.5739	-29.3814	-1.37214
 170	1	5	-0.49957	-8.38167	-34.6054	1.62525
 171	1	6	0.151248	-13.3891	-31.3202	-3.11968
 172	1	6	0.146138	-15.2274	-31.738	-4.67735
 173	1	7	0.044043	-17.8455	-32.3407	-4.15674
 174	1	7	-0.215975	-19.0615	-33.0783	-3.5341
 175	1	8	0.063789	-19.612	-32.4303	-2.84081
 176	1	8	0.072206	-18.7369	-33.9739	-2.98907
 177	1	8	0.045489	-19.7659	-33.4028	-4.30942
 178	1	7	0.005306	-18.3055	-31.0443	-4.89668
 179	1	7	0.164932	-18.3936	-31.3516	-6.42559
 180	1	8	0.005277	-17.5613	-30.2533	-4.73123
 181	1	8	0.017604	-19.2518	-30.656	-4.49825
 182	1	3	0.008363	-17.6085	-32.6455	-6.54317
 183	1	7	-0.151488	-17.7408	-30.2176	-7.25463
 184	1	7	-0.269275	-19.8622	-31.5413	-6.87224
 185	1	3	0.096378	-17.3008	-33.1834	-5.30126
 186	1	8	0.063418	-19.9164	-31.8097	-7.93447
 187	1	8	0.061085	-20.4358	-30.6169	-6.72638
 188	1	8	0.065045	-20.3522	-32.3375	-6.29988
 189	1	3	-0.142025	-17.1132	-33.2349	-7.71612
 190	1	3	-0.448546	-16.4526	-34.298	-5.18724
 191	1	3	0.277842	-15.8695	-34.8658	-6.34426
 192	1	3	-0.409063	-16.2402	-34.336	-7.60623
 193	1	6	0.203923	-16.1668	-34.6483	-4.19809
 194	1	8	0.016419	-16.6758	-30.1145	-7.00802
 195	1	8	0.049665	-18.2297	-29.2556	-7.05603
 196	1	8	0.035794	-17.8177	-30.419	-8.33039
 197	1	6	0.161583	-17.3537	-32.811	-8.68869
 198	1	6	0.199011	-15.8126	-34.7575	-8.51386
 199	1	1	0.463181	2.4496	-18.4677	-7.65245
 200	1	2	0.074399	2.20837	-19.7095	-7.06227
 201	1	3	0.034296	3.53447	-20.1768	-6.58553
 202	1	2	0.051625	3.80365	-18.1288	-7.65688
 203	1	3	0.019035	4.4821	-19.2374	-6.94189
 204	1	5	-0.389616	1.14281	-20.2768	-6.88308
 205	1	5	-0.380104	4.33458	-17.116	-8.08279
 206	1	3	-0.045097	3.8621	-21.2969	-5.81183
 207	1	3	-0.056032	5.81709	-19.3631	-6.54878
 208	1	3	-0.174781	6.17296	-20.4909	-5.7812
 209	1	3	-0.129342	5.21151	-21.4718	-5.41465
 210	1	6	0.168842	3.07239	-21.9756	-5.49781
 211	1	6	0.15893	6.54365	-18.5943	-6.80442
 212	1	6	0.147704	7.2034	-20.5941	-5.443
 213	1	2	0.584577	5.63439	-22.6193	-4.52462
 214	1	3	-0.046755	4.8541	-23.9137	-4.49906
 215	1	3	-0.110868	4.85775	-24.6864	-3.31247
 216	1	3	-0.046132	4.16357	-25.9036	-3.29921
 217	1	3	-0.135873	4.18132	-24.4112	-5.64884
 218	1	3	-0.117662	3.48778	-25.64	-5.61308
 219	1	3	-0.064457	3.49398	-26.3652	-4.41436
 220	1	2	0.492569	2.90326	-27.691	-4.08274
 221	1	1	-0.072087	3.27159	-27.9517	-2.76761
 222	1	2	0.477555	4.02283	-26.9188	-2.22033
 223	1	3	0.042617	2.9693	-29.1621	-2.0806
 224	1	3	-0.20367	3.26042	-30.4005	-2.6762
 225	1	3	-0.057018	3.00491	-31.598	-1.99048
 226	1	3	-0.18182	2.41702	-29.145	-0.786473
 227	1	3	-0.14326	2.15073	-30.3465	-0.102647
 228	1	3	0.043342	2.43572	-31.5949	-0.697987
 229	1	6	0.163244	3.70228	-30.4385	-3.66975
 230	1	6	0.101178	3.2748	-32.5311	-2.4722
 231	1	6	0.165346	2.97992	-26.0309	-6.49334
 232	1	6	0.135111	4.21913	-23.8613	-6.58641
 233	1	6	0.171751	5.39663	-24.3539	-2.42549
 234	1	5	-0.478239	4.50411	-26.8507	-1.10277
 235	1	5	-0.481107	2.25417	-28.3971	-4.83641
 236	1	5	-0.49957	6.60366	-22.4884	-3.79451
 237	1	6	0.151248	2.21076	-28.1952	-0.298254
 238	1	6	0.146138	1.73949	-30.2947	0.902181
 239	1	7	0.044043	2.21055	-32.9273	0.0474413
 240	1	7	-0.215975	1.65183	-34.0236	-0.899366
 241	1	8	0.063789	2.41342	-34.3545	-1.60979
 242	1	8	0.072206	0.78476	-33.6558	-1.46372
 243	1	8	0.045489	1.33042	-34.9065	-0.331015
 244	1	7	0.005306	3.54597	-33.4053	0.703342
 245	1	7	0.164932	3.43823	-33.2322	2.25054
 246	1	8	0.005277	4.4147	-32.8708	0.296463
 247	1	8	0.017604	3.7045	-34.464	0.469222
 248	1	3	0.008363	1.9531	-33.0189	2.45255
 249	1	7	-0.151488	4.22654	-31.9916	2.73091
 250	1	7	-0.269275	3.94904	-34.4952	2.98694
 251	1	3	0.096378	1.28602	-32.8187	1.25048
 252	1	8	0.063418	3.38364	-35.3856	2.68206
 253	1	8	0.061085	3.84557	-34.3889	4.07382
 254	1	8	0.065045	5.00944	-34.669	2.76937
 255	1	3	-0.142025	1.25474	-33.0371	3.66984
 256	1	3	-0.448546	-0.107359	-32.6499	1.22202
 257	1	3	0.277842	-0.836521	-32.6845	2.43026
 258	1	3	-0.409063	-0.142754	-32.8697	3.64875
 259	1	6	0.203923	-0.621634	-32.5352	0.271849
 260	1	8	0.016419	5.29965	-32.1068	2.53246
 261	1	8	0.049665	4.09633	-31.8409	3.81012
 262	1	8	0.035794	3.88274	-31.0831	2.22109
 263	1	6	0.161583	1.78268	-33.1978	4.60748
 264	1	6	0.199011	-0.698116	-32.8952	4.58402
 265	1	1	0.463181	13.3027	-3.97423	-13.3527
 266	1	2	0.074399	12.5645	-3.80709	-12.184
 267	1	3	0.034296	11.4736	-4.79599	-12.2758
 268	1	2	0.051625	12.8319	-5.0151	-14.1536
 269	1	3	0.019035	11.6316	-5.53134	-13.4353
 270	1	5	-0.389616	12.7279	-2.99886	-11.2833
 271	1	5	-0.380104	13.2422	-5.37934	-15.2432
 272	1	3	-0.045097	10.3722	-4.95879	-11.4359
 273	1	3	-0.056032	10.6992	-6.51241	-13.7987
 274	1	3	-0.174781	9.59062	-6.72238	-12.9453
 275	1	3	-0.129342	9.41732	-5.9382	-11.7722
 276	1	6	0.168842	10.2478	-4.3193	-10.5634
 277	1	6	0.15893	10.8158	-7.06554	-14.7287
 278	1	6	0.147704	8.83364	-7.45234	-13.2271
 279	1	2	0.584577	8.18337	-6.03844	-10.9225
 280	1	3	-0.046755	7.72415	-7.38259	-10.4295
 281	1	3	-0.110868	6.36259	-7.55667	-10.0924
 282	1	3	-0.046132	5.95579	-8.79617	-9.58678
 283	1	3	-0.135873	8.64115	-8.44908	-10.2296
 284	1	3	-0.117662	8.21026	-9.68587	-9.70422
 285	1	3	-0.064457	6.85102	-9.83007	-9.39645
 286	1	2	0.492569	6.0977	-10.9995	-8.86801
 287	1	1	-0.072087	4.77382	-10.5873	-8.79114
 288	1	2	0.477555	4.60534	-9.26914	-9.18831
 289	1	3	0.042617	3.69343	-11.4318	-8.42749
 290	1	3	-0.20367	2.83488	-11.0814	-7.37306
 291	1	3	-0.057018	1.72787	-11.8883	-7.0607
 292	1	3	-0.18182	3.43036	-12.5954	-9.1672
 293	1	3	-0.14326	2.3194	-13.3978	-8.85993
 294	1	3	0.043342	1.45555	-13.0648	-7.79288
 295	1	6	0.163244	3.01154	-10.1702	-6.80741
 296	1	6	0.101178	1.075	-11.5771	-6.25242
 297	1	6	0.165346	8.90605	-10.5064	-9.53657
 298	1	6	0.135111	9.69662	-8.31153	-10.4545
 299	1	6	0.171751	5.64091	-6.75065	-10.2226
 300	1	5	-0.478239	3.57006	-8.62899	-9.25058
 301	1	5	-0.481107	6.56293	-12.0939	-8.60208
 302	1	5	-0.49957	7.59516	-5.02291	-10.5908
 303	1	6	0.151248	4.08201	-12.8747	-9.99156
 304	1	6	0.146138	2.13582	-14.2809	-9.46566
 305	1	7	0.044043	0.219301	-13.9326	-7.47465
 306	1	7	-0.215975	-0.112201	-13.9574	-5.95612
 307	1	8	0.063789	-0.504801	-12.995	-5.60725
 308	1	8	0.072206	0.783258	-14.198	-5.36871
 309	1	8	0.045489	-0.866835	-14.7195	-5.72717
 310	1	7	0.005306	-1.01222	-13.4643	-8.31363
 311	1	7	0.164932	-1.74248	-14.7277	-8.87309
 312	1	8	0.005277	-0.655252	-12.8546	-9.15485
 313	1	8	0.017604	-1.68642	-12.821	-7.73323
 314	1	3	0.008363	-0.688481	-15.8063	-8.7106
 315	1	7	-0.151488	-2.15775	-14.5277	-10.3506
 316	1	7	-0.269275	-2.99329	-15.0707	-8.02747
 317	1	3	0.096378	0.376459	-15.3713	-7.93419
 318	1	8	0.063418	-2.72964	-15.2451	-6.97781
 319	1	8	0.061085	-3.48047	-15.9798	-8.40173
 320	1	8	0.065045	-3.72678	-14.2554	-8.06141
 321	1	3	-0.142025	-0.728896	-17.1247	-9.1921
 322	1	3	-0.448546	1.42373	-16.2379	-7.59577
 323	1	3	0.277842	1.4126	-17.5711	-8.05873
 324	1	3	-0.409063	0.328183	-17.9996	-8.8641
 325	1	6	0.203923	2.23809	-15.8744	-6.97334
 326	1	8	0.016419	-2.67048	-15.4159	-10.7408
 327	1	8	0.049665	-1.28162	-14.3384	-10.9837
 328	1	8	0.035794	-2.84055	-13.6741	-10.45
 329	1	6	0.161583	-1.57583	-17.468	-9.78278
 330	1	6	0.199011	0.287203	-19.0323	-9.2047
 331	1	1	0.463181	8.16161	7.87531	0.178999
 332	1	2	0.074399	7.34551	7.62003	-0.923262
 333	1	3	0.034296	8.16917	6.79636	-1.83455
 334	1	2	0.051625	9.45816	7.37318	0.00799979
 335	1	3	0.019035	9.4324	6.65895	-1.30078
 336	1	5	-0.389616	6.18065	7.93526	-1.10783
 337	1	5	-0.380104	10.391	7.39373	0.794562
 338	1	3	-0.045097	7.76634	6.08118	-2.96125
 339	1	3	-0.056032	10.388	5.83628	-1.91548
 340	1	3	-0.174781	10.0065	5.1075	-3.06946
 341	1	3	-0.129342	8.68168	5.19899	-3.58031
 342	1	6	0.168842	6.73036	6.1448	-3.29082
 343	1	6	0.15893	11.3713	5.71205	-1.46611
 344	1	6	0.147704	10.7173	4.4068	-3.49482
 345	1	2	0.584577	8.09538	4.26146	-4.60982
 346	1	3	-0.046755	8.69749	4.04653	-5.97682
 347	1	3	-0.110868	9.99997	3.52647	-6.19889
 348	1	3	-0.046132	10.367	3.20125	-7.51902
 349	1	3	-0.135873	7.82501	4.23298	-7.08113
 350	1	3	-0.117662	8.21404	3.91079	-8.3918
 351	1	3	-0.064457	9.49362	3.3843	-8.57455
 352	1	2	0.492569	10.1486	2.92228	-9.82037
 353	1	1	-0.072087	11.4142	2.49865	-9.44551
 354	1	2	0.477555	11.6222	2.60923	-8.07397
 355	1	3	0.042617	12.3809	2.0842	-10.4019
 356	1	3	-0.20367	12.953	0.801586	-10.3715
 357	1	3	-0.057018	13.8064	0.381783	-11.4098
 358	1	3	-0.18182	12.7116	2.95061	-11.4565
 359	1	3	-0.14326	13.5547	2.52844	-12.4954
 360	1	3	0.043342	14.0822	1.22141	-12.5167
 361	1	6	0.163244	12.716	0.114042	-9.56306
 362	1	6	0.101178	14.2232	-0.619405	-11.3539
 363	1	6	0.165346	7.53557	4.03517	-9.23414
 364	1	6	0.135111	6.81525	4.60232	-6.91061
 365	1	6	0.171751	10.6848	3.31411	-5.38407
 366	1	5	-0.478239	12.6235	2.32529	-7.43983
 367	1	5	-0.481107	9.66129	2.94948	-10.9377
 368	1	5	-0.49957	6.96029	3.85658	-4.4163
 369	1	6	0.151248	12.276	3.94567	-11.4959
 370	1	6	0.146138	13.7698	3.2217	-13.3012
 371	1	7	0.044043	14.9271	0.752274	-13.7258
 372	1	7	-0.215975	14.3118	1.21304	-15.0778
 373	1	8	0.063789	14.3553	2.30084	-15.2039
 374	1	8	0.072206	13.2609	0.903494	-15.1501
 375	1	8	0.045489	14.8478	0.767151	-15.9254
 376	1	7	0.005306	16.4066	1.23284	-13.5957
 377	1	7	0.164932	17.3569	0.0211648	-13.8739
 378	1	8	0.005277	16.574	1.60886	-12.5774
 379	1	8	0.017604	16.6171	2.07501	-14.2682
 380	1	3	0.008363	16.4062	-1.16058	-13.8807
 381	1	7	-0.151488	18.4126	-0.115535	-12.7505
 382	1	7	-0.269275	18.0625	0.16682	-15.2432
 383	1	3	0.096378	15.0834	-0.754854	-13.7957
 384	1	8	0.063418	18.6759	-0.716085	-15.4627
 385	1	8	0.061085	18.7193	1.046	-15.2542
 386	1	8	0.065045	17.331	0.277956	-16.0535
 387	1	3	-0.142025	16.7336	-2.52743	-13.9199
 388	1	3	-0.448546	14.0456	-1.69183	-13.7433
 389	1	3	0.277842	14.347	-3.06702	-13.6909
 390	1	3	-0.409063	15.696	-3.47852	-13.8092
 391	1	6	0.203923	13.0205	-1.3474	-13.632
 392	1	8	0.016419	19.0748	-0.971483	-12.9304
 393	1	8	0.049665	17.9276	-0.263891	-11.7767
 394	1	8	0.035794	19.0343	0.786459	-12.686
 395	1	6	0.161583	17.7737	-2.84018	-13.9868
 396	1	6	0.199011	15.94	-4.53822	-13.7782
 397	1	1	0.463181	5.96488	25.0915	7.01938
 398	1	2	0.074399	6.71554	25.4211	5.88035
 399	1	3	0.034296	6.51955	24.2903	4.92818
 400	1	2	0.051625	5.32426	23.8517	6.87103
 401	1	3	0.019035	5.6696	23.3778	5.51572
 402	1	5	-0.389616	7.4019	26.4082	5.67258
 403	1	5	-0.380104	4.68627	23.2004	7.68309
 404	1	3	-0.045097	7.07279	24.0515	3.66066
 405	1	3	-0.056032	5.26143	22.2144	4.86009
 406	1	3	-0.174781	5.78132	21.9684	3.57628
 407	1	3	-0.129342	6.73387	22.8479	2.99176
 408	1	6	0.168842	7.77112	24.7638	3.2237
 409	1	6	0.15893	4.56935	21.5243	5.33918
 410	1	6	0.147704	5.45914	21.0731	3.04767
 411	1	2	0.584577	7.39191	22.5195	1.67148
 412	1	3	-0.046755	7.75034	21.0814	1.35384
 413	1	3	-0.110868	7.86788	20.1128	2.38083
 414	1	3	-0.046132	8.13523	18.7879	2.02784
 415	1	3	-0.135873	7.99687	20.6863	0.0106968
 416	1	3	-0.117662	8.30011	19.3454	-0.318936
 417	1	3	-0.064457	8.34561	18.4068	0.721202
 418	1	2	0.492569	8.58042	16.9344	0.707251
 419	1	1	-0.072087	8.47072	16.519	2.0331
 420	1	2	0.477555	8.20908	17.5844	2.8877
 421	1	3	0.042617	8.56319	15.1669	2.47976
 422	1	3	-0.20367	7.95698	14.1189	1.76221
 423	1	3	-0.057018	7.97936	12.8032	2.258
 424	1	3	-0.18182	9.20935	14.8653	3.69239
 425	1	3	-0.14326	9.21673	13.5563	4.1959
 426	1	3	0.043342	8.59785	12.5043	3.49296
 427	1	6	0.163244	7.44808	14.3204	0.822906
 428	1	6	0.101178	7.48067	12.0296	1.68232
 429	1	6	0.165346	8.47629	19.0407	-1.34921
 430	1	6	0.135111	7.94047	21.4281	-0.784291
 431	1	6	0.171751	7.74706	20.36	3.43263
 432	1	5	-0.478239	8.00487	17.5681	4.08985
 433	1	5	-0.481107	8.79132	16.2544	-0.282158
 434	1	5	-0.49957	7.67076	23.4173	0.894335
 435	1	6	0.151248	9.68101	15.6537	4.27341
 436	1	6	0.146138	9.68696	13.3671	5.15617
 437	1	7	0.044043	8.57896	11.0947	4.1155
 438	1	7	-0.215975	10.0144	10.6269	4.47845
 439	1	8	0.063789	10.0146	9.57376	4.7889
 440	1	8	0.072206	10.4372	11.2147	5.3017
 441	1	8	0.045489	10.6853	10.7214	3.61532
 442	1	7	0.005306	7.65053	11.0695	5.37453
 443	1	7	0.164932	6.25979	10.5199	4.93521
 444	1	8	0.005277	7.56895	12.0501	5.86134
 445	1	8	0.017604	8.07983	10.3872	6.12049
 446	1	3	0.008363	6.63229	9.73285	3.69401
 447	1	7	-0.151488	5.28803	11.671	4.57597
 448	1	7	-0.269275	5.62446	9.63685	6.03707
 449	1	3	0.096378	7.90098	10.0604	3.23059
 450	1	8	0.063418	4.64296	9.25999	5.72309
 451	1	8	0.061085	5.48282	10.2099	6.96229
 452	1	8	0.065045	6.26041	8.77207	6.26486
 453	1	3	-0.142025	5.85882	8.77041	3.03295
 454	1	3	-0.448546	8.43208	9.45736	2.07654
 455	1	3	0.277842	7.67097	8.49401	1.37714
 456	1	3	-0.409063	6.39096	8.1522	1.88607
 457	1	6	0.203923	9.42644	9.73026	1.73263
 458	1	8	0.016419	5.70805	12.3263	3.8044
 459	1	8	0.049665	5.06819	12.2875	5.45678
 460	1	8	0.035794	4.33804	11.2754	4.19482
 461	1	6	0.161583	4.86733	8.51109	3.39816
 462	1	6	0.199011	5.78621	7.4099	1.36851
 463	1	1	0.463181	1.63384	38.7005	6.40345
 464	1	2	0.074399	2.65403	38.078	7.11529
 465	1	3	0.034296	3.86593	38.8768	6.81424
 466	1	2	0.051625	2.06125	39.8241	5.69934
 467	1	3	0.019035	3.51748	39.9157	5.97408
 468	1	5	-0.389616	2.60039	37.075	7.80811
 469	1	5	-0.380104	1.40772	40.5618	4.98035
 470	1	3	-0.045097	5.18241	38.6782	7.23316
 471	1	3	-0.056032	4.47151	40.8265	5.50901
 472	1	3	-0.174781	5.81236	40.637	5.90706
 473	1	3	-0.129342	6.18537	39.5582	6.75461
 474	1	6	0.168842	5.3929	37.8556	7.91152
 475	1	6	0.15893	4.18098	41.6451	4.85393
 476	1	6	0.147704	6.57286	41.3322	5.55317
 477	1	2	0.584577	7.62916	39.3816	7.16388
 478	1	3	-0.046755	7.98924	38.1734	7.98241
 479	1	3	-0.110868	7.77765	36.8653	7.48052
 480	1	3	-0.046132	8.02371	35.7815	8.33585
 481	1	3	-0.135873	8.48451	38.3561	9.29679
 482	1	3	-0.117662	8.72087	37.2522	10.1396
 483	1	3	-0.064457	8.46548	35.9733	9.62905
 484	1	2	0.492569	8.57761	34.6448	10.2821
 485	1	1	-0.072087	8.2062	33.7085	9.32018
 486	1	2	0.477555	7.85638	34.3173	8.11779
 487	1	3	0.042617	8.18872	32.2995	9.55799
 488	1	3	-0.20367	7.1315	31.4875	9.1032
 489	1	3	-0.057018	7.09456	30.113	9.41085
 490	1	3	-0.18182	9.21798	31.6998	10.3051
 491	1	3	-0.14326	9.17466	30.334	10.6234
 492	1	3	0.043342	8.11466	29.5143	10.1841
 493	1	6	0.163244	6.32091	31.9214	8.52278
 494	1	6	0.101178	6.24638	29.5282	9.06707
 495	1	6	0.165346	9.07468	37.3826	11.1609
 496	1	6	0.135111	8.65331	39.3642	9.67152
 497	1	6	0.171751	7.41086	36.6944	6.46937
 498	1	5	-0.478239	7.47579	33.793	7.08541
 499	1	5	-0.481107	8.89936	34.4549	11.4427
 500	1	5	-0.49957	8.46174	40.2428	6.9346
 501	1	6	0.151248	10.0434	32.3003	10.6794
 502	1	6	0.146138	9.95831	29.9253	11.2528
 503	1	7	0.044043	8.03479	28.0505	10.6715
 504	1	7	-0.215975	9.39614	27.3156	10.5269
 505	1	8	0.063789	9.77286	27.3912	9.49906
 506	1	8	0.072206	9.28986	26.2507	10.7708
 507	1	8	0.045489	10.1591	27.7286	11.1972
 508	1	7	0.005306	7.56498	28.0623	12.1663
 509	1	7	0.164932	6.19241	27.3295	12.275
 510	1	8	0.005277	7.46955	29.0926	12.5351
 511	1	8	0.017604	8.31245	27.5856	12.8142
 512	1	3	0.008363	5.88873	26.9607	10.8405
 513	1	7	-0.151488	5.09671	28.2288	12.8946
 514	1	7	-0.269275	6.34296	26.0326	13.1093
 515	1	3	0.096378	6.94324	27.2362	9.98288
 516	1	8	0.063418	6.66018	26.2551	14.1356
 517	1	8	0.061085	7.09161	25.3667	12.6592
 518	1	8	0.065045	5.3953	25.4817	13.1584
 519	1	3	-0.142025	4.76074	26.2686	10.3892
 520	1	3	-0.448546	6.97702	26.6714	8.69115
 521	1	3	0.277842	5.8981	25.8674	8.23673
 522	1	3	-0.409063	4.761	25.7629	9.07983
 523	1	6	0.203923	7.86022	26.8145	8.07478
 524	1	8	0.016419	4.12	27.7287	12.8761
 525	1	8	0.049665	5.0039	29.1733	12.3443
 526	1	8	0.035794	5.33232	28.4635	13.9405
 527	1	6	0.161583	3.93003	26.0668	11.062
 528	1	6	0.199011	3.89277	25.1929	8.75883
 529	1	1	0.463181	-11.9587	48.7925	6.95122
 530	1	2	0.074399	-11.0359	48.2005	7.81385
 531	1	3	0.034296	-9.82069	49.0572	7.72493
 532	1	2	0.051625	-11.4776	49.9518	6.3509
 533	1	3	0.019035	-10.0901	50.0943	6.84943
 534	1	5	-0.389616	-11.1517	47.1709	8.4579
 535	1	5	-0.380104	-12.0317	50.6693	5.53395
 536	1	3	-0.045097	-8.56735	48.9284	8.34444
 537	1	3	-0.056032	-9.13035	51.0573	6.53064
 538	1	3	-0.174781	-7.86899	50.9518	7.14523
 539	1	3	-0.129342	-7.57389	49.8941	8.04266
 540	1	6	0.168842	-8.39088	48.1226	9.05439
 541	1	6	0.15893	-9.36189	51.8623	5.83648
 542	1	6	0.147704	-7.10985	51.7039	6.93482
 543	1	2	0.584577	-6.23473	49.9042	8.72944
 544	1	3	-0.046755	-5.32382	48.6977	8.69061
 545	1	3	-0.110868	-5.60192	47.5534	7.89769
 546	1	3	-0.046132	-4.68528	46.4889	7.92109
 547	1	3	-0.135873	-4.12716	48.7359	9.45639
 548	1	3	-0.117662	-3.22362	47.658	9.46577
 549	1	3	-0.064457	-3.53533	46.5429	8.68507
 550	1	2	0.492569	-2.85391	45.2284	8.60805
 551	1	1	-0.072087	-3.68044	44.4316	7.83184
 552	1	2	0.477555	-4.76786	45.1275	7.31956
 553	1	3	0.042617	-3.57461	43.0194	7.83953
 554	1	3	-0.20367	-3.80894	42.3458	9.0476
 555	1	3	-0.057018	-3.68023	40.9536	9.12695
 556	1	3	-0.18182	-3.22239	42.2842	6.69678
 557	1	3	-0.14326	-3.09029	40.885	6.77725
 558	1	3	0.043342	-3.30183	40.1998	7.9975
 559	1	6	0.163244	-4.07778	42.9065	9.93852
 560	1	6	0.101178	-3.87094	40.4772	10.0818
 561	1	6	0.165346	-2.32514	47.6736	10.0806
 562	1	6	0.135111	-3.90192	49.61	10.0649
 563	1	6	0.171751	-6.50073	47.4736	7.29033
 564	1	5	-0.478239	-5.69133	44.6932	6.65357
 565	1	5	-0.481107	-1.87861	44.8897	9.25592
 566	1	5	-0.49957	-5.85314	50.9419	9.24549
 567	1	6	0.151248	-3.03981	42.7925	5.75309
 568	1	6	0.146138	-2.809	40.3344	5.88295
 569	1	7	0.044043	-3.13825	38.6681	8.07365
 570	1	7	-0.215975	-2.91265	38.1305	9.51521
 571	1	8	0.063789	-2.06963	38.6405	9.99904
 572	1	8	0.072206	-2.68641	37.0564	9.49921
 573	1	8	0.045489	-3.80396	38.2652	10.1409
 574	1	7	0.005306	-4.36387	37.9531	7.41957
 575	1	7	0.164932	-3.85733	37.0597	6.2414
 576	1	8	0.005277	-5.08347	38.6981	7.05433
 577	1	8	0.017604	-4.9096	37.3522	8.15916
 578	1	3	0.008363	-2.37094	37.3502	6.20038
 579	1	7	-0.151488	-4.53456	37.4682	4.91134
 580	1	7	-0.269275	-4.11474	35.5615	6.52938
 581	1	3	0.096378	-1.97871	38.2212	7.2061
 582	1	8	0.063418	-5.18849	35.3605	6.63366
 583	1	8	0.061085	-3.61811	35.2516	7.45798
 584	1	8	0.065045	-3.72957	34.9333	5.71649
 585	1	3	-0.142025	-1.4421	36.8766	5.26098
 586	1	3	-0.448546	-0.650438	38.6617	7.30743
 587	1	3	0.277842	0.297559	38.2171	6.36363
 588	1	3	-0.409063	-0.107637	37.3183	5.34882
 589	1	6	0.203923	-0.371021	39.3673	8.08501
 590	1	8	0.016419	-4.33352	38.5221	4.67855
 591	1	8	0.049665	-5.6221	37.3346	4.96848
 592	1	8	0.035794	-4.16237	36.8625	4.07585
 593	1	6	0.161583	-1.75671	36.2015	4.46807
 594	1	6	0.199011	0.616453	36.9776	4.61242
 595	1	1	0.463181	-25.5401	58.577	11.2207
 596	1	2	0.074399	-24.1804	58.8305	11.3174
 597	1	3	0.034296	-23.7134	58.8295	9.90482
 598	1	2	0.051625	-26.0106	58.4031	9.92852
 599	1	3	0.019035	-24.8002	58.5779	9.07979
 600	1	5	-0.389616	-23.5169	59.036	12.3199
 601	1	5	-0.380104	-27.1538	58.1877	9.5627
 602	1	3	-0.045097	-22.4409	59.0901	9.38165
 603	1	3	-0.056032	-24.6705	58.5684	7.68636
 604	1	3	-0.174781	-23.3994	58.846	7.13788
 605	1	3	-0.129342	-22.285	59.109	7.97632
 606	1	6	0.168842	-21.6158	59.3251	10.0505
 607	1	6	0.15893	-25.5375	58.3876	7.0542
 608	1	6	0.147704	-23.2841	58.8892	6.05661
 609	1	2	0.584577	-20.9672	59.5278	7.3893
 610	1	3	-0.046755	-19.8202	58.5647	7.46854
 611	1	3	-0.110868	-19.8523	57.3764	6.70824
 612	1	3	-0.046132	-18.7692	56.4969	6.81372
 613	1	3	-0.135873	-18.7055	58.8414	8.30078
 614	1	3	-0.117662	-17.6437	57.9181	8.42303
 615	1	3	-0.064457	-17.7075	56.7409	7.66393
 616	1	2	0.492569	-16.8419	55.5261	7.68028
 617	1	1	-0.072087	-17.4781	54.6166	6.8455
 618	1	2	0.477555	-18.5995	55.1469	6.22955
 619	1	3	0.042617	-17.2613	53.2193	6.87283
 620	1	3	-0.20367	-18.1344	52.4435	7.64725
 621	1	3	-0.057018	-18.0611	51.0469	7.61788
 622	1	3	-0.18182	-16.2999	52.5861	6.06893
 623	1	3	-0.14326	-16.224	51.1798	6.04271
 624	1	3	0.043342	-17.0978	50.3882	6.82589
 625	1	6	0.163244	-18.8994	52.9243	8.25048
 626	1	6	0.101178	-18.7772	50.4878	8.20975
 627	1	6	0.165346	-16.8128	58.0965	9.10369
 628	1	6	0.135111	-18.6839	59.7627	8.87934
 629	1	6	0.171751	-20.695	57.1319	6.06425
 630	1	5	-0.478239	-19.4012	54.5763	5.51051
 631	1	5	-0.481107	-15.9021	55.323	8.42906
 632	1	5	-0.49957	-20.8121	60.6556	6.95779
 633	1	6	0.151248	-15.6301	53.1766	5.44864
 634	1	6	0.146138	-15.4853	50.7083	5.39859
 635	1	7	0.044043	-17.0307	48.8464	6.8028
 636	1	7	-0.215975	-17.5253	48.2241	8.14088
 637	1	8	0.063789	-17.0898	48.7492	9.00002
 638	1	8	0.072206	-17.2381	47.1723	8.23344
 639	1	8	0.045489	-18.6187	48.2719	8.22585
 640	1	7	0.005306	-17.8363	48.27	5.59593
 641	1	7	0.164932	-17.0724	47.0201	5.05567
 642	1	8	0.005277	-17.8642	49.0321	4.80448
 643	1	8	0.017604	-18.8813	48.05	5.84876
 644	1	3	0.008363	-15.6618	47.3088	5.53979
 645	1	7	-0.151488	-17.1726	46.9275	3.5128