pySIMM System Object

1916 atoms
2118 bonds
3741 angles
5999 dihedrals
609 impropers

8 atom types
10 bond types
17 angle types
9 dihedral types
4 improper types

-185.906334 185.906334 xlo xhi
-185.906334 185.906334 ylo yhi
-185.906334 185.906334 zlo zhi

Masses

   1	14.01	# n
   2	12.01	# c
   3	12.01	# ca
   4	1.008	# hn
   5	16.0	# o
   6	1.008	# ha
   7	12.01	# c3
   8	1.008	# hc

Pair Coeffs

   1	0.17	3.249998523775958	# n
   2	0.086	3.3996695084235347	# c
   3	0.086	3.3996695084235347	# ca
   4	0.0157	1.069078461768407	# hn
   5	0.21	2.959921901149463	# o
   6	0.015	2.59964245953351	# ha
   7	0.1094	3.3996695084235347	# c3
   8	0.0157	2.649532787749369	# hc

Bond Coeffs

   1	461.1	1.3984	# ca,ca
   2	427.6	1.3789	# c,n
   3	345.9	1.4906	# c,ca
   4	300.9	1.5375	# c3,c3
   5	345.8	1.086	# ca,ha
   6	384.2	1.4121	# ca,n
   7	637.7	1.2183	# c,o
   8	321.0	1.5156	# c3,ca
   9	330.6	1.0969	# c3,hc
  10	403.2	1.0129	# hn,n

Angle Coeffs

   1	68.72	122.6	# ca,c,o
   2	62.86	111.51	# c3,c3,c3
   3	63.82	123.71	# c,n,ca
   4	67.87	120.19	# ca,ca,n
   5	67.68	115.25	# ca,c,n
   6	63.0	118.11	# ca,c,ca
   7	63.56	112.24	# ca,c3,ca
   8	63.15	112.07	# c3,c3,ca
   9	46.34	109.8	# c3,c3,hc
  10	74.22	123.05	# n,c,o
  11	48.33	117.55	# c,n,hn
  12	64.28	120.33	# c,ca,ca
  13	39.4	107.58	# hc,c3,hc
  14	66.62	120.02	# ca,ca,ca
  15	63.53	120.77	# c3,ca,ca
  16	63.74	127.08	# c,n,c
  17	48.18	119.88	# ca,ca,ha

Dihedral Coeffs

   1	1	2.5	2	180	# X,c,n,X
   2	1	0.45	2	180	# X,ca,n,X
   3	3	0.18	3	0	0.25	2	180	0.2	1	180	# c3,c3,c3,c3
   4	2	2.5	2	180	2.0	1	0	# hn,n,c,o
   5	1	3.625	2	180	# X,ca,ca,X
   6	1	0.16	3	0	# hc,c3,c3,c3
   7	1	1.0	2	180	# X,c,ca,X
   8	1	0.15555555555555556	3	0	# X,c3,c3,X
   9	1	0.0	2	0	# X,c3,ca,X

Improper Coeffs

   1	10.5	-1	2	# c,X,X,o
   2	1.1	-1	2	# ca,X,X,ha
   3	1.1	-1	2	# ca,ca,ca,c3
   4	1.1	-1	2	# n,X,X,hn

Atoms

   1	1	1	0.463181	-0.0973951	72.3128	33.0684
   2	1	2	0.074399	1.02086	71.9817	32.3069
   3	1	3	0.034296	0.605352	70.8036	31.5081
   4	1	2	0.051625	-1.19076	71.4848	32.8225
   5	1	3	0.019035	-0.713731	70.5146	31.8026
   6	1	5	-0.389616	2.13943	72.4684	32.3478
   7	1	5	-0.380104	-2.2716	71.4727	33.388
   8	1	3	-0.045097	1.36135	70.0033	30.6458
   9	1	3	-0.056032	-1.36742	69.4251	31.217
  10	1	3	-0.174781	-0.627534	68.609	30.3352
  11	1	3	-0.129342	0.744624	68.8659	30.0728
  12	1	6	0.168842	2.40206	70.2534	30.4548
  13	1	6	0.15893	-2.40334	69.2039	31.4621
  14	1	6	0.147704	-1.10436	67.7384	29.8881
  15	1	2	0.584577	1.52417	67.9213	29.1938
  16	1	3	-0.046755	2.98503	67.6497	29.4782
  17	1	3	-0.110868	3.52392	67.7517	30.7867
  18	1	3	-0.046132	4.86868	67.4046	30.9897
  19	1	3	-0.135873	3.82016	67.207	28.4198
  20	1	3	-0.117662	5.17211	66.8771	28.6416
  21	1	3	-0.064457	5.6662	66.9822	29.9466
  22	1	2	0.492569	7.00994	66.6562	30.4888
  23	1	1	-0.072087	6.94037	66.8948	31.8583
  24	1	2	0.477555	5.68012	67.3501	32.2398
  25	1	3	0.042617	8.01471	66.6341	32.7634
  26	1	3	-0.20367	8.31572	67.5183	33.8158
  27	1	3	-0.057018	9.39109	67.2607	34.6857
  28	1	3	-0.18182	8.7967	65.4736	32.6194
  29	1	3	-0.14326	9.8705	65.216	33.4852
  30	1	3	0.043342	10.2018	66.1156	34.5194
  31	1	6	0.163244	7.72062	68.4168	33.9585
  32	1	6	0.101178	9.59023	67.9717	35.4804
  33	1	6	0.165346	5.81071	66.5278	27.8323
  34	1	6	0.135111	3.40746	67.1071	27.4171
  35	1	6	0.171751	2.90947	68.0421	31.6362
  36	1	5	-0.478239	5.28872	67.6369	33.3602
  37	1	5	-0.481107	7.95947	66.2574	29.8352
  38	1	5	-0.49957	0.969704	67.3665	28.2582
  39	1	6	0.151248	8.58197	64.7684	31.8206
  40	1	6	0.146138	10.4609	64.3157	33.3349
  41	1	7	0.044043	11.4086	65.8086	35.4318
  42	1	7	-0.215975	11.9333	67.0468	36.209
  43	1	8	0.063789	12.1667	67.8694	35.5208
  44	1	8	0.072206	12.8532	66.8043	36.756
  45	1	8	0.045489	11.1999	67.4053	36.9418
  46	1	7	0.005306	11.0629	64.6517	36.4211
  47	1	7	0.164932	12.2052	63.5899	36.3848
  48	1	8	0.005277	10.1285	64.1798	36.0996
  49	1	8	0.017604	10.8896	65.0219	37.4388
  50	1	3	0.008363	12.9926	63.9979	35.1557
  51	1	7	-0.151488	11.6275	62.1595	36.2535
  52	1	7	-0.269275	13.0861	63.6797	37.6538
  53	1	3	0.096378	12.5627	65.2155	34.639
  54	1	8	0.063418	13.5151	64.6829	37.7676
  55	1	8	0.061085	13.9161	62.9635	37.6056
  56	1	8	0.065045	12.4993	63.4566	38.5544
  57	1	3	-0.142025	14.0457	63.2923	34.5504
  58	1	3	-0.448546	13.1687	65.7687	33.4986
  59	1	3	0.277842	14.2197	65.0743	32.879
  60	1	3	-0.409063	14.6526	63.8422	33.4036
  61	1	6	0.203923	12.828	66.7157	33.0927
  62	1	8	0.016419	11.0179	62.062	35.3456
  63	1	8	0.049665	10.995	61.917	37.1168
  64	1	8	0.035794	12.4288	61.412	36.2046
  65	1	6	0.161583	14.3835	62.3425	34.9597
  66	1	6	0.199011	15.4675	63.3176	32.9133
  67	1	1	0.463181	6.37565	62.0352	32.5497
  68	1	2	0.074399	6.30543	63.2599	33.2058
  69	1	3	0.034296	6.90368	63.0178	34.5391
  70	1	2	0.051625	6.95281	61.0305	33.3188
  71	1	3	0.019035	7.27244	61.6875	34.614
  72	1	5	-0.389616	5.7717	64.2882	32.8225
  73	1	5	-0.380104	7.11696	59.8562	33.0342
  74	1	3	-0.045097	7.0935	63.9039	35.6051
  75	1	3	-0.056032	7.82565	61.1552	35.7809
  76	1	3	-0.174781	8.00498	62.0224	36.878
  77	1	3	-0.129342	7.64644	63.397	36.808
  78	1	6	0.168842	6.83886	64.9527	35.4681
  79	1	6	0.15893	8.10587	60.1053	35.832
  80	1	6	0.147704	8.44908	61.6269	37.7906
  81	1	2	0.584577	7.95982	64.2956	37.983
  82	1	3	-0.046755	7.46961	65.7196	38.0075
  83	1	3	-0.110868	6.11255	66.0452	37.7592
  84	1	3	-0.046132	5.7262	67.3908	37.8589
  85	1	3	-0.135873	8.38385	66.7439	38.3635
  86	1	3	-0.117662	7.97838	68.0889	38.4449
  87	1	3	-0.064457	6.63531	68.3793	38.1853
  88	1	2	0.492569	5.91356	69.6738	38.2553
  89	1	1	-0.072087	4.58598	69.3776	37.9874
  90	1	2	0.477555	4.38704	68.0296	37.7178
  91	1	3	0.042617	3.56399	70.3616	37.9911
  92	1	3	-0.20367	2.50268	70.3062	38.9113
  93	1	3	-0.057018	1.51668	71.3107	38.9236
  94	1	3	-0.18182	3.64398	71.4442	37.1035
  95	1	3	-0.14326	2.66408	72.4468	37.1183
  96	1	3	0.043342	1.5702	72.3875	38.0102
  97	1	6	0.163244	2.44248	69.489	39.6234
  98	1	6	0.101178	0.706501	71.2323	39.6421
  99	1	6	0.165346	8.67434	68.877	38.728
 100	1	6	0.135111	9.41617	66.4873	38.5917
 101	1	6	0.171751	5.3738	65.2795	37.5281
 102	1	5	-0.478239	3.33728	67.4578	37.4757
 103	1	5	-0.481107	6.40362	70.7567	38.5229
 104	1	5	-0.49957	8.71734	63.9095	38.8588
 105	1	6	0.151248	4.47406	71.5169	36.4044
 106	1	6	0.146138	2.75409	73.2707	36.4143
 107	1	7	0.044043	0.472096	73.4718	37.928
 108	1	7	-0.215975	-0.863649	73.072	38.6122
 109	1	8	0.063789	-1.24184	72.121	38.2185
 110	1	8	0.072206	-1.63794	73.8285	38.4342
 111	1	8	0.045489	-0.745076	72.9732	39.6985
 112	1	7	0.005306	0.979688	74.8428	38.4813
 113	1	7	0.164932	0.657012	75.9556	37.4296
 114	1	8	0.005277	2.06543	74.7894	38.6374
 115	1	8	0.017604	0.544647	75.0736	39.4627
 116	1	3	0.008363	0.334331	75.1488	36.1859
 117	1	7	-0.151488	1.87736	76.8841	37.2166
 118	1	7	-0.269275	-0.568056	76.7976	37.8599
 119	1	3	0.096378	0.197971	73.7983	36.4718
 120	1	8	0.063418	-1.45104	76.1649	38.0104
 121	1	8	0.061085	-0.818167	77.5421	37.0935
 122	1	8	0.065045	-0.368322	77.3312	38.7978
 123	1	3	-0.142025	0.243884	75.6095	34.8615
 124	1	3	-0.448546	-0.0122502	72.8608	35.4521
 125	1	3	0.277842	-0.0550732	73.2855	34.1094
 126	1	3	-0.409063	0.0617166	74.6678	33.8264
 127	1	6	0.203923	-0.0707432	71.8087	35.7004
 128	1	8	0.016419	2.74536	76.3159	36.8578
 129	1	8	0.049665	2.15934	77.3785	38.1549
 130	1	8	0.035794	1.65719	77.6648	36.4779
 131	1	6	0.161583	0.362396	76.6678	34.638
 132	1	6	0.199011	0.0508414	75.0069	32.7931
 133	1	1	0.463181	0.91392	65.5439	44.8497
 134	1	2	0.074399	-0.160785	66.2446	44.3002
 135	1	3	0.034296	0.23454	66.5243	42.8964
 136	1	2	0.051625	1.94618	65.3369	43.9343
 137	1	3	0.019035	1.48252	65.9748	42.6771
 138	1	5	-0.389616	-1.2061	66.5786	44.8338
 139	1	5	-0.380104	3.01219	64.7677	44.1034
 140	1	3	-0.045097	-0.441313	67.2325	41.8957
 141	1	3	-0.056032	2.12204	66.086	41.4393
 142	1	3	-0.174781	1.45468	66.7846	40.4121
 143	1	3	-0.129342	0.17107	67.3587	40.626
 144	1	6	0.168842	-1.41234	67.6798	42.1035
 145	1	6	0.15893	3.10951	65.6548	41.2892
 146	1	6	0.147704	1.9555	66.9009	39.4556
 147	1	2	0.584577	-0.52524	68.1731	39.562
 148	1	3	-0.046755	-0.240439	67.917	38.1035
 149	1	3	-0.110868	0.0354544	66.6127	37.6237
 150	1	3	-0.046132	0.316004	66.4532	36.2604
 151	1	3	-0.135873	-0.284629	69.0014	37.1894
 152	1	3	-0.117662	0.0116679	68.8194	35.8253
 153	1	3	-0.064457	0.325688	67.5287	35.3954
 154	1	2	0.492569	0.673399	67.0361	34.0419
 155	1	1	-0.072087	0.811827	65.6628	34.1684
 156	1	2	0.477555	0.62971	65.2296	35.4751
 157	1	3	0.042617	1.10497	64.8094	33.075
 158	1	3	-0.20367	0.245928	63.7524	32.7322
 159	1	3	-0.057018	0.560151	62.8995	31.6591
 160	1	3	-0.18182	2.25985	65.0273	32.3126
 161	1	3	-0.14326	2.55574	64.201	31.2196
 162	1	3	0.043342	1.73518	63.0949	30.8993
 163	1	6	0.163244	-0.650493	63.5694	33.3189
 164	1	6	0.101178	-0.105906	62.0691	31.4503
 165	1	6	0.165346	-0.00749712	69.6434	35.1187
 166	1	6	0.135111	-0.536552	69.995	37.5488
 167	1	6	0.171751	0.0332754	65.7462	38.2814
 168	1	5	-0.478239	0.678907	64.0889	35.9036
 169	1	5	-0.481107	0.810394	67.7187	33.0414
 170	1	5	-0.49957	-1.27375	69.0783	39.8934
 171	1	6	0.151248	2.94706	65.8211	32.5895
 172	1	6	0.146138	3.47204	64.3856	30.6637
 173	1	7	0.044043	2.21335	62.0803	29.8345
 174	1	7	-0.215975	1.5058	60.7004	29.923
 175	1	8	0.063789	0.443812	60.7776	29.6583
 176	1	8	0.072206	1.58276	60.2856	30.9363
 177	1	8	0.045489	1.96316	59.9755	29.2394
 178	1	7	0.005306	2.12512	62.6558	28.3849
 179	1	7	0.164932	3.48695	62.3835	27.6623
 180	1	8	0.005277	1.95115	63.7389	28.4412
 181	1	8	0.017604	1.27641	62.2384	27.8274
 182	1	3	0.008363	4.41494	62.0854	28.8259
 183	1	7	-0.151488	3.93984	63.6261	26.8592
 184	1	7	-0.269275	3.39629	61.1635	26.7149
 185	1	3	0.096378	3.70632	61.8731	30.0
 186	1	8	0.063418	4.36906	60.9599	26.2497
 187	1	8	0.061085	2.66836	61.3419	25.9133
 188	1	8	0.065045	3.09205	60.2595	27.255
 189	1	3	-0.142025	5.81987	62.1281	28.8394
 190	1	3	-0.448546	4.36531	61.7265	31.2271
 191	1	3	0.277842	5.76478	61.8507	31.2807
 192	1	3	-0.409063	6.48878	62.0277	30.0779
 193	1	6	0.203923	3.78497	61.6615	32.1441
 194	1	8	0.016419	4.89538	63.4461	26.3509
 195	1	8	0.049665	4.06757	64.4884	27.5227
 196	1	8	0.035794	3.19606	63.8909	26.0969
 197	1	6	0.161583	6.37412	62.3139	27.9218
 198	1	6	0.199011	7.56923	62.1484	30.1106
 199	1	1	0.463181	-7.2658	49.4352	46.57
 200	1	2	0.074399	-6.08655	49.3037	45.834
 201	1	3	0.034296	-5.06869	50.0753	46.5895
 202	1	2	0.051625	-7.09418	50.1949	47.7288
 203	1	3	0.019035	-5.66842	50.6097	47.713
 204	1	5	-0.389616	-5.90282	48.706	44.7856
 205	1	5	-0.380104	-7.92196	50.4978	48.5726
 206	1	3	-0.045097	-3.72074	50.3081	46.2957
 207	1	3	-0.056032	-4.954	51.409	48.6117
 208	1	3	-0.174781	-3.59555	51.6679	48.3308
 209	1	3	-0.129342	-2.97538	51.136	47.1667
 210	1	6	0.168842	-3.27058	49.8715	45.4055
 211	1	6	0.15893	-5.44215	51.815	49.4954
 212	1	6	0.147704	-3.02162	52.2738	49.0296
 213	1	2	0.584577	-1.52503	51.3978	46.8494
 214	1	3	-0.046755	-0.924767	52.7526	47.1398
 215	1	3	-0.110868	-1.72936	53.9183	47.1856
 216	1	3	-0.046132	-1.10654	55.1492	47.429
 217	1	3	-0.135873	0.479948	52.871	47.3103
 218	1	3	-0.117662	1.08588	54.1215	47.5507
 219	1	3	-0.064457	0.258246	55.2492	47.6063
 220	1	2	0.492569	0.591808	56.6805	47.8343
 221	1	1	-0.072087	-0.61851	57.363	47.786
 222	1	2	0.477555	-1.6894	56.5119	47.5409
 223	1	3	0.042617	-0.746934	58.7643	47.9988
 224	1	3	-0.20367	-1.70362	59.263	48.8993
 225	1	3	-0.057018	-1.80162	60.6425	49.1427
 226	1	3	-0.18182	0.0980577	59.6708	47.335
 227	1	3	-0.14326	-0.00118696	61.0516	47.5769
 228	1	3	0.043342	-0.949187	61.5597	48.4936
 229	1	6	0.163244	-2.37046	58.5818	49.4213
 230	1	6	0.101178	-2.53709	60.9973	49.8585
 231	1	6	0.165346	2.16248	54.2144	47.6839
 232	1	6	0.135111	1.10471	51.9811	47.2528
 233	1	6	0.171751	-2.80387	53.8842	47.0165
 234	1	5	-0.478239	-2.87425	56.7884	47.4647
 235	1	5	-0.481107	1.70524	57.132	48.0395
 236	1	5	-0.49957	-0.857516	50.5276	46.3152
 237	1	6	0.151248	0.853872	59.3045	46.6439
 238	1	6	0.146138	0.688449	61.7131	47.0609
 239	1	7	0.044043	-1.04932	63.0606	48.8358
 240	1	7	-0.215975	-2.48826	63.5891	48.5902
 241	1	8	0.063789	-3.20885	63.1341	49.2804
 242	1	8	0.072206	-2.81654	63.3676	47.5669
 243	1	8	0.045489	-2.53519	64.677	48.7299
 244	1	7	0.005306	-0.606025	63.3065	50.3143
 245	1	7	0.164932	0.898772	63.7158	50.3019
 246	1	8	0.005277	-0.790827	62.4414	50.9642
 247	1	8	0.017604	-1.19595	64.1358	50.7274
 248	1	3	0.008363	1.05475	64.2469	48.8906
 249	1	7	-0.151488	1.81945	62.4922	50.5273
 250	1	7	-0.269275	1.19347	64.793	51.3741
 251	1	3	0.096378	-0.0279305	63.9071	48.0881
 252	1	8	0.063418	0.958643	64.4181	52.3783
 253	1	8	0.061085	0.594663	65.696	51.1985
 254	1	8	0.065045	2.25125	65.0835	51.3615
 255	1	3	-0.142025	2.12267	64.9959	48.3749
 256	1	3	-0.448546	-0.0933489	64.3286	46.7492
 257	1	3	0.277842	0.959818	65.098	46.2064
 258	1	3	-0.409063	2.06665	65.4147	47.0314
 259	1	6	0.203923	-0.956842	64.0712	46.1417
 260	1	8	0.016419	1.63981	61.7115	49.7789
 261	1	8	0.049665	1.65208	62.0531	51.5189
 262	1	8	0.035794	2.8758	62.7812	50.4593
 263	1	6	0.161583	2.97557	65.2446	49.0028
 264	1	6	0.199011	2.89529	65.9875	46.6193
 265	1	1	0.463181	1.91202	43.6741	32.123
 266	1	2	0.074399	0.772864	42.8805	32.2623
 267	1	3	0.034296	-0.051111	43.5631	33.2912
 268	1	2	0.051625	1.9009	44.7886	32.9616
 269	1	3	0.019035	0.622544	44.694	33.711
 270	1	5	-0.389616	0.477719	41.8601	31.6606
 271	1	5	-0.380104	2.73665	45.6713	33.0679
 272	1	3	-0.045097	-1.30329	43.2182	33.8126
 273	1	3	-0.056032	0.0939099	45.535	34.695
 274	1	3	-0.174781	-1.16523	45.2057	35.2387
 275	1	3	-0.129342	-1.88442	44.0637	34.7872
 276	1	6	0.168842	-1.81201	42.3203	33.4641
 277	1	6	0.15893	0.649044	46.409	35.0295
 278	1	6	0.147704	-1.57114	45.8362	36.0276
 279	1	2	0.584577	-3.23167	43.6935	35.3596
 280	1	3	-0.046755	-4.12347	44.7649	35.9374
 281	1	3	-0.110868	-4.95962	44.4504	37.0346
 282	1	3	-0.046132	-5.76529	45.4637	37.5718
 283	1	3	-0.135873	-4.16288	46.0727	35.3816
 284	1	3	-0.117662	-4.98488	47.0753	35.9355
 285	1	3	-0.064457	-5.77171	46.7386	37.0434
 286	1	2	0.492569	-6.70335	47.5704	37.8498
 287	1	1	-0.072087	-7.2025	46.7307	38.8393
 288	1	2	0.477555	-6.69519	45.4397	38.7321
 289	1	3	0.042617	-8.09769	47.1552	39.8633
 290	1	3	-0.20367	-9.21323	47.955	39.5588
 291	1	3	-0.057018	-10.0773	48.3953	40.5757
 292	1	3	-0.18182	-7.87503	46.7893	41.2021
 293	1	3	-0.14326	-8.74322	47.222	42.2173
 294	1	3	0.043342	-9.84549	48.0555	41.9257
 295	1	6	0.163244	-9.40958	48.2491	38.531
 296	1	6	0.101178	-10.9314	49.0045	40.3002
 297	1	6	0.165346	-5.01101	48.0822	35.522
 298	1	6	0.135111	-3.55808	46.3135	34.5103
 299	1	6	0.171751	-4.969	43.4509	37.4683
 300	1	5	-0.478239	-6.93151	44.4731	39.4361
 301	1	5	-0.481107	-6.94289	48.7521	37.6674
 302	1	5	-0.49957	-3.58913	42.5272	35.3699
 303	1	6	0.151248	-7.02568	46.1627	41.4642
 304	1	6	0.146138	-8.54145	46.902	43.2357
 305	1	7	0.044043	-10.8023	48.5369	43.0377
 306	1	7	-0.215975	-11.2911	49.9943	42.808
 307	1	8	0.063789	-11.9549	50.0736	41.939
 308	1	8	0.072206	-10.4393	50.6685	42.6515
 309	1	8	0.045489	-11.8493	50.3636	43.6774
 310	1	7	0.005306	-12.0117	47.5574	43.1688
 311	1	7	0.164932	-12.2458	47.2507	44.6826
 312	1	8	0.005277	-11.7728	46.6231	42.6427
 313	1	8	0.017604	-12.9148	47.955	42.6873
 314	1	3	0.008363	-10.9675	47.7568	45.3221
 315	1	7	-0.151488	-12.447	45.7342	44.9182
 316	1	7	-0.269275	-13.4676	48.0297	45.2265
 317	1	3	0.096378	-10.1834	48.4684	44.425
 318	1	8	0.063418	-13.343	49.1101	45.0843
 319	1	8	0.061085	-13.6015	47.8476	46.3002
 320	1	8	0.065045	-14.3883	47.7234	44.7139
 321	1	3	-0.142025	-10.5578	47.5913	46.6543
 322	1	3	-0.448546	-8.96995	49.0471	44.8292
 323	1	3	0.277842	-8.51783	48.8797	46.1569
 324	1	3	-0.409063	-9.32873	48.1494	47.0602
 325	1	6	0.203923	-8.37096	49.5964	44.1068
 326	1	8	0.016419	-13.3194	45.3651	44.3641
 327	1	8	0.049665	-12.6061	45.5173	45.9817
 328	1	8	0.035794	-11.5681	45.1663	44.5866
 329	1	6	0.161583	-11.1817	47.0445	47.3581
 330	1	6	0.199011	-9.00692	48.0304	48.0931
 331	1	1	0.463181	-6.42681	28.6916	24.3311
 332	1	2	0.074399	-5.64424	29.428	23.4396
 333	1	3	0.034296	-4.87193	30.3705	24.2869
 334	1	2	0.051625	-6.23564	29.0781	25.6592
 335	1	3	0.019035	-5.22146	30.1606	25.6062
 336	1	5	-0.389616	-5.57652	29.3341	22.2245
 337	1	5	-0.380104	-6.74852	28.6231	26.6689
 338	1	3	-0.045097	-3.92606	31.335	23.9229
 339	1	3	-0.056032	-4.64897	30.9068	26.6411
 340	1	3	-0.174781	-3.68904	31.8825	26.2996
 341	1	3	-0.129342	-3.30755	32.0927	24.9453
 342	1	6	0.168842	-3.6757	31.4861	22.8736
 343	1	6	0.15893	-4.94711	30.7361	27.6735
 344	1	6	0.147704	-3.2576	32.489	27.0933
 345	1	2	0.584577	-2.29958	33.1457	24.5563
 346	1	3	-0.046755	-1.21715	33.551	25.525
 347	1	3	-0.110868	-0.74328	34.8837	25.5083
 348	1	3	-0.046132	0.266473	35.2444	26.41
 349	1	3	-0.135873	-0.632404	32.612	26.4175
 350	1	3	-0.117662	0.388951	32.9957	27.3112
 351	1	3	-0.064457	0.81404	34.3298	27.2864
 352	1	2	0.492569	1.84812	35.0265	28.0967
 353	1	1	-0.072087	1.85012	36.3452	27.6556
 354	1	2	0.477555	0.929871	36.5557	26.6346
 355	1	3	0.042617	2.67631	37.367	28.2041
 356	1	3	-0.20367	4.04386	37.1405	28.4382
 357	1	3	-0.057018	4.84709	38.1478	28.9985
 358	1	3	-0.18182	2.13179	38.6202	28.534
 359	1	3	-0.14326	2.93558	39.6291	29.0886
 360	1	3	0.043342	4.30894	39.4076	29.335
 361	1	6	0.163244	4.48718	36.1772	28.1991
 362	1	6	0.101178	5.89897	37.943	29.1749
 363	1	6	0.165346	0.841721	32.2821	27.9977
 364	1	6	0.135111	-0.958401	31.5742	26.4078
 365	1	6	0.171751	-1.15479	35.6196	24.8181
 366	1	5	-0.478239	0.688636	37.5893	26.0352
 367	1	5	-0.481107	2.53635	34.5174	28.965
 368	1	5	-0.49957	-2.36805	33.6739	23.4587
 369	1	6	0.151248	1.07701	38.8204	28.3604
 370	1	6	0.146138	2.46696	40.58	29.3227
 371	1	7	0.044043	5.22242	40.48	29.9638
 372	1	7	-0.215975	5.82369	39.9611	31.2974
 373	1	8	0.063789	6.49821	39.1124	31.1308
 374	1	8	0.072206	5.03083	39.631	31.9804
 375	1	8	0.045489	6.39661	40.7494	31.8029
 376	1	7	0.005306	6.35468	40.902	28.9711
 377	1	7	0.164932	5.90826	42.2166	28.262
 378	1	8	0.005277	6.60533	40.1134	28.2501
 379	1	8	0.017604	7.2719	41.1015	29.5414
 380	1	3	0.008363	4.89671	42.767	29.2469
 381	1	7	-0.151488	5.22248	41.9124	26.9082
 382	1	7	-0.269275	7.10562	43.1723	28.0409
 383	1	3	0.096378	4.51622	41.8116	30.1809
 384	1	8	0.063418	6.78609	44.0963	27.5432
 385	1	8	0.061085	7.8711	42.6991	27.4129
 386	1	8	0.065045	7.57009	43.4478	28.9964
 387	1	3	-0.142025	4.33589	44.053	29.2657
 388	1	3	-0.448546	3.55518	42.107	31.1618
 389	1	3	0.277842	2.95464	43.3849	31.1907
 390	1	3	-0.409063	3.36597	44.3529	30.2426
 391	1	6	0.203923	3.24198	41.3356	31.8604
 392	1	8	0.016419	4.85594	42.8347	26.4397
 393	1	8	0.049665	4.36464	41.241	27.0392
 394	1	8	0.035794	5.92255	41.4339	26.2118
 395	1	6	0.161583	4.63627	44.7959	28.5298
 396	1	6	0.199011	2.92119	45.3459	30.2626
 397	1	1	0.463181	2.36611	12.028	26.4491
 398	1	2	0.074399	1.96429	13.2205	25.8383
 399	1	3	0.034296	1.28231	13.9976	26.9025
 400	1	2	0.051625	2.00088	11.9742	27.7976
 401	1	3	0.019035	1.31305	13.2612	28.07
 402	1	5	-0.389616	2.14495	13.5952	24.6905
 403	1	5	-0.380104	2.17822	11.0759	28.6041
 404	1	3	-0.045097	0.6942	15.2666	26.8472
 405	1	3	-0.056032	0.776605	13.7593	29.2621
 406	1	3	-0.174781	0.188015	15.0407	29.2343
 407	1	3	-0.129342	0.122361	15.7911	28.0311
 408	1	6	0.168842	0.701062	15.8275	25.9144
 409	1	6	0.15893	0.825554	13.1741	30.1781
 410	1	6	0.147704	-0.226642	15.4585	30.151
 411	1	2	0.584577	-0.512177	17.1573	28.0383
 412	1	3	-0.046755	-1.42359	17.5624	26.9049
 413	1	3	-0.110868	-1.67949	18.9371	26.6824
 414	1	3	-0.046132	-2.58211	19.2958	25.6718
 415	1	3	-0.135873	-2.09431	16.5914	26.1114
 416	1	3	-0.117662	-3.00293	16.9757	25.1043
 417	1	3	-0.064457	-3.22794	18.3436	24.9111
 418	1	2	0.492569	-4.16343	19.0407	23.9906
 419	1	1	-0.072087	-4.02261	20.3985	24.259
 420	1	2	0.477555	-3.07331	20.6352	25.2495
 421	1	3	0.042617	-4.80441	21.4156	23.6345
 422	1	3	-0.20367	-5.08954	21.3651	22.2578
 423	1	3	-0.057018	-5.91078	22.3357	21.66
 424	1	3	-0.18182	-5.34812	22.4662	24.395
 425	1	3	-0.14326	-6.15682	23.4451	23.7949
 426	1	3	0.043342	-6.45479	23.3956	22.4146
 427	1	6	0.163244	-4.69652	20.5565	21.6468
 428	1	6	0.101178	-6.13608	22.2472	20.602
 429	1	6	0.165346	-3.53962	16.2378	24.5101
 430	1	6	0.135111	-1.94831	15.5304	26.299
 431	1	6	0.171751	-1.20709	19.7049	27.2948
 432	1	5	-0.478239	-2.70744	21.7039	25.7079
 433	1	5	-0.481107	-4.9193	18.4976	23.2029
 434	1	5	-0.49957	-0.326071	17.9097	28.9802
 435	1	6	0.151248	-5.15298	22.5258	25.4631
 436	1	6	0.146138	-6.56393	24.2285	24.4274
 437	1	7	0.044043	-7.38076	24.4289	21.7382
 438	1	7	-0.215975	-6.772	24.9589	20.4105
 439	1	8	0.063789	-6.74092	24.182	19.6376
 440	1	8	0.072206	-5.74915	25.3244	20.5671
 441	1	8	0.045489	-7.36725	25.7922	20.0145
 442	1	7	0.005306	-8.79764	23.8164	21.4945
 443	1	7	0.164932	-9.74199	24.3012	22.6393
 444	1	8	0.005277	-8.76922	22.7212	21.4211
 445	1	8	0.017604	-9.18536	24.1805	20.5336
 446	1	3	0.008363	-9.00296	25.5181	23.1612
 447	1	7	-0.151488	-9.87332	23.2286	23.7475
 448	1	7	-0.269275	-11.146	24.6612	22.0953
 449	1	3	0.096378	-7.71163	25.5943	22.6568
 450	1	8	0.063418	-11.0833	25.464	21.3493
 451	1	8	0.061085	-11.806	25.0034	22.9021
 452	1	8	0.065045	-11.6163	23.7906	21.6209
 453	1	3	-0.142025	-9.47647	26.4843	24.0616
 454	1	3	-0.448546	-6.85023	26.6372	23.0314
 455	1	3	0.277842	-7.2987	27.6304	23.9299
 456	1	3	-0.409063	-8.61805	27.5367	24.4382
 457	1	6	0.203923	-5.84268	26.6753	22.6254
 458	1	8	0.016419	-8.89284	22.9443	24.1471
 459	1	8	0.049665	-10.3543	22.3218	23.3594
 460	1	8	0.035794	-10.4793	23.6017	24.5828
 461	1	6	0.161583	-10.484	26.4135	24.466
 462	1	6	0.199011	-8.97281	28.2811	25.1486
 463	1	1	0.463181	5.57438	18.218	9.11791
 464	1	2	0.074399	5.62914	17.2551	10.1291
 465	1	3	0.034296	6.00337	17.9957	11.3563
 466	1	2	0.051625	5.89095	19.4976	9.5838
 467	1	3	0.019035	6.15716	19.3296	11.0371
 468	1	5	-0.389616	5.36778	16.0641	10.0719
 469	1	5	-0.380104	5.92965	20.5475	8.96312
 470	1	3	-0.045097	6.16553	17.5236	12.6623
 471	1	3	-0.056032	6.49461	20.2739	12.0133
 472	1	3	-0.174781	6.65355	19.8229	13.342
 473	1	3	-0.129342	6.4677	18.4562	13.6837
 474	1	6	0.168842	6.05235	16.4605	12.8644
 475	1	6	0.15893	6.61928	21.322	11.7493
 476	1	6	0.147704	6.91195	20.5401	14.1204
 477	1	2	0.584577	6.62555	18.0091	15.1184
 478	1	3	-0.046755	5.8034	16.8517	15.6383
 479	1	3	-0.110868	6.292	16.0833	16.7236
 480	1	3	-0.046132	5.51034	15.0191	17.1978
 481	1	3	-0.135873	4.52385	16.5511	15.0948
 482	1	3	-0.117662	3.75829	15.4735	15.5826
 483	1	3	-0.064457	4.28573	14.7197	16.6366
 484	1	2	0.492569	3.7037	13.5688	17.3737
 485	1	1	-0.072087	4.62579	13.2436	18.3618
 486	1	2	0.477555	5.74737	14.0662	18.3179
 487	1	3	0.042617	4.40465	12.2262	19.3353
 488	1	3	-0.20367	3.91512	10.9647	18.9537
 489	1	3	-0.057018	3.60432	9.99569	19.9219
 490	1	3	-0.18182	4.61352	12.4836	20.7017
 491	1	3	-0.14326	4.30535	11.5128	21.6709
 492	1	3	0.043342	3.76941	10.2596	21.2974
 493	1	6	0.163244	3.74063	10.7414	17.9045
 494	1	6	0.101178	3.20964	9.03795	19.5965
 495	1	6	0.165346	2.77768	15.2398	15.1707
 496	1	6	0.135111	4.10372	17.1663	14.3029
 497	1	6	0.171751	7.25135	16.3107	17.1877
 498	1	5	-0.478239	6.72363	14.0492	19.047
 499	1	5	-0.481107	2.62234	13.0527	17.1479
 500	1	5	-0.49957	7.41289	18.5831	15.8524
 501	1	6	0.151248	4.99823	13.4494	21.0209
 502	1	6	0.146138	4.47026	11.7626	22.7145
 503	1	7	0.044043	3.33774	9.19687	22.3308
 504	1	7	-0.215975	1.85852	8.78128	22.1016
 505	1	8	0.063789	1.20392	9.66188	22.0848
 506	1	8	0.072206	1.50972	8.11926	22.905
 507	1	8	0.045489	1.72911	8.24732	21.1525
 508	1	7	0.005306	4.27474	7.94658	22.2729
 509	1	7	0.164932	5.23689	7.99148	23.5011
 510	1	8	0.005277	4.82901	7.88982	21.3268
 511	1	8	0.017604	3.66577	7.03406	22.3236
 512	1	3	0.008363	4.56222	9.00213	24.4067
 513	1	7	-0.151488	6.63998	8.49403	23.0871
 514	1	7	-0.269275	5.35088	6.60025	24.1712
 515	1	3	0.096378	3.5183	9.65695	23.7697
 516	1	8	0.063418	6.02066	6.63233	25.0393
 517	1	8	0.061085	5.74687	5.85833	23.4661
 518	1	8	0.065045	4.36931	6.25107	24.5172
 519	1	3	-0.142025	4.90063	9.31764	25.7308
 520	1	3	-0.448546	2.76533	10.6363	24.4389
 521	1	3	0.277842	3.08788	10.9905	25.7694
 522	1	3	-0.409063	4.16362	10.3152	26.3993
 523	1	6	0.203923	1.96234	11.1434	23.9104
 524	1	8	0.016419	7.1127	7.80006	22.3804
 525	1	8	0.049665	7.29642	8.58525	23.9616
 526	1	8	0.035794	6.57937	9.47903	22.6067
 527	1	6	0.161583	5.7225	8.80483	26.2263
 528	1	6	0.199011	4.42749	10.5633	27.4258
 529	1	1	0.463181	13.2027	21.9524	-4.48762
 530	1	2	0.074399	12.066	22.5311	-5.06032
 531	1	3	0.034296	11.4812	23.3825	-3.99705
 532	1	2	0.051625	13.396	22.3573	-3.16341
 533	1	3	0.019035	12.2629	23.2699	-2.86442
 534	1	5	-0.389616	11.5883	22.3511	-6.16922
 535	1	5	-0.380104	14.288	22.0481	-2.39008
 536	1	3	-0.045097	10.3279	24.1736	-4.0202
 537	1	3	-0.056032	11.9318	23.937	-1.67961
 538	1	3	-0.174781	10.76	24.7236	-1.67011
 539	1	3	-0.129342	9.94974	24.8381	-2.83238
 540	1	6	0.168842	9.72912	24.2468	-4.92699
 541	1	6	0.15893	12.5598	23.8364	-0.796699
 542	1	6	0.147704	10.4835	25.2508	-0.758334
 543	1	2	0.584577	8.68392	25.6518	-2.82905
 544	1	3	-0.046755	7.68475	25.4405	-1.71723
 545	1	3	-0.110868	7.71333	24.2603	-0.935145
 546	1	3	-0.046132	6.71849	24.0758	0.0304026
 547	1	3	-0.135873	6.64793	26.3879	-1.50486
 548	1	3	-0.117662	5.6519	26.1779	-0.526564
 549	1	3	-0.064457	5.71357	24.9998	0.229071
 550	1	2	0.492569	4.78791	24.4577	1.26257
 551	1	1	-0.072087	5.30607	23.2163	1.61647
 552	1	2	0.477555	6.47536	22.9204	0.927995
 553	1	3	0.042617	4.67957	22.3034	2.5091
 554	1	3	-0.20367	5.42885	21.6484	3.50185
 555	1	3	-0.057018	4.83945	20.6605	4.30769
 556	1	3	-0.18182	3.31958	21.9828	2.36036
 557	1	3	-0.14326	2.72999	20.995	3.166
 558	1	3	0.043342	3.48498	20.2992	4.1335
 559	1	6	0.163244	6.48488	21.8738	3.62671
 560	1	6	0.101178	5.46403	20.1566	5.03856
 561	1	6	0.165346	4.84404	26.8923	-0.37687
 562	1	6	0.135111	6.60598	27.2841	-2.12187
 563	1	6	0.171751	8.45272	23.4779	-1.09295
 564	1	5	-0.478239	7.15673	21.911	0.986874
 565	1	5	-0.481107	3.76155	24.9849	1.65523
 566	1	5	-0.49957	8.4251	26.3761	-3.77546
 567	1	6	0.151248	2.72199	22.4811	1.60071
 568	1	6	0.146138	1.68413	20.7457	3.01196
 569	1	7	0.044043	2.83355	19.1387	4.91183
 570	1	7	-0.215975	1.61243	19.6424	5.72579
 571	1	8	0.063789	0.809638	19.9958	5.06729
 572	1	8	0.072206	1.89866	20.4744	6.38155
 573	1	8	0.045489	1.20197	18.842	6.35484
 574	1	7	0.005306	2.42052	17.9989	3.92396
 575	1	7	0.164932	3.59595	16.9769	3.85779
 576	1	8	0.005277	2.14162	18.3678	2.92889
 577	1	8	0.017604	1.53304	17.491	4.32519
 578	1	3	0.008363	4.26734	17.2161	5.1963
 579	1	7	-0.151488	4.56353	17.2946	2.69172
 580	1	7	-0.269275	3.06605	15.5294	3.71061
 581	1	3	0.096378	3.82209	18.388	5.79712
 582	1	8	0.063418	3.89279	14.8096	3.66544
 583	1	8	0.061085	2.47585	15.4214	2.79181
 584	1	8	0.065045	2.42764	15.2553	4.5603
 585	1	3	-0.142025	5.20059	16.3911	5.83941
 586	1	3	-0.448546	4.2612	18.7496	7.08315
 587	1	3	0.277842	5.17659	17.9204	7.77307
 588	1	3	-0.409063	5.65177	16.7541	7.12294
 589	1	6	0.203923	3.88802	19.6607	7.54338
 590	1	8	0.016419	5.41796	16.606	2.69606
 591	1	8	0.049665	4.95935	18.3143	2.76192
 592	1	8	0.035794	4.05558	17.1965	1.72399
 593	1	6	0.161583	5.54754	15.4763	5.36343
 594	1	6	0.199011	6.34975	16.0969	7.6382
 595	1	1	0.463181	7.6994	13.8909	-20.1077
 596	1	2	0.074399	8.39634	14.5876	-19.1202
 597	1	3	0.034296	7.56754	15.7822	-18.8289
 598	1	2	0.051625	6.51174	14.5265	-20.476
 599	1	3	0.019035	6.45042	15.7538	-19.6396
 600	1	5	-0.389616	9.44689	14.2938	-18.573
 601	1	5	-0.380104	5.68082	14.1698	-21.2946
 602	1	3	-0.045097	7.78584	16.8135	-17.911
 603	1	3	-0.056032	5.49333	16.7744	-19.5947
 604	1	3	-0.174781	5.69516	17.8306	-18.6792
 605	1	3	-0.129342	6.82425	17.849	-17.8179
 606	1	6	0.168842	8.68702	16.8035	-17.3013
 607	1	6	0.15893	4.62564	16.7471	-20.2505
 608	1	6	0.147704	4.96781	18.6402	-18.6284
 609	1	2	0.584577	7.01815	18.9817	-16.8398
 610	1	3	-0.046755	7.77289	18.7072	-15.5652
 611	1	3	-0.110868	8.68419	19.6679	-15.0672
 612	1	3	-0.046132	9.4141	19.3539	-13.9114
 613	1	3	-0.135873	7.58499	17.4859	-14.864
 614	1	3	-0.117662	8.31936	17.1978	-13.6967
 615	1	3	-0.064457	9.23726	18.1551	-13.2496
 616	1	2	0.492569	10.1875	18.1081	-12.1086
 617	1	1	-0.072087	10.9127	19.2919	-12.1706
 618	1	2	0.477555	10.4928	20.1079	-13.2164
 619	1	3	0.042617	12.009	19.5855	-11.3101
 620	1	3	-0.20367	11.9091	19.3759	-9.92377
 621	1	3	-0.057018	13.0112	19.6046	-9.0836
 622	1	3	-0.18182	13.232	20.0321	-11.84
 623	1	3	-0.14326	14.3342	20.2627	-10.9998
 624	1	3	0.043342	14.243	20.0595	-9.6067
 625	1	6	0.163244	10.9799	19.0133	-9.49131
 626	1	6	0.101178	12.8918	19.409	-8.02242
 627	1	6	0.165346	8.19565	16.2565	-13.1636
 628	1	6	0.135111	6.86626	16.7542	-15.227
 629	1	6	0.171751	8.84385	20.614	-15.5837
 630	1	5	-0.478239	10.9441	21.1868	-13.5599
 631	1	5	-0.481107	10.3219	17.1783	-11.3316
 632	1	5	-0.49957	6.61086	20.1033	-17.0922
 633	1	6	0.151248	13.3352	20.1952	-12.9099
 634	1	6	0.146138	15.268	20.5905	-11.4448
 635	1	7	0.044043	15.4781	20.2915	-8.70991
 636	1	7	-0.215975	16.1885	21.6325	-9.04447
 637	1	8	0.063789	15.4757	22.4667	-9.02895
 638	1	8	0.072206	16.6626	21.6089	-10.0325
 639	1	8	0.045489	16.9746	21.8494	-8.30939
 640	1	7	0.005306	16.4732	19.0917	-8.8298
 641	1	7	0.164932	16.3795	18.2325	-7.52809
 642	1	8	0.005277	17.4964	19.4735	-8.94467
 643	1	8	0.017604	16.2724	18.4879	-9.72488
 644	1	3	0.008363	15.6123	19.1397	-6.58738
 645	1	7	-0.151488	17.7875	17.8974	-6.97937
 646	1	7	-0.269275	15.5894	16.9256	-7.77917
 647	1	3	0.096378	15.1302	20.2691	-7.23154
 648	1	8	0.063418	14.5843	17.1401	-8.16416
 649	1	8	0.061085	15.4782	16.351	-6.85093
 650	1	8	0.065045	16.1043	16.2893	-8.50997
 651	1	3	-0.142025	15.3356	18.9209	-5.22963
 652	1	3	-0.448546	14.3632	21.2213	-6.54391
 653	1	3	0.277842	14.0488	21.0247	-5.18048
 654	1	3	-0.409063	14.5506	19.8649	-4.53742
 655	1	6	0.203923	13.9742	22.0811	-7.08348
 656	1	8	0.016419	17.7229	17.309	-6.05552
 657	1	8	0.049665	18.3479	18.8142	-6.75532
 658	1	8	0.035794	18.3637	17.3164	-7.7107
 659	1	6	0.161583	15.7078	18.0292	-4.72916