pySIMM System Object

2642 atoms
2921 bonds
5160 angles
8276 dihedrals
840 impropers

8 atom types
10 bond types
17 angle types
9 dihedral types
4 improper types

-207.617065 207.617065 xlo xhi
-207.617065 207.617065 ylo yhi
-207.617065 207.617065 zlo zhi

Masses

   1	14.01	# n
   2	12.01	# c
   3	12.01	# ca
   4	1.008	# hn
   5	16.0	# o
   6	1.008	# ha
   7	12.01	# c3
   8	1.008	# hc

Pair Coeffs

   1	0.17	3.249998523775958	# n
   2	0.086	3.3996695084235347	# c
   3	0.086	3.3996695084235347	# ca
   4	0.0157	1.069078461768407	# hn
   5	0.21	2.959921901149463	# o
   6	0.015	2.59964245953351	# ha
   7	0.1094	3.3996695084235347	# c3
   8	0.0157	2.649532787749369	# hc

Bond Coeffs

   1	461.1	1.3984	# ca,ca
   2	427.6	1.3789	# c,n
   3	345.9	1.4906	# c,ca
   4	300.9	1.5375	# c3,c3
   5	345.8	1.086	# ca,ha
   6	384.2	1.4121	# ca,n
   7	637.7	1.2183	# c,o
   8	321.0	1.5156	# c3,ca
   9	330.6	1.0969	# c3,hc
  10	403.2	1.0129	# hn,n

Angle Coeffs

   1	68.72	122.6	# ca,c,o
   2	62.86	111.51	# c3,c3,c3
   3	63.82	123.71	# c,n,ca
   4	67.87	120.19	# ca,ca,n
   5	67.68	115.25	# ca,c,n
   6	63.0	118.11	# ca,c,ca
   7	63.56	112.24	# ca,c3,ca
   8	63.15	112.07	# c3,c3,ca
   9	46.34	109.8	# c3,c3,hc
  10	74.22	123.05	# n,c,o
  11	48.33	117.55	# c,n,hn
  12	64.28	120.33	# c,ca,ca
  13	39.4	107.58	# hc,c3,hc
  14	66.62	120.02	# ca,ca,ca
  15	63.53	120.77	# c3,ca,ca
  16	63.74	127.08	# c,n,c
  17	48.18	119.88	# ca,ca,ha

Dihedral Coeffs

   1	1	2.5	2	180	# X,c,n,X
   2	1	0.45	2	180	# X,ca,n,X
   3	3	0.18	3	0	0.25	2	180	0.2	1	180	# c3,c3,c3,c3
   4	2	2.5	2	180	2.0	1	0	# hn,n,c,o
   5	1	3.625	2	180	# X,ca,ca,X
   6	1	0.16	3	0	# hc,c3,c3,c3
   7	1	1.0	2	180	# X,c,ca,X
   8	1	0.15555555555555556	3	0	# X,c3,c3,X
   9	1	0.0	2	0	# X,c3,ca,X

Improper Coeffs

   1	10.5	-1	2	# c,X,X,o
   2	1.1	-1	2	# ca,X,X,ha
   3	1.1	-1	2	# ca,ca,ca,c3
   4	1.1	-1	2	# n,X,X,hn

Atoms

   1	1	1	0.463181	13.5577	73.1449	-39.5139
   2	1	2	0.074399	13.2645	72.4081	-40.6597
   3	1	3	0.034296	13.2293	70.995	-40.2092
   4	1	2	0.051625	13.6928	72.3536	-38.3757
   5	1	3	0.019035	13.4756	70.9623	-38.8495
   6	1	5	-0.389616	13.1668	72.8014	-41.8109
   7	1	5	-0.380104	14.0199	72.6958	-37.2515
   8	1	3	-0.045097	13.0683	69.8239	-40.9584
   9	1	3	-0.056032	13.5428	69.7528	-38.1511
  10	1	3	-0.174781	13.3819	68.5594	-38.8852
  11	1	3	-0.129342	13.1836	68.5802	-40.2919
  12	1	6	0.168842	12.8891	69.8907	-42.0287
  13	1	6	0.15893	13.7431	69.7405	-37.0825
  14	1	6	0.147704	13.4602	67.6036	-38.3699
  15	1	2	0.584577	13.1075	67.2731	-41.0414
  16	1	3	-0.046755	13.7007	67.1338	-42.4298
  17	1	3	-0.110868	14.6878	68.0229	-42.9315
  18	1	3	-0.046132	15.2345	67.7775	-44.2007
  19	1	3	-0.135873	13.3063	66.0271	-43.2274
  20	1	3	-0.117662	13.8657	65.7991	-44.5
  21	1	3	-0.064457	14.8327	66.6988	-44.9594
  22	1	2	0.492569	15.5967	66.7114	-46.2318
  23	1	1	-0.072087	16.4321	67.8242	-46.1699
  24	1	2	0.477555	16.2852	68.5097	-44.9648
  25	1	3	0.042617	17.3365	68.1982	-47.2127
  26	1	3	-0.20367	17.537	69.5499	-47.5518
  27	1	3	-0.057018	18.3775	69.9088	-48.6209
  28	1	3	-0.18182	18.0236	67.2171	-47.9518
  29	1	3	-0.14326	18.8603	67.5735	-49.0201
  30	1	3	0.043342	19.0356	68.9228	-49.388
  31	1	6	0.163244	17.0222	70.3336	-47.0014
  32	1	6	0.101178	18.4871	70.9624	-48.8554
  33	1	6	0.165346	13.5667	64.9468	-45.1073
  34	1	6	0.135111	12.5612	65.3307	-42.8472
  35	1	6	0.171751	15.0636	68.8577	-42.3456
  36	1	5	-0.478239	16.8788	69.5074	-44.5868
  37	1	5	-0.481107	15.4779	65.8985	-47.1335
  38	1	5	-0.49957	12.5879	66.3074	-40.5035
  39	1	6	0.151248	17.8909	66.1639	-47.7219
  40	1	6	0.146138	19.3532	66.7872	-49.5866
  41	1	7	0.044043	19.9111	69.2588	-50.6133
  42	1	7	-0.215975	19.7807	70.7277	-51.1012
  43	1	8	0.063789	18.7357	70.9738	-51.3302
  44	1	8	0.072206	20.3636	70.8862	-52.018
  45	1	8	0.045489	20.147	71.4376	-50.3499
  46	1	7	0.005306	21.41	68.9152	-50.3361
  47	1	7	0.164932	21.9433	68.0008	-51.4833
  48	1	8	0.005277	21.4902	68.3859	-49.3802
  49	1	8	0.017604	22.0225	69.8201	-50.2349
  50	1	3	0.008363	20.6808	67.6397	-52.2403
  51	1	7	-0.151488	22.6459	66.7482	-50.9059
  52	1	7	-0.269275	22.9231	68.7756	-52.3964
  53	1	3	0.096378	19.5724	68.3341	-51.7705
  54	1	8	0.063418	22.4432	69.665	-52.8237
  55	1	8	0.061085	23.2656	68.1465	-53.2275
  56	1	8	0.065045	23.807	69.1031	-51.8338
  57	1	3	-0.142025	20.5586	66.7278	-53.3019
  58	1	3	-0.448546	18.3029	68.1373	-52.3388
  59	1	3	0.277842	18.1625	67.2276	-53.3985
  60	1	3	-0.409063	19.2866	66.5278	-53.8753
  61	1	6	0.203923	17.4376	68.672	-51.9616
  62	1	8	0.016419	21.9606	66.168	-50.2746
  63	1	8	0.049665	23.5108	67.0366	-50.2949
  64	1	8	0.035794	23.0045	66.0911	-51.7078
  65	1	6	0.161583	21.4286	66.1889	-53.6716
  66	1	6	0.199011	19.1617	65.8269	-54.6953
  67	1	1	0.463181	19.3629	64.3672	-45.3268
  68	1	2	0.074399	19.2805	65.7462	-45.1526
  69	1	3	0.034296	20.4681	66.2959	-45.8489
  70	1	2	0.051625	20.4765	63.9733	-46.0615
  71	1	3	0.019035	21.1893	65.2402	-46.3735
  72	1	5	-0.389616	18.4598	66.3779	-44.5069
  73	1	5	-0.380104	20.8311	62.8444	-46.3562
  74	1	3	-0.045097	20.877	67.6259	-46.0031
  75	1	3	-0.056032	22.3922	65.4522	-47.0509
  76	1	3	-0.174781	22.843	66.7808	-47.1893
  77	1	3	-0.129342	22.0976	67.8798	-46.6784
  78	1	6	0.168842	20.2385	68.4181	-45.6204
  79	1	6	0.15893	22.9576	64.6133	-47.4512
  80	1	6	0.147704	23.7773	66.9625	-47.7188
  81	1	2	0.584577	22.5975	69.2848	-46.9374
  82	1	3	-0.046755	21.7923	70.4756	-46.4904
  83	1	3	-0.110868	21.4501	70.6868	-45.1309
  84	1	3	-0.046132	20.7304	71.8477	-44.8038
  85	1	3	-0.135873	21.4357	71.4425	-47.4632
  86	1	3	-0.117662	20.6995	72.5896	-47.1183
  87	1	3	-0.064457	20.357	72.7591	-45.7737
  88	1	2	0.492569	19.6248	73.8689	-45.1185
  89	1	1	-0.072087	19.6161	73.5662	-43.7648
  90	1	2	0.477555	20.2605	72.3662	-43.4862
  91	1	3	0.042617	18.9833	74.3911	-42.7977
  92	1	3	-0.20367	19.6915	74.9098	-41.6996
  93	1	3	-0.057018	19.0473	75.7454	-40.7671
  94	1	3	-0.18182	17.634	74.7372	-42.9646
  95	1	3	-0.14326	16.9928	75.5682	-42.0361
  96	1	3	0.043342	17.6774	76.0636	-40.9049
  97	1	6	0.163244	20.742	74.6673	-41.566
  98	1	6	0.101178	19.621	76.1222	-39.9262
  99	1	6	0.165346	20.4219	73.3334	-47.8634
 100	1	6	0.135111	21.7413	71.3011	-48.4962
 101	1	6	0.171751	21.7507	69.9895	-44.3509
 102	1	5	-0.478239	20.4527	71.8506	-42.3969
 103	1	5	-0.481107	19.1462	74.8397	-45.6787
 104	1	5	-0.49957	23.5746	69.4651	-47.6463
 105	1	6	0.151248	17.0768	74.3671	-43.8224
 106	1	6	0.146138	15.9451	75.8116	-42.1956
 107	1	7	0.044043	16.9009	76.8938	-39.8581
 108	1	7	-0.215975	17.5917	76.9582	-38.4684
 109	1	8	0.063789	17.8038	75.9535	-38.083
 110	1	8	0.072206	16.9506	77.4602	-37.7334
 111	1	8	0.045489	18.5361	77.5149	-38.5141
 112	1	7	0.005306	16.5981	78.3335	-40.3856
 113	1	7	0.164932	15.079	78.6358	-40.1656
 114	1	8	0.005277	16.8287	78.3797	-41.4584
 115	1	8	0.017604	17.2362	79.0876	-39.9063
 116	1	3	0.008363	14.5062	77.2576	-39.8923
 117	1	7	-0.151488	14.4561	79.2825	-41.4267
 118	1	7	-0.269275	14.8609	79.5621	-38.9452
 119	1	3	0.096378	15.506	76.3181	-39.6865
 120	1	8	0.063418	15.2834	79.1227	-38.0335
 121	1	8	0.061085	13.7909	79.7303	-38.7691
 122	1	8	0.065045	15.336	80.5386	-39.1032
 123	1	3	-0.142025	13.1549	76.8721	-39.8978
 124	1	3	-0.448546	15.1961	74.9641	-39.4973
 125	1	3	0.277842	13.8536	74.5388	-39.5493
 126	1	3	-0.409063	12.8377	75.5063	-39.7385
 127	1	6	0.203923	15.9964	74.2458	-39.3756
 128	1	8	0.016419	14.5507	78.619	-42.296
 129	1	8	0.049665	14.956	80.2296	-41.6661
 130	1	8	0.035794	13.3897	79.4932	-41.2782
 131	1	6	0.161583	12.3733	77.61	-40.0675
 132	1	6	0.199011	11.7987	75.1901	-39.7954
 133	1	1	0.463181	26.9887	74.3592	-38.4566
 134	1	2	0.074399	25.8923	74.7649	-37.6922
 135	1	3	0.034296	24.7138	74.125	-38.3289
 136	1	2	0.051625	26.6222	73.5234	-39.5147
 137	1	3	0.019035	25.1475	73.3849	-39.4105
 138	1	5	-0.389616	25.8705	75.4925	-36.7124
 139	1	5	-0.380104	27.3348	72.9942	-40.352
 140	1	3	-0.045097	23.3593	74.198	-37.9861
 141	1	3	-0.056032	24.2506	72.6751	-40.2159
 142	1	3	-0.174781	22.8792	72.731	-39.8883
 143	1	3	-0.129342	22.4239	73.477	-38.7658
 144	1	6	0.168842	23.0436	74.8013	-37.1361
 145	1	6	0.15893	24.6096	72.1093	-41.0731
 146	1	6	0.147704	22.1701	72.2085	-40.5271
 147	1	2	0.584577	20.96	73.5877	-38.4159
 148	1	3	-0.046755	19.9987	72.4837	-38.7798
 149	1	3	-0.110868	20.4033	71.1257	-38.8253
 150	1	3	-0.046132	19.4485	70.1604	-39.1741
 151	1	3	-0.135873	18.6445	72.8155	-39.0406
 152	1	3	-0.117662	17.7058	71.832	-39.4018
 153	1	3	-0.064457	18.1457	70.5089	-39.464
 154	1	2	0.492569	17.3978	69.2792	-39.8091
 155	1	1	-0.072087	18.3069	68.2366	-39.6905
 156	1	2	0.477555	19.5689	68.6835	-39.3143
 157	1	3	0.042617	17.9821	66.8819	-39.9767
 158	1	3	-0.20367	18.367	65.8341	-39.1219
 159	1	3	-0.057018	18.0755	64.4978	-39.4548
 160	1	3	-0.18182	17.2664	66.5751	-41.1424
 161	1	3	-0.14326	16.9359	65.2509	-41.4533
 162	1	3	0.043342	17.3766	64.1825	-40.6418
 163	1	6	0.163244	18.9291	66.0493	-38.2167
 164	1	6	0.101178	18.4292	63.7136	-38.7939
 165	1	6	0.165346	16.6726	72.0796	-39.6262
 166	1	6	0.135111	18.3261	73.8507	-38.9738
 167	1	6	0.171751	21.4211	70.8209	-38.5919
 168	1	5	-0.478239	20.5805	68.0257	-39.1383
 169	1	5	-0.481107	16.2276	69.2312	-40.147
 170	1	5	-0.49957	20.5544	74.5933	-37.8547
 171	1	6	0.151248	16.992	67.3656	-41.8319
 172	1	6	0.146138	16.3947	65.0568	-42.3762
 173	1	7	0.044043	17.1882	62.7318	-41.1415
 174	1	7	-0.215975	18.1359	61.7087	-40.4583
 175	1	8	0.063789	17.893	61.5853	-39.3955
 176	1	8	0.072206	19.1824	62.0293	-40.541
 177	1	8	0.045489	18.0587	60.7219	-40.9299
 178	1	7	0.005306	15.7013	62.2625	-41.0428
 179	1	7	0.164932	15.2908	61.6278	-42.4137
 180	1	8	0.005277	15.0649	63.1339	-40.8379
 181	1	8	0.017604	15.5447	61.5667	-40.2081
 182	1	3	0.008363	16.3737	62.1413	-43.3452
 183	1	7	-0.151488	13.8804	62.1021	-42.8394
 184	1	7	-0.269275	15.318	60.0818	-42.3551
 185	1	3	0.096378	17.4304	62.6981	-42.6391
 186	1	8	0.063418	15.072	59.6514	-43.3341
 187	1	8	0.061085	14.59	59.7034	-41.6263
 188	1	8	0.065045	16.3091	59.7106	-42.0694
 189	1	3	-0.142025	16.3485	62.194	-44.7497
 190	1	3	-0.448546	18.4792	63.3497	-43.3015
 191	1	3	0.277842	18.4419	63.482	-44.7017
 192	1	3	-0.409063	17.3816	62.882	-45.4215
 193	1	6	0.203923	19.2468	63.8572	-42.7229
 194	1	8	0.016419	13.5883	61.6683	-43.8039
 195	1	8	0.049665	13.8514	63.1932	-42.9369
 196	1	8	0.035794	13.129	61.808	-42.0954
 197	1	6	0.161583	15.5135	61.768	-45.302
 198	1	6	0.199011	17.3333	62.9924	-46.503
 199	1	1	0.463181	33.1083	64.9111	-24.0809
 200	1	2	0.074399	32.6784	64.1135	-25.1425
 201	1	3	0.034296	33.2106	64.7704	-26.3622
 202	1	2	0.051625	33.8634	66.0068	-24.5016
 203	1	3	0.019035	33.9093	65.8997	-25.982
 204	1	5	-0.389616	32.0146	63.0897	-25.1074
 205	1	5	-0.380104	34.3799	66.8818	-23.8259
 206	1	3	-0.045097	33.0935	64.3974	-27.7057
 207	1	3	-0.056032	34.5292	66.7265	-26.9246
 208	1	3	-0.174781	34.4158	66.3772	-28.287
 209	1	3	-0.129342	33.6901	65.2216	-28.6883
 210	1	6	0.168842	32.5504	63.4934	-27.9775
 211	1	6	0.15893	35.0866	67.6044	-26.6044
 212	1	6	0.147704	34.9169	66.9962	-29.0287
 213	1	2	0.584577	33.5865	64.8134	-30.1363
 214	1	3	-0.046755	33.5359	65.8697	-31.2126
 215	1	3	-0.110868	32.9524	67.1373	-30.9678
 216	1	3	-0.046132	32.901	68.0608	-32.0201
 217	1	3	-0.135873	34.0232	65.566	-32.5109
 218	1	3	-0.117662	33.963	66.5123	-33.5546
 219	1	3	-0.064457	33.393	67.7598	-33.2737
 220	1	2	0.492569	33.1635	68.9345	-34.156
 221	1	1	-0.072087	32.5296	69.8855	-33.3637
 222	1	2	0.477555	32.339	69.4362	-32.0617
 223	1	3	0.042617	32.1177	71.1653	-33.8337
 224	1	3	-0.20367	32.386	72.3243	-33.0849
 225	1	3	-0.057018	31.9805	73.5851	-33.5529
 226	1	3	-0.18182	31.438	71.2927	-35.0581
 227	1	3	-0.14326	31.035	72.5541	-35.5277
 228	1	3	0.043342	31.2971	73.7231	-34.779
 229	1	6	0.163244	32.9063	72.2523	-32.1334
 230	1	6	0.101178	32.2067	74.4636	-32.9559
 231	1	6	0.165346	34.3339	66.2819	-34.5519
 232	1	6	0.135111	34.4484	64.5833	-32.7083
 233	1	6	0.171751	32.5237	67.3952	-30.0009
 234	1	5	-0.478239	31.8269	70.0241	-31.1243
 235	1	5	-0.481107	33.4781	69.0176	-35.3307
 236	1	5	-0.49957	33.522	63.6309	-30.4292
 237	1	6	0.151248	31.228	70.4112	-35.6596
 238	1	6	0.146138	30.5275	72.6057	-36.4862
 239	1	7	0.044043	30.8796	75.1272	-35.2627
 240	1	7	-0.215975	29.9964	75.8347	-34.1992
 241	1	8	0.063789	30.5597	76.0492	-33.2832
 242	1	8	0.072206	29.1361	75.2104	-33.927
 243	1	8	0.045489	29.61	76.7881	-34.5828
 244	1	7	0.005306	32.1403	75.9869	-35.601
 245	1	7	0.164932	32.374	75.9151	-37.1413
 246	1	8	0.005277	33.029	75.6757	-35.0367
 247	1	8	0.017604	31.9454	77.0304	-35.3194
 248	1	3	0.008363	30.9954	75.5331	-37.643
 249	1	7	-0.151488	33.4029	74.8164	-37.5007
 250	1	7	-0.269275	32.8485	77.279	-37.6992
 251	1	3	0.096378	30.1708	75.1061	-36.6102
 252	1	8	0.063418	33.792	77.5855	-37.23
 253	1	8	0.061085	32.103	78.0616	-37.5083
 254	1	8	0.065045	33.0119	77.2274	-38.7828
 255	1	3	-0.142025	30.5263	75.5719	-38.9644
 256	1	3	-0.448546	28.8455	74.7137	-36.8617
 257	1	3	0.277842	28.3381	74.7515	-38.1805
 258	1	3	-0.409063	29.1973	75.1819	-39.2219
 259	1	6	0.203923	28.213	74.3944	-36.0374
 260	1	8	0.016419	33.0926	73.8378	-37.115
 261	1	8	0.049665	34.3884	75.0489	-37.0779
 262	1	8	0.035794	33.514	74.7267	-38.5887
 263	1	6	0.161583	31.1791	75.8961	-39.772
 264	1	6	0.199011	28.8297	75.2024	-40.2463
 265	1	1	0.463181	22.6529	50.7795	-29.9738
 266	1	2	0.074399	22.9845	50.6879	-28.6214
 267	1	3	0.034296	23.6769	51.96	-28.304
 268	1	2	0.051625	23.0533	51.9888	-30.5456
 269	1	3	0.019035	23.7193	52.735	-29.4463
 270	1	5	-0.389616	22.7518	49.7809	-27.8378
 271	1	5	-0.380104	22.9115	52.373	-31.6951
 272	1	3	-0.045097	24.2405	52.3934	-27.0999
 273	1	3	-0.056032	24.34	53.9891	-29.4523
 274	1	3	-0.174781	24.9148	54.4496	-28.2477
 275	1	3	-0.129342	24.8541	53.6671	-27.0609
 276	1	6	0.168842	24.2039	51.7536	-26.2191
 277	1	6	0.15893	24.3856	54.576	-30.3674
 278	1	6	0.147704	25.4311	55.4079	-28.2477
 279	1	2	0.584577	25.488	54.1165	-25.767
 280	1	3	-0.046755	25.5705	55.5831	-25.4182
 281	1	3	-0.110868	26.589	56.0185	-24.5372
 282	1	3	-0.046132	26.6422	57.375	-24.1924
 283	1	3	-0.135873	24.6151	56.5218	-25.8954
 284	1	3	-0.117662	24.6876	57.8834	-25.534
 285	1	3	-0.064457	25.7227	58.2811	-24.6789
 286	1	2	0.492569	26.0492	59.6185	-24.116
 287	1	1	-0.072087	27.1687	59.4296	-23.3127
 288	1	2	0.477555	27.5853	58.1027	-23.3032
 289	1	3	0.042617	27.8179	60.4724	-22.5911
 290	1	3	-0.20367	27.073	61.4065	-21.8498
 291	1	3	-0.057018	27.716	62.4397	-21.1472
 292	1	3	-0.18182	29.2191	60.5832	-22.6031
 293	1	3	-0.14326	29.8624	61.611	-21.8949
 294	1	3	0.043342	29.1211	62.5716	-21.1726
 295	1	6	0.163244	25.9885	61.34	-21.821
 296	1	6	0.101178	27.1057	63.1351	-20.5813
 297	1	6	0.165346	23.9573	58.6067	-25.8933
 298	1	6	0.135111	23.7953	56.1944	-26.5303
 299	1	6	0.171751	27.3184	55.3197	-24.1283
 300	1	5	-0.478239	28.5191	57.607	-22.6963
 301	1	5	-0.481107	25.4357	60.6505	-24.3294
 302	1	5	-0.49957	25.9227	53.2814	-24.9908
 303	1	6	0.151248	29.8199	59.8671	-23.159
 304	1	6	0.146138	30.948	61.6528	-21.9189
 305	1	7	0.044043	29.8349	63.6983	-20.3954
 306	1	7	-0.215975	29.005	65.0114	-20.3402
 307	1	8	0.063789	28.1086	64.9036	-19.7178
 308	1	8	0.072206	28.6915	65.3152	-21.3473
 309	1	8	0.045489	29.5964	65.8328	-19.9169
 310	1	7	0.005306	30.2061	63.2158	-18.9569
 311	1	7	0.164932	31.6823	63.6301	-18.656
 312	1	8	0.005277	30.1203	62.1215	-18.914
 313	1	8	0.017604	29.5102	63.6047	-18.2019
 314	1	3	0.008363	32.2074	63.9961	-20.0306
 315	1	7	-0.151488	32.4729	62.4542	-18.0326
 316	1	7	-0.269275	31.7385	64.8544	-17.7109
 317	1	3	0.096378	31.1965	64.0355	-20.9807
 318	1	8	0.063418	31.1917	65.706	-18.1338
 319	1	8	0.061085	32.7753	65.1727	-17.5444
 320	1	8	0.065045	31.2964	64.6173	-16.7349
 321	1	3	-0.142025	33.5341	64.2847	-20.3865
 322	1	3	-0.448546	31.4744	64.3583	-22.3182
 323	1	3	0.277842	32.8027	64.6294	-22.7131
 324	1	3	-0.409063	33.8225	64.5957	-21.7305
 325	1	6	0.203923	30.6688	64.3647	-23.0484
 326	1	8	0.016419	32.0189	62.1368	-17.085
 327	1	8	0.049665	33.5123	62.7401	-17.8296
 328	1	8	0.035794	32.4876	61.5895	-18.7088
 329	1	6	0.161583	34.3218	64.2666	-19.6364
 330	1	6	0.199011	34.848	64.8235	-22.0151
 331	1	1	0.463181	18.707	41.2095	-14.5705
 332	1	2	0.074399	17.8413	40.8584	-15.609
 333	1	3	0.034296	18.4654	41.4063	-16.84
 334	1	2	0.051625	19.8178	41.9275	-15.02
 335	1	3	0.019035	19.641	42.0397	-16.4897
 336	1	5	-0.389616	16.7921	40.2374	-15.5519
 337	1	5	-0.380104	20.7583	42.363	-14.3756
 338	1	3	-0.045097	18.0259	41.3588	-18.1679
 339	1	3	-0.056032	20.4458	42.6662	-17.4465
 340	1	3	-0.174781	20.0238	42.6312	-18.7924
 341	1	3	-0.129342	18.8225	41.9674	-19.1676
 342	1	6	0.168842	17.0859	40.866	-18.4131
 343	1	6	0.15893	21.3601	43.1752	-17.1484
 344	1	6	0.147704	20.6238	43.1492	-19.5375
 345	1	2	0.584577	18.3245	41.9563	-20.5936
 346	1	3	-0.046755	19.2858	42.1342	-21.7426
 347	1	3	-0.110868	18.8497	42.8278	-22.8955
 348	1	3	-0.046132	19.7457	42.9845	-23.9605
 349	1	3	-0.135873	20.595	41.5818	-21.7131
 350	1	3	-0.117662	21.4782	41.7441	-22.8016
 351	1	3	-0.064457	21.0221	42.4609	-23.9155
 352	1	2	0.492569	21.7073	42.8056	-25.1908
 353	1	1	-0.072087	20.7862	43.5407	-25.9279
 354	1	2	0.477555	19.5758	43.6841	-25.261
 355	1	3	0.042617	21.0597	44.1116	-27.2019
 356	1	3	-0.20367	21.6169	43.3374	-28.2337
 357	1	3	-0.057018	21.8954	43.9139	-29.4848
 358	1	3	-0.18182	20.7816	45.4674	-27.4448
 359	1	3	-0.14326	21.0628	46.0445	-28.6939
 360	1	3	0.043342	21.6336	45.2777	-29.7347
 361	1	6	0.163244	21.8456	42.2882	-28.0654
 362	1	6	0.101178	22.3235	43.2913	-30.2644
 363	1	6	0.165346	22.4829	41.3242	-22.7855
 364	1	6	0.135111	20.9252	41.0093	-20.8491
 365	1	6	0.171751	17.8434	43.2412	-22.9574
 366	1	5	-0.478239	18.5719	44.2659	-25.6345
 367	1	5	-0.481107	22.8476	42.5014	-25.4962
 368	1	5	-0.49957	17.1303	41.8387	-20.8151
 369	1	6	0.151248	20.3445	46.0829	-26.662
 370	1	6	0.146138	20.8302	47.0961	-28.8322
 371	1	7	0.044043	21.9739	45.8808	-31.1142
 372	1	7	-0.215975	23.4574	45.6086	-31.4849
 373	1	8	0.063789	23.6453	44.5407	-31.6481
 374	1	8	0.072206	24.1282	45.9509	-30.6867
 375	1	8	0.045489	23.7339	46.1381	-32.406
 376	1	7	0.005306	21.0157	45.325	-32.2168
 377	1	7	0.164932	19.9113	46.3941	-32.4865
 378	1	8	0.005277	20.5861	44.3519	-31.945
 379	1	8	0.017604	21.5876	45.1623	-33.1402
 380	1	3	0.008363	20.555	47.6555	-31.9453
 381	1	7	-0.151488	18.6215	46.0695	-31.6951
 382	1	7	-0.269275	19.5874	46.4996	-33.9965
 383	1	3	0.096378	21.6864	47.3728	-31.1923
 384	1	8	0.063418	18.8116	47.2528	-34.182
 385	1	8	0.061085	19.2254	45.5397	-34.3859
 386	1	8	0.065045	20.4785	46.7863	-34.5697
 387	1	3	-0.142025	20.1108	48.9778	-32.1011
 388	1	3	-0.448546	22.4076	48.3992	-30.5628
 389	1	3	0.277842	21.9738	49.7381	-30.6805
 390	1	3	-0.409063	20.8273	50.0126	-31.4658
 391	1	6	0.203923	23.2672	48.1506	-29.9456
 392	1	8	0.016419	17.8686	46.8557	-31.8341
 393	1	8	0.049665	18.8259	45.9875	-30.6203
 394	1	8	0.035794	18.1846	45.1199	-32.0292
 395	1	6	0.161583	19.2214	49.1936	-32.6894
 396	1	6	0.199011	20.4872	51.0404	-31.5775
 397	1	1	0.463181	27.761	25.1381	-12.5107
 398	1	2	0.074399	26.7339	26.083	-12.4643
 399	1	3	0.034296	27.4167	27.4008	-12.463
 400	1	2	0.051625	29.0283	25.7219	-12.529
 401	1	3	0.019035	28.7808	27.1857	-12.4988
 402	1	5	-0.389616	25.527	25.9001	-12.4499
 403	1	5	-0.380104	30.1187	25.1759	-12.5687
 404	1	3	-0.045097	26.8731	28.6911	-12.4651
 405	1	3	-0.056032	29.6859	28.2506	-12.5361
 406	1	3	-0.174781	29.1618	29.5598	-12.5349
 407	1	3	-0.129342	27.7614	29.7946	-12.4879
 408	1	6	0.168842	25.7926	28.8175	-12.4803
 409	1	6	0.15893	30.7571	28.0655	-12.5805
 410	1	6	0.147704	29.8471	30.4055	-12.5826
 411	1	2	0.584577	27.2479	31.2133	-12.5478
 412	1	3	-0.046755	25.9216	31.5744	-11.9247
 413	1	3	-0.110868	25.1794	32.6442	-12.4779
 414	1	3	-0.046132	23.9741	33.0105	-11.8662
 415	1	3	-0.135873	25.4386	30.921	-10.7579
 416	1	3	-0.117662	24.224	31.3124	-10.1549
 417	1	3	-0.064457	23.5115	32.3686	-10.7371
 418	1	2	0.492569	22.2483	33.0316	-10.3142
 419	1	1	-0.072087	22.0259	34.0542	-11.233
 420	1	2	0.477555	23.0166	34.0928	-12.2105
 421	1	3	0.042617	20.9357	34.9746	-11.1667
 422	1	3	-0.20367	19.6433	34.5482	-10.8088
 423	1	3	-0.057018	18.5795	35.4643	-10.7375
 424	1	3	-0.18182	21.1368	36.339	-11.4453
 425	1	3	-0.14326	20.0713	37.2516	-11.3893
 426	1	3	0.043342	18.7695	36.8286	-11.0408
 427	1	6	0.163244	19.4568	33.5039	-10.572
 428	1	6	0.101178	17.6005	35.104	-10.4377
 429	1	6	0.165346	23.8559	30.8292	-9.25126
 430	1	6	0.135111	26.0218	30.1299	-10.292
 431	1	6	0.171751	25.5381	33.186	-13.3527
 432	1	5	-0.478239	23.1097	34.8408	-13.1685
 433	1	5	-0.481107	21.5801	32.7273	-9.3408
 434	1	5	-0.49957	27.9024	32.071	-13.1177
 435	1	6	0.151248	22.1256	36.703	-11.7139
 436	1	6	0.146138	20.2805	38.2938	-11.612
 437	1	7	0.044043	17.5836	37.8135	-10.957
 438	1	7	-0.215975	16.3299	37.2601	-11.6892
 439	1	8	0.063789	15.9083	36.3889	-11.174
 440	1	8	0.072206	16.576	36.9619	-12.7163
 441	1	8	0.045489	15.5419	38.0228	-11.7431
 442	1	7	0.005306	17.2525	38.1492	-9.46741
 443	1	7	0.164932	17.9045	39.5247	-9.12157
 444	1	8	0.005277	17.5772	37.3558	-8.78135
 445	1	8	0.017604	16.1634	38.2313	-9.35155
 446	1	3	0.008363	18.1207	40.1248	-10.4977
 447	1	7	-0.151488	19.2577	39.333	-8.39512
 448	1	7	-0.269275	16.9634	40.3882	-8.24679
 449	1	3	0.096378	17.9358	39.1877	-11.5053
 450	1	8	0.063418	16.0167	40.5858	-8.76589
 451	1	8	0.061085	17.4235	41.3549	-8.00735
 452	1	8	0.065045	16.7342	39.8804	-7.3013
 453	1	3	-0.142025	18.4954	41.4409	-10.807
 454	1	3	-0.448546	18.12	39.531	-12.8545
 455	1	3	0.277842	18.4937	40.8489	-13.2008
 456	1	3	-0.409063	18.6765	41.7932	-12.1598
 457	1	6	0.203923	17.9767	38.7782	-13.6254
 458	1	8	0.016419	19.9458	38.7194	-8.98831
 459	1	8	0.049665	19.1152	38.838	-7.42623
 460	1	8	0.035794	19.744	40.2996	-8.21278
 461	1	6	0.161583	18.6542	42.169	-10.0143
 462	1	6	0.199011	18.9845	42.808	-12.4047
 463	1	1	0.463181	9.80215	19.0569	-13.3777
 464	1	2	0.074399	11.175	19.1159	-13.137
 465	1	3	0.034296	11.6596	20.2659	-13.9392
 466	1	2	0.051625	9.36636	20.0435	-14.2635
 467	1	3	0.019035	10.5862	20.8142	-14.6137
 468	1	5	-0.389616	11.8527	18.4181	-12.3999
 469	1	5	-0.380104	8.23446	20.262	-14.6643
 470	1	3	-0.045097	12.951	20.7907	-14.0578
 471	1	3	-0.056032	10.7438	21.9149	-15.4615
 472	1	3	-0.174781	12.0372	22.4607	-15.5982
 473	1	3	-0.129342	13.1441	21.9212	-14.8894
 474	1	6	0.168842	13.7717	20.3126	-13.5273
 475	1	6	0.15893	9.89103	22.3273	-15.9968
 476	1	6	0.147704	12.1865	23.3123	-16.261
 477	1	2	0.584577	14.5163	22.5193	-15.0849
 478	1	3	-0.046755	15.5674	22.3468	-14.0181
 479	1	3	-0.110868	16.9135	22.1649	-14.4091
 480	1	3	-0.046132	17.8827	22.01	-13.4105
 481	1	3	-0.135873	15.2414	22.4064	-12.6356
 482	1	3	-0.117662	16.2369	22.2567	-11.6467
 483	1	3	-0.064457	17.5562	22.0522	-12.0704
 484	1	2	0.492569	18.8067	21.8706	-11.2848
 485	1	1	-0.072087	19.8243	21.7252	-12.2214
 486	1	2	0.477555	19.3476	21.794	-13.5254
 487	1	3	0.042617	21.1964	21.5379	-11.8909
 488	1	3	-0.20367	21.5818	20.6127	-10.905
 489	1	3	-0.057018	22.9392	20.428	-10.5936
 490	1	3	-0.18182	22.1927	22.2739	-12.5554
 491	1	3	-0.14326	23.5495	22.0861	-12.2477
 492	1	3	0.043342	23.9459	21.1581	-11.2592
 493	1	6	0.163244	20.8301	20.036	-10.3723
 494	1	6	0.101178	23.2091	19.7049	-9.82956
 495	1	6	0.165346	15.9979	22.3074	-10.5855
 496	1	6	0.135111	14.2154	22.5905	-12.3242
 497	1	6	0.171751	17.1968	22.1399	-15.461
 498	1	5	-0.478239	19.9708	21.679	-14.5667
 499	1	5	-0.481107	18.8917	21.8576	-10.0686
 500	1	5	-0.49957	14.7879	23.1025	-16.1214
 501	1	6	0.151248	21.9189	22.9911	-13.3257
 502	1	6	0.146138	24.2811	22.6702	-12.7972
 503	1	7	0.044043	25.4252	20.9188	-10.895
 504	1	7	-0.215975	25.6669	21.2	-9.38779
 505	1	8	0.063789	25.3169	22.2042	-9.11747
 506	1	8	0.072206	26.7357	21.1393	-9.14433
 507	1	8	0.045489	25.1384	20.4774	-8.75408
 508	1	7	0.005306	25.859	19.4634	-11.2668
 509	1	7	0.164932	26.5699	19.5124	-12.6537
 510	1	8	0.005277	25.0205	18.7552	-11.2613
 511	1	8	0.017604	26.5734	19.1021	-10.5149
 512	1	3	0.008363	27.0099	20.9615	-12.7201
 513	1	7	-0.151488	25.5777	19.1985	-13.7996
 514	1	7	-0.269275	27.7627	18.5274	-12.7094
 515	1	3	0.096378	26.3845	21.7348	-11.7503
 516	1	8	0.063418	28.2604	18.5645	-13.6863
 517	1	8	0.061085	27.4246	17.4968	-12.5427
 518	1	8	0.065045	28.5089	18.7702	-11.942
 519	1	3	-0.142025	27.9121	21.5398	-13.6256
 520	1	3	-0.448546	26.6377	23.1133	-11.653
 521	1	3	0.277842	27.5314	23.7274	-12.5585
 522	1	3	-0.409063	28.1662	22.9227	-13.5363
 523	1	6	0.203923	26.114	23.7056	-10.9073
 524	1	8	0.016419	25.1948	18.1733	-13.7177
 525	1	8	0.049665	26.0656	19.3005	-14.7771
 526	1	8	0.035794	24.7195	19.8815	-13.7823
 527	1	6	0.161583	28.3991	20.9303	-14.3839
 528	1	6	0.199011	28.8678	23.3784	-14.2327
 529	1	1	0.463181	-2.20885	11.8626	-20.7182
 530	1	2	0.074399	-3.01531	12.1407	-19.6154
 531	1	3	0.034296	-2.87414	13.6013	-19.3905
 532	1	2	0.051625	-1.57094	12.9964	-21.2211
 533	1	3	0.019035	-2.00251	14.1089	-20.3353
 534	1	5	-0.389616	-3.67239	11.3674	-18.938
 535	1	5	-0.380104	-0.79899	13.0788	-22.1622
 536	1	3	-0.045097	-3.45789	14.4186	-18.4162
 537	1	3	-0.056032	-1.64653	15.4627	-20.3482
 538	1	3	-0.174781	-2.20237	16.3025	-19.3588
 539	1	3	-0.129342	-3.10465	15.787	-18.3898
 540	1	6	0.168842	-4.15406	13.9985	-17.6916
 541	1	6	0.15893	-0.959364	15.8444	-21.101
 542	1	6	0.147704	-1.94533	17.3607	-19.3555
 543	1	2	0.584577	-3.7159	16.6726	-17.3378
 544	1	3	-0.046755	-2.81522	17.5297	-16.4813
 545	1	3	-0.110868	-1.4261	17.268	-16.4002
 546	1	3	-0.046132	-0.661355	18.0025	-15.4869
 547	1	3	-0.135873	-3.38072	18.5292	-15.6452
 548	1	3	-0.117662	-2.58766	19.2593	-14.7352
 549	1	3	-0.064457	-1.21958	18.9651	-14.6756
 550	1	2	0.492569	-0.174081	19.4308	-13.7255
 551	1	1	-0.072087	0.967206	18.6775	-14.0089
 552	1	2	0.477555	0.751969	17.8154	-15.0834
 553	1	3	0.042617	2.15695	18.6547	-13.2112
 554	1	3	-0.20367	3.41407	18.3879	-13.7874
 555	1	3	-0.057018	4.55353	18.2023	-12.9856
 556	1	3	-0.18182	2.09165	18.7956	-11.8128
 557	1	3	-0.14326	3.22307	18.598	-11.009
 558	1	3	0.043342	4.46963	18.2768	-11.5778
 559	1	6	0.163244	3.51336	18.2751	-14.8634
 560	1	6	0.101178	5.48949	17.9565	-13.4779
 561	1	6	0.165346	-3.03233	19.9882	-14.0589
 562	1	6	0.135111	-4.45441	18.7098	-15.6718
 563	1	6	0.171751	-0.952659	16.4685	-16.9656
 564	1	5	-0.478239	1.49005	16.9614	-15.5433
 565	1	5	-0.481107	-0.370024	20.2025	-12.8019
 566	1	5	-0.49957	-4.90464	16.5736	-17.0859
 567	1	6	0.151248	1.15492	19.0264	-11.3217
 568	1	6	0.146138	3.11334	18.6622	-9.93008
 569	1	7	0.044043	5.66336	17.9661	-10.6539
 570	1	7	-0.215975	5.90792	19.1224	-9.6458
 571	1	8	0.063789	5.0839	19.2143	-8.92809
 572	1	8	0.072206	6.00862	20.0815	-10.169
 573	1	8	0.045489	6.82879	18.9529	-9.0726
 574	1	7	0.005306	5.42762	16.6132	-9.9062
 575	1	7	0.164932	6.18683	15.4922	-10.6816
 576	1	8	0.005277	4.36215	16.3776	-9.78505
 577	1	8	0.017604	5.84431	16.6892	-8.89287
 578	1	3	0.008363	7.22224	16.2962	-11.4436
 579	1	7	-0.151488	5.24734	14.751	-11.6631
 580	1	7	-0.269275	6.82883	14.4741	-9.70741
 581	1	3	0.096378	6.93811	17.6559	-11.4216
 582	1	8	0.063418	7.36346	13.6879	-10.2548
 583	1	8	0.061085	6.0623	13.9911	-9.08828
 584	1	8	0.065045	7.54669	14.9674	-9.03959
 585	1	3	-0.142025	8.3549	15.8126	-12.1157
 586	1	3	-0.448546	7.77831	18.5802	-12.0616
 587	1	3	0.277842	8.92956	18.1244	-12.739
 588	1	3	-0.409063	9.20482	16.7351	-12.7575
 589	1	6	0.203923	7.52904	19.6378	-12.0466
 590	1	8	0.016419	5.80152	14.0056	-12.2476
 591	1	8	0.049665	4.77828	15.4455	-12.3704
 592	1	8	0.035794	4.44621	14.2296	-11.1242
 593	1	6	0.161583	8.57275	14.7468	-12.1323
 594	1	6	0.199011	10.096	16.3702	-13.2637
 595	1	1	0.463181	-17.3447	1.36448	-24.8877
 596	1	2	0.074399	-15.9809	1.6457	-25.0216
 597	1	3	0.034296	-15.9152	2.97419	-25.6793
 598	1	2	0.051625	-18.149	2.38618	-25.4019
 599	1	3	0.019035	-17.2038	3.41238	-25.9098
 600	1	5	-0.389616	-15.0199	0.966901	-24.696
 601	1	5	-0.380104	-19.3665	2.46252	-25.4291
 602	1	3	-0.045097	-14.8006	3.73693	-26.0478
 603	1	3	-0.056032	-17.4566	4.63544	-26.5398
 604	1	3	-0.174781	-16.3492	5.42219	-26.9195
 605	1	3	-0.129342	-15.0204	4.99628	-26.6574
 606	1	6	0.168842	-13.7991	3.35108	-25.8673
 607	1	6	0.15893	-18.4776	4.96035	-26.7288
 608	1	6	0.147704	-16.5185	6.37672	-27.4166
 609	1	2	0.584577	-13.8648	5.87271	-27.0729
 610	1	3	-0.046755	-12.6504	5.99467	-26.181
 611	1	3	-0.110868	-11.4353	6.46641	-26.7345
 612	1	3	-0.046132	-10.3224	6.60143	-25.8933
 613	1	3	-0.135873	-12.7132	5.70792	-24.789
 614	1	3	-0.117662	-11.578	5.84439	-23.9637
 615	1	3	-0.064457	-10.3889	6.29045	-24.5519
 616	1	2	0.492569	-9.05234	6.53882	-23.9503
 617	1	1	-0.072087	-8.24486	7.00024	-24.9869
 618	1	2	0.477555	-8.94314	7.06994	-26.1904
 619	1	3	0.042617	-6.86722	7.34995	-24.8384
 620	1	3	-0.20367	-6.41504	8.04906	-23.7034
 621	1	3	-0.057018	-5.05742	8.38393	-23.5552
 622	1	3	-0.18182	-5.92839	7.00239	-25.8271
 623	1	3	-0.14326	-4.57555	7.35389	-25.6887
 624	1	3	0.043342	-4.11281	8.04117	-24.5477
 625	1	6	0.163244	-7.11416	8.32891	-22.9195
 626	1	6	0.101178	-4.75591	8.90966	-22.6552
 627	1	6	0.165346	-11.6202	5.62586	-22.8979
 628	1	6	0.135111	-13.6497	5.40031	-24.3308
 629	1	6	0.171751	-11.3591	6.72589	-27.7903
 630	1	5	-0.478239	-8.54077	7.43654	-27.281
 631	1	5	-0.481107	-8.75816	6.35215	-22.782
 632	1	5	-0.49957	-13.9268	6.50412	-28.1152
 633	1	6	0.151248	-6.24488	6.46359	-26.7169
 634	1	6	0.146138	-3.87971	7.08313	-26.4776
 635	1	7	0.044043	-2.61445	8.39337	-24.4293
 636	1	7	-0.215975	-2.20932	9.38707	-25.5498
 637	1	8	0.063789	-2.84452	10.2814	-25.5277
 638	1	8	0.072206	-2.30795	8.93093	-26.5424
 639	1	8	0.045489	-1.16719	9.71106	-25.4305
 640	1	7	0.005306	-1.73582	7.10028	-24.488
 641	1	7	0.164932	-1.43708	6.65686	-23.0249
 642	1	8	0.005277	-0.78692	7.34074	-24.9865
 643	1	8	0.017604	-2.19142	6.29088	-25.0714
 644	1	3	0.008363	-1.60614	7.96301	-22.2749
 645	1	7	-0.151488	-0.00428931	6.08377	-22.9009
 646	1	7	-0.269275	-2.46558	5.61038	-22.5334
 647	1	3	0.096378	-2.23078	8.9303	-23.0544
 648	1	8	0.063418	-3.49158	5.98978	-22.6159
 649	1	8	0.061085	-2.28785	5.35532	-21.4809
 650	1	8	0.065045	-2.39754	4.68653	-23.1216
 651	1	3	-0.142025	-1.19924	8.24806	-20.9631