pySIMM System Object

992 atoms
1096 bonds
1935 angles
3101 dihedrals
315 impropers

8 atom types
10 bond types
17 angle types
9 dihedral types
4 improper types

-147.553955 147.553955 xlo xhi
-147.553955 147.553955 ylo yhi
-147.553955 147.553955 zlo zhi

Masses

   1	14.01	# n
   2	12.01	# c
   3	12.01	# ca
   4	1.008	# hn
   5	16.0	# o
   6	1.008	# ha
   7	12.01	# c3
   8	1.008	# hc

Pair Coeffs

   1	0.17	3.249998523775958	# n
   2	0.086	3.3996695084235347	# c
   3	0.086	3.3996695084235347	# ca
   4	0.0157	1.069078461768407	# hn
   5	0.21	2.959921901149463	# o
   6	0.015	2.59964245953351	# ha
   7	0.1094	3.3996695084235347	# c3
   8	0.0157	2.649532787749369	# hc

Bond Coeffs

   1	461.1	1.3984	# ca,ca
   2	427.6	1.3789	# c,n
   3	345.9	1.4906	# c,ca
   4	300.9	1.5375	# c3,c3
   5	345.8	1.086	# ca,ha
   6	384.2	1.4121	# ca,n
   7	637.7	1.2183	# c,o
   8	321.0	1.5156	# c3,ca
   9	330.6	1.0969	# c3,hc
  10	403.2	1.0129	# hn,n

Angle Coeffs

   1	68.72	122.6	# ca,c,o
   2	62.86	111.51	# c3,c3,c3
   3	63.82	123.71	# c,n,ca
   4	67.87	120.19	# ca,ca,n
   5	67.68	115.25	# ca,c,n
   6	63.0	118.11	# ca,c,ca
   7	63.56	112.24	# ca,c3,ca
   8	63.15	112.07	# c3,c3,ca
   9	46.34	109.8	# c3,c3,hc
  10	74.22	123.05	# n,c,o
  11	48.33	117.55	# c,n,hn
  12	64.28	120.33	# c,ca,ca
  13	39.4	107.58	# hc,c3,hc
  14	66.62	120.02	# ca,ca,ca
  15	63.53	120.77	# c3,ca,ca
  16	63.74	127.08	# c,n,c
  17	48.18	119.88	# ca,ca,ha

Dihedral Coeffs

   1	1	2.5	2	180	# X,c,n,X
   2	1	0.45	2	180	# X,ca,n,X
   3	3	0.18	3	0	0.25	2	180	0.2	1	180	# c3,c3,c3,c3
   4	2	2.5	2	180	2.0	1	0	# hn,n,c,o
   5	1	3.625	2	180	# X,ca,ca,X
   6	1	0.16	3	0	# hc,c3,c3,c3
   7	1	1.0	2	180	# X,c,ca,X
   8	1	0.15555555555555556	3	0	# X,c3,c3,X
   9	1	0.0	2	0	# X,c3,ca,X

Improper Coeffs

   1	10.5	-1	2	# c,X,X,o
   2	1.1	-1	2	# ca,X,X,ha
   3	1.1	-1	2	# ca,ca,ca,c3
   4	1.1	-1	2	# n,X,X,hn

Atoms

   1	1	1	0.463181	14.0118	-54.3839	-24.9774
   2	1	2	0.074399	13.1878	-53.3741	-25.4698
   3	1	3	0.034296	13.587	-53.2113	-26.8894
   4	1	2	0.051625	14.922	-54.8525	-25.9244
   5	1	3	0.019035	14.6118	-54.0949	-27.1645
   6	1	5	-0.389616	12.2655	-52.8034	-24.911
   7	1	5	-0.380104	15.7385	-55.7517	-25.81
   8	1	3	-0.045097	13.0387	-52.3884	-27.8771
   9	1	3	-0.056032	15.1475	-54.2081	-28.4521
  10	1	3	-0.174781	14.5993	-53.3972	-29.4695
  11	1	3	-0.129342	13.5325	-52.4976	-29.2014
  12	1	6	0.168842	12.2466	-51.6949	-27.6045
  13	1	6	0.15893	15.9482	-54.9157	-28.6575
  14	1	6	0.147704	14.9957	-53.4743	-30.4814
  15	1	2	0.584577	12.9606	-51.6528	-30.3178
  16	1	3	-0.046755	11.5833	-51.0612	-30.1565
  17	1	3	-0.110868	11.3502	-49.7259	-30.5603
  18	1	3	-0.046132	10.0901	-49.1662	-30.3076
  19	1	3	-0.135873	10.5248	-51.8159	-29.5824
  20	1	3	-0.117662	9.26618	-51.2316	-29.337
  21	1	3	-0.064457	9.08691	-49.8913	-29.6982
  22	1	2	0.492569	7.92691	-48.9889	-29.4811
  23	1	1	-0.072087	8.31484	-47.7439	-29.9684
  24	1	2	0.477555	9.59585	-47.7791	-30.5139
  25	1	3	0.042617	7.5308	-46.5589	-29.8267
  26	1	3	-0.20367	8.13223	-45.3448	-29.4483
  27	1	3	-0.057018	7.35641	-44.1942	-29.2362
  28	1	3	-0.18182	6.13575	-46.5871	-30.0096
  29	1	3	-0.14326	5.35697	-45.4389	-29.7823
  30	1	3	0.043342	5.95272	-44.2273	-29.3671
  31	1	6	0.163244	9.20786	-45.2844	-29.3071
  32	1	6	0.101178	7.8603	-43.276	-28.9534
  33	1	6	0.165346	8.4618	-51.7896	-28.8602
  34	1	6	0.135111	10.6852	-52.8555	-29.3039
  35	1	6	0.171751	12.1403	-49.1279	-31.0135
  36	1	5	-0.478239	10.236	-46.8652	-31.0052
  37	1	5	-0.481107	6.89414	-49.2923	-28.9087
  38	1	5	-0.49957	13.627	-51.3974	-31.3069
  39	1	6	0.151248	5.6418	-47.5105	-30.3025
  40	1	6	0.146138	4.28153	-45.5108	-29.9192
  41	1	7	0.044043	5.11541	-42.9649	-29.0717
  42	1	7	-0.215975	5.61985	-42.2191	-27.8041
  43	1	8	0.063789	5.7035	-42.9069	-26.9529
  44	1	8	0.072206	4.92143	-41.4213	-27.5193
  45	1	8	0.045489	6.5994	-41.7529	-27.9636
  46	1	7	0.005306	5.10681	-42.0078	-30.307
  47	1	7	0.164932	3.70509	-42.0904	-30.9918
  48	1	8	0.005277	5.91556	-42.2482	-31.0102
  49	1	8	0.017604	5.29035	-40.9777	-29.9735
  50	1	3	0.008363	2.86629	-42.7994	-29.9476
  51	1	7	-0.151488	3.76914	-42.9292	-32.29
  52	1	7	-0.269275	3.15498	-40.6779	-31.3061
  53	1	3	0.096378	3.6388	-43.2793	-28.8973
  54	1	8	0.063418	3.05239	-40.086	-30.3875
  55	1	8	0.061085	2.16735	-40.7345	-31.7803
  56	1	8	0.065045	3.8267	-40.1388	-31.9858
  57	1	3	-0.142025	1.47724	-43.0072	-29.9709
  58	1	3	-0.448546	3.05064	-43.9788	-27.8301
  59	1	3	0.277842	1.66335	-44.1905	-27.8349
  60	1	3	-0.409063	0.882745	-43.7072	-28.9018
  61	1	6	0.203923	3.65717	-44.358	-27.0148
  62	1	8	0.016419	4.15867	-43.9353	-32.0909
  63	1	8	0.049665	4.42208	-42.4531	-33.0322
  64	1	8	0.035794	2.77214	-43.0369	-32.7358
  65	1	6	0.161583	0.877299	-42.6363	-30.7985
  66	1	6	0.199011	-0.189309	-43.8812	-28.8927
  67	1	1	0.463181	7.78381	-44.0852	-15.6899
  68	1	2	0.074399	7.68819	-45.065	-14.6993
  69	1	3	0.034296	9.09174	-45.4955	-14.4385
  70	1	2	0.051625	9.1037	-43.8505	-16.082
  71	1	3	0.019035	9.92524	-44.777	-15.2743
  72	1	5	-0.389616	6.68423	-45.5208	-14.1776
  73	1	5	-0.380104	9.52912	-43.0972	-16.9416
  74	1	3	-0.045097	9.6035	-46.4628	-13.5608
  75	1	3	-0.056032	11.3063	-44.9873	-15.3063
  76	1	3	-0.174781	11.8387	-45.9745	-14.4561
  77	1	3	-0.129342	10.9972	-46.7152	-13.585
  78	1	6	0.168842	8.9369	-47.0173	-12.9017
  79	1	6	0.15893	11.9369	-44.4124	-15.9814
  80	1	6	0.147704	12.9118	-46.1577	-14.4664
  81	1	2	0.584577	11.5954	-47.7581	-12.6827
  82	1	3	-0.046755	12.6375	-48.6743	-13.2695
  83	1	3	-0.110868	12.4873	-49.1597	-14.5905
  84	1	3	-0.046132	13.4625	-50.0288	-15.0957
  85	1	3	-0.135873	13.7552	-49.0826	-12.4969
  86	1	3	-0.117662	14.7387	-49.9395	-13.0379
  87	1	3	-0.064457	14.563	-50.3953	-14.3522
  88	1	2	0.492569	15.3722	-51.3446	-15.1647
  89	1	1	-0.072087	14.6666	-51.5393	-16.3545
  90	1	2	0.477555	13.5119	-50.7566	-16.3892
  91	1	3	0.042617	15.0123	-52.5017	-17.3617
  92	1	3	-0.20367	15.6477	-53.7095	-17.014
  93	1	3	-0.057018	15.8968	-54.6995	-17.9764
  94	1	3	-0.18182	14.6692	-52.3068	-18.716
  95	1	3	-0.14326	14.8771	-53.3183	-19.6719
  96	1	3	0.043342	15.4629	-54.5493	-19.3092
  97	1	6	0.163244	15.94	-53.9096	-15.9876
  98	1	6	0.101178	16.4008	-55.6077	-17.6621
  99	1	6	0.165346	15.5958	-50.2624	-12.4489
 100	1	6	0.135111	13.8564	-48.7304	-11.4715
 101	1	6	0.171751	11.6206	-48.9043	-15.1984
 102	1	5	-0.478239	12.6475	-50.7032	-17.2473
 103	1	5	-0.481107	16.4292	-51.8402	-14.8133
 104	1	5	-0.49957	11.2785	-47.817	-11.5077
 105	1	6	0.151248	14.1944	-51.3832	-19.0358
 106	1	6	0.146138	14.5491	-53.1413	-20.6915
 107	1	7	0.044043	15.6109	-55.717	-20.3094
 108	1	7	-0.215975	17.0863	-55.8357	-20.7673
 109	1	8	0.063789	17.4412	-54.8867	-21.1887
 110	1	8	0.072206	17.2011	-56.6109	-21.5361
 111	1	8	0.045489	17.7393	-56.0924	-19.9237
 112	1	7	0.005306	15.1005	-57.0618	-19.6887
 113	1	7	0.164932	13.5781	-57.1731	-19.9927
 114	1	8	0.005277	15.311	-57.1848	-18.6213
 115	1	8	0.017604	15.6169	-57.8895	-20.1939
 116	1	3	0.008363	13.4992	-56.3819	-21.2817
 117	1	7	-0.151488	12.7137	-56.5185	-18.8873
 118	1	7	-0.269275	13.1589	-58.6531	-20.1705
 119	1	3	0.096378	14.6421	-55.6124	-21.4877
 120	1	8	0.063418	13.7091	-59.1216	-20.9967
 121	1	8	0.061085	12.0873	-58.7374	-20.3895
 122	1	8	0.065045	13.362	-59.2273	-19.2577
 123	1	3	-0.142025	12.4777	-56.4331	-22.2398
 124	1	3	-0.448546	14.831	-54.9248	-22.702
 125	1	3	0.277842	13.8312	-54.9912	-23.6998
 126	1	3	-0.409063	12.6503	-55.7275	-23.4437
 127	1	6	0.203923	15.7535	-54.3811	-22.8828
 128	1	8	0.016419	12.9501	-55.4554	-18.763
 129	1	8	0.049665	12.8711	-57.0155	-17.9218
 130	1	8	0.035794	11.6472	-56.5912	-19.1347
 131	1	6	0.161583	11.5858	-57.0309	-22.0649
 132	1	6	0.199011	11.8716	-55.7749	-24.2018
 133	1	1	0.463181	14.5059	-43.2415	-6.99169
 134	1	2	0.074399	15.0514	-42.1323	-7.63748
 135	1	3	0.034296	14.7432	-42.3263	-9.07418
 136	1	2	0.051625	13.833	-44.0957	-7.86965
 137	1	3	0.019035	13.9979	-43.4801	-9.21564
 138	1	5	-0.389616	15.7235	-41.2297	-7.16545
 139	1	5	-0.380104	13.3146	-45.1738	-7.63069
 140	1	3	-0.045097	15.1936	-41.6011	-10.1812
 141	1	3	-0.056032	13.6106	-43.9438	-10.4803
 142	1	3	-0.174781	14.0274	-43.2093	-11.6152
 143	1	3	-0.129342	14.8383	-42.0496	-11.4739
 144	1	6	0.168842	15.843	-40.7383	-10.0384
 145	1	6	0.15893	13.0416	-44.8674	-10.5742
 146	1	6	0.147704	13.7791	-43.5836	-12.6062
 147	1	2	0.584577	15.4575	-41.3601	-12.6628
 148	1	3	-0.046755	14.6811	-41.1912	-13.942
 149	1	3	-0.110868	13.3032	-40.8787	-13.9117
 150	1	3	-0.046132	12.6698	-40.5762	-15.1249
 151	1	3	-0.135873	15.3655	-41.2151	-15.186
 152	1	3	-0.117662	14.6972	-40.9363	-16.3977
 153	1	3	-0.064457	13.3387	-40.6027	-16.3331
 154	1	2	0.492569	12.3887	-40.1785	-17.4036
 155	1	1	-0.072087	11.1995	-39.8906	-16.7482
 156	1	2	0.477555	11.2818	-40.1269	-15.38
 157	1	3	0.042617	9.97332	-39.5303	-17.3671
 158	1	3	-0.20367	9.20019	-38.4993	-16.8095
 159	1	3	-0.057018	7.81515	-38.4657	-17.0218
 160	1	3	-0.18182	9.39588	-40.3754	-18.3267
 161	1	3	-0.14326	8.00953	-40.3377	-18.5466
 162	1	3	0.043342	7.18905	-39.4727	-17.7878
 163	1	6	0.163244	9.63557	-37.8303	-16.0722
 164	1	6	0.101178	7.23456	-37.7525	-16.4472
 165	1	6	0.165346	15.2248	-40.9361	-17.35
 166	1	6	0.135111	16.4334	-41.4258	-15.2038
 167	1	6	0.171751	12.7538	-40.8003	-12.9745
 168	1	5	-0.478239	10.4097	-40.017	-14.5335
 169	1	5	-0.481107	12.6255	-40.1189	-18.5977
 170	1	5	-0.49957	16.5914	-40.9198	-12.5774
 171	1	6	0.151248	9.98197	-41.1778	-18.7697
 172	1	6	0.146138	7.56149	-41.1242	-19.1484
 173	1	7	0.044043	5.71973	-39.8774	-17.5304
 174	1	7	-0.215975	5.05247	-39.0797	-16.3743
 175	1	8	0.063789	4.94784	-38.0186	-16.6335
 176	1	8	0.072206	5.64316	-39.1574	-15.4522
 177	1	8	0.045489	4.05432	-39.4626	-16.1407
 178	1	7	0.005306	4.8171	-39.8514	-18.8031
 179	1	7	0.164932	3.9736	-41.172	-18.8255
 180	1	8	0.005277	5.45822	-39.8113	-19.6935
 181	1	8	0.017604	4.18162	-38.9569	-18.8398
 182	1	3	0.008363	4.7676	-42.0741	-17.8948
 183	1	7	-0.151488	3.88761	-41.741	-20.2625
 184	1	7	-0.269275	2.53991	-40.9535	-18.2809
 185	1	3	0.096378	5.70735	-41.3557	-17.1697
 186	1	8	0.063418	1.96537	-41.8876	-18.3142
 187	1	8	0.061085	2.00238	-40.2046	-18.8761
 188	1	8	0.065045	2.5485	-40.616	-17.2393
 189	1	3	-0.142025	4.70778	-43.4743	-17.7886
 190	1	3	-0.448546	6.6513	-42.011	-16.3609
 191	1	3	0.277842	6.67423	-43.4194	-16.3026
 192	1	3	-0.409063	5.66966	-44.1392	-16.996
 193	1	6	0.203923	7.43965	-41.434	-15.8814
 194	1	8	0.016419	3.30299	-42.6693	-20.2866
 195	1	8	0.049665	4.88676	-41.9615	-20.6591
 196	1	8	0.035794	3.40441	-41.0222	-20.9365
 197	1	6	0.161583	3.96934	-44.0363	-18.3568
 198	1	6	0.199011	5.66517	-45.2265	-16.9552
 199	1	1	0.463181	1.08883	-33.354	4.40605
 200	1	2	0.074399	1.11477	-34.2425	3.3266
 201	1	3	0.034296	2.52022	-34.6841	3.21192
 202	1	2	0.051625	2.33783	-33.2549	5.03449
 203	1	3	0.019035	3.25125	-34.122	4.237
 204	1	5	-0.389616	0.204457	-34.6034	2.59778
 205	1	5	-0.380104	2.66412	-32.5531	5.97808
 206	1	3	-0.045097	3.11934	-35.4428	2.20543
 207	1	3	-0.056032	4.63306	-34.3379	4.34022
 208	1	3	-0.174781	5.26148	-35.1267	3.34673
 209	1	3	-0.129342	4.51168	-35.6652	2.26477
 210	1	6	0.168842	2.5223	-35.8076	1.3708
 211	1	6	0.15893	5.20346	-33.8696	5.14007
 212	1	6	0.147704	6.34168	-35.2576	3.38033
 213	1	2	0.584577	5.15867	-36.3389	1.08308
 214	1	3	-0.046755	6.31882	-37.284	1.25569
 215	1	3	-0.110868	7.20245	-37.4686	0.166408
 216	1	3	-0.046132	8.23388	-38.4055	0.290964
 217	1	3	-0.135873	6.49024	-38.0561	2.4357
 218	1	3	-0.117662	7.53501	-39.0013	2.53695
 219	1	3	-0.064457	8.39642	-39.1519	1.44081
 220	1	2	0.492569	9.57939	-40.0359	1.24881
 221	1	1	-0.072087	10.0631	-39.7455	-0.0205956
 222	1	2	0.477555	9.30173	-38.7865	-0.670753
 223	1	3	0.042617	11.2647	-40.2789	-0.554549
 224	1	3	-0.20367	12.4872	-39.9736	0.0608504
 225	1	3	-0.057018	13.6891	-40.4504	-0.481346
 226	1	3	-0.18182	11.2587	-41.077	-1.71241
 227	1	3	-0.14326	12.4654	-41.5715	-2.24565
 228	1	3	0.043342	13.7017	-41.254	-1.64128
 229	1	6	0.163244	12.5086	-39.3619	0.95873
 230	1	6	0.101178	14.6224	-40.1981	0.0136944
 231	1	6	0.165346	7.66692	-39.6084	3.43116
 232	1	6	0.135111	5.79195	-37.9502	3.26319
 233	1	6	0.171751	7.08411	-36.9027	-0.757382
 234	1	5	-0.478239	9.48854	-38.2998	-1.7722
 235	1	5	-0.481107	10.044	-40.8056	2.07153
 236	1	5	-0.49957	4.71953	-36.1207	-0.034251
 237	1	6	0.151248	10.3169	-41.3133	-2.20152
 238	1	6	0.146138	12.4254	-42.2	-3.12917
 239	1	7	0.044043	15.0617	-41.7586	-2.16455
 240	1	7	-0.215975	15.929	-40.5538	-2.61954
 241	1	8	0.063789	16.1286	-39.8602	-1.79401
 242	1	8	0.072206	15.4206	-39.9905	-3.41291
 243	1	8	0.045489	16.8949	-40.8883	-3.018
 244	1	7	0.005306	15.772	-42.5689	-1.02945
 245	1	7	0.164932	16.3843	-43.8657	-1.63525
 246	1	8	0.005277	15.0323	-42.8533	-0.268843
 247	1	8	0.017604	16.5261	-41.964	-0.508527
 248	1	3	0.008363	15.7278	-43.9324	-2.99878
 249	1	7	-0.151488	16.0597	-45.105	-0.767496
 250	1	7	-0.269275	17.9194	-43.7223	-1.78419
 251	1	3	0.096378	15.0191	-42.7745	-3.30332
 252	1	8	0.063418	18.1754	-42.8595	-2.41201
 253	1	8	0.061085	18.3552	-44.6147	-2.2502
 254	1	8	0.065045	18.3983	-43.5835	-0.806685
 255	1	3	-0.142025	15.9086	-44.9419	-3.95584
 256	1	3	-0.448546	14.5586	-42.5514	-4.6147
 257	1	3	0.277842	14.7734	-43.528	-5.61574
 258	1	3	-0.409063	15.4178	-44.7361	-5.25847
 259	1	6	0.203923	14.1266	-41.5886	-4.87487
 260	1	8	0.016419	14.9756	-45.2558	-0.687231
 261	1	8	0.049665	16.4632	-44.9862	0.246247
 262	1	8	0.035794	16.496	-46.0142	-1.19957
 263	1	6	0.161583	16.4769	-45.8365	-3.70986
 264	1	6	0.199011	15.5992	-45.4934	-6.01859
 265	1	1	0.463181	2.62598	-15.3993	12.0578
 266	1	2	0.074399	3.56673	-16.2714	11.5103
 267	1	3	0.034296	3.14537	-17.6271	11.9666
 268	1	2	0.051625	1.66082	-16.0502	12.8208
 269	1	3	0.019035	2.00503	-17.487	12.7376
 270	1	5	-0.389616	4.50052	-16.0113	10.7701
 271	1	5	-0.380104	0.704064	-15.5698	13.4061
 272	1	3	-0.045097	3.68625	-18.8927	11.6921
 273	1	3	-0.056032	1.33099	-18.5885	13.2715
 274	1	3	-0.174781	1.83739	-19.8693	12.982
 275	1	3	-0.129342	3.00674	-20.0285	12.1953
 276	1	6	0.168842	4.57912	-18.9907	11.0769
 277	1	6	0.15893	0.433594	-18.4502	13.8711
 278	1	6	0.147704	1.32176	-20.7451	13.3723
 279	1	2	0.584577	3.4758	-21.4143	11.8568
 280	1	3	-0.046755	2.51505	-22.2972	11.1038
 281	1	3	-0.110868	2.54211	-23.7023	11.2792
 282	1	3	-0.046132	1.63647	-24.4818	10.5418
 283	1	3	-0.135873	1.59273	-21.7196	10.1903
 284	1	3	-0.117662	0.710646	-22.5225	9.44248
 285	1	3	-0.064457	0.758569	-23.9055	9.64314
 286	1	2	0.492569	-0.0264009	-24.9863	8.99674
 287	1	1	-0.072087	0.425253	-26.1664	9.56472
 288	1	2	0.477555	1.41841	-25.957	10.512
 289	1	3	0.042617	-0.0849235	-27.4335	9.18863
 290	1	3	-0.20367	-1.08657	-28.0522	9.95189
 291	1	3	-0.057018	-1.68556	-29.24	9.49888
 292	1	3	-0.18182	0.33236	-28.0285	7.98769
 293	1	3	-0.14326	-0.264214	-29.2182	7.53699
 294	1	3	0.043342	-1.29926	-29.8334	8.27709
 295	1	6	0.163244	-1.42539	-27.5969	10.8783
 296	1	6	0.101178	-2.48347	-29.6821	10.088
 297	1	6	0.165346	0.0167762	-22.0903	8.72328
 298	1	6	0.135111	1.57703	-20.6431	10.0345
 299	1	6	0.171751	3.24375	-24.1712	11.9683
 300	1	5	-0.478239	1.98546	-26.7869	11.2002
 301	1	5	-0.481107	-0.881944	-24.8409	8.14105
 302	1	5	-0.49957	4.58123	-21.8043	12.1897
 303	1	6	0.151248	1.09908	-27.5507	7.38337
 304	1	6	0.146138	0.0692931	-29.6322	6.59029
 305	1	7	0.044043	-2.05037	-31.0817	7.76676
 306	1	7	-0.215975	-1.97732	-32.2333	8.80417
 307	1	8	0.063789	-2.50829	-31.9754	9.72854
 308	1	8	0.072206	-0.935659	-32.4578	9.0654
 309	1	8	0.045489	-2.43114	-33.1495	8.40442
 310	1	7	0.005306	-3.53814	-30.7125	7.4494
 311	1	7	0.164932	-3.66132	-30.4545	5.91656
 312	1	8	0.005277	-3.89743	-29.8553	8.03319
 313	1	8	0.017604	-4.18188	-31.5594	7.722
 314	1	3	0.008363	-2.43285	-31.1605	5.38578
 315	1	7	-0.151488	-3.60226	-28.9449	5.58227
 316	1	7	-0.269275	-4.96723	-31.067	5.35156
 317	1	3	0.096378	-1.5654	-31.5501	6.39846
 318	1	8	0.063418	-5.00681	-32.1477	5.5404
 319	1	8	0.061085	-5.04013	-30.915	4.26755
 320	1	8	0.065045	-5.84837	-30.6074	5.81668
 321	1	3	-0.142025	-2.13152	-31.4206	4.04444
 322	1	3	-0.448546	-0.395351	-32.2777	6.10452
 323	1	3	0.277842	-0.077458	-32.5894	4.7593
 324	1	3	-0.409063	-0.94892	-32.1169	3.74388
 325	1	6	0.203923	0.263706	-32.5835	6.91282
 326	1	8	0.016419	-4.45721	-28.4121	6.01726
 327	1	8	0.049665	-3.62326	-28.7863	4.49646
 328	1	8	0.035794	-2.68356	-28.4873	5.96961
 329	1	6	0.161583	-2.8039	-31.0955	3.25325
 330	1	6	0.199011	-0.725339	-32.3187	2.6984
 331	1	1	0.463181	17.7188	-4.02757	17.0599
 332	1	2	0.074399	18.0595	-5.22504	16.4351
 333	1	3	0.034296	16.7699	-5.80003	15.978
 334	1	2	0.051625	16.3396	-3.81249	17.1025
 335	1	3	0.019035	15.7473	-4.9615	16.3714
 336	1	5	-0.389616	19.1706	-5.67688	16.2121
 337	1	5	-0.380104	15.7315	-2.86396	17.5721
 338	1	3	-0.045097	16.5302	-6.92461	15.1843
 339	1	3	-0.056032	14.4242	-5.19804	15.9847
 340	1	3	-0.174781	14.1606	-6.31618	15.1632
 341	1	3	-0.129342	15.2048	-7.19969	14.7635
 342	1	6	0.168842	17.3701	-7.53867	14.8619
 343	1	6	0.15893	13.6364	-4.50432	16.2725
 344	1	6	0.147704	13.1444	-6.45078	14.806
 345	1	2	0.584577	15.0022	-8.36427	13.8148
 346	1	3	-0.046755	13.6353	-8.77918	13.325
 347	1	3	-0.110868	12.507	-8.86037	14.1802
 348	1	3	-0.046132	11.2871	-9.28843	13.6324
 349	1	3	-0.135873	13.508	-9.17373	11.967
 350	1	3	-0.117662	12.2789	-9.61537	11.4424
 351	1	3	-0.064457	11.1814	-9.65843	12.3073
 352	1	2	0.492569	9.7804	-10.0695	12.0451
 353	1	1	-0.072087	9.09805	-9.89126	13.2452
 354	1	2	0.477555	9.94245	-9.43697	14.2556
 355	1	3	0.042617	7.69326	-10.1004	13.3951
 356	1	3	-0.20367	7.15539	-10.6946	14.5524
 357	1	3	-0.057018	5.76656	-10.886	14.6854
 358	1	3	-0.18182	6.8108	-9.71743	12.3704
 359	1	3	-0.14326	5.43192	-9.93679	12.4911
 360	1	3	0.043342	4.87619	-10.5008	13.6569
 361	1	6	0.163244	7.81223	-11.0048	15.3611
 362	1	6	0.101178	5.39918	-11.3415	15.5985
 363	1	6	0.165346	12.1805	-9.91749	10.4008
 364	1	6	0.135111	14.3789	-9.14053	11.3142
 365	1	6	0.171751	12.5712	-8.61818	15.2392
 366	1	5	-0.478239	9.66169	-9.15773	15.4086
 367	1	5	-0.481107	9.34971	-10.4629	10.9745
 368	1	5	-0.49957	15.9818	-8.92936	13.3551
 369	1	6	0.151248	7.18921	-9.26006	11.4598
 370	1	6	0.146138	4.79323	-9.65796	11.6626
 371	1	7	0.044043	3.34513	-10.6988	13.7482
 372	1	7	-0.215975	2.84711	-11.1086	15.1634
 373	1	8	0.063789	3.12015	-10.3547	15.9128
 374	1	8	0.072206	3.26397	-12.0738	15.4756
 375	1	8	0.045489	1.75412	-11.2141	15.1743
 376	1	7	0.005306	2.56277	-9.41732	13.2848
 377	1	7	0.164932	1.69426	-9.77481	12.0327
 378	1	8	0.005277	3.24603	-8.58871	13.0609
 379	1	8	0.017604	1.92363	-9.04105	14.0949
 380	1	3	0.008363	2.04183	-11.2289	11.7776
 381	1	7	-0.151488	2.0219	-8.87331	10.8166
 382	1	7	-0.269275	0.186859	-9.64506	12.3642
 383	1	3	0.096378	2.90214	-11.7436	12.7393
 384	1	8	0.063418	-0.432359	-9.92622	11.5031
 385	1	8	0.061085	-0.0685824	-8.61441	12.6408
 386	1	8	0.065045	-0.0872043	-10.3009	13.2009
 387	1	3	-0.142025	1.488	-12.0619	10.7927
 388	1	3	-0.448546	3.1857	-13.1191	12.7903
 389	1	3	0.277842	2.58227	-13.9888	11.8567
 390	1	3	-0.409063	1.76209	-13.4429	10.8407
 391	1	6	0.203923	3.79979	-13.5153	13.5929
 392	1	8	0.016419	1.8442	-7.81681	11.0554
 393	1	8	0.049665	1.39182	-9.13296	9.95676
 394	1	8	0.035794	3.06546	-8.97867	10.5023
 395	1	6	0.161583	0.802055	-11.6558	10.0524
 396	1	6	0.199011	1.27451	-14.1052	10.1296
 397	1	1	0.463181	8.38157	11.9981	22.1927
 398	1	2	0.074399	8.08338	10.8004	22.8388
 399	1	3	0.034296	9.17567	9.87191	22.4461
 400	1	2	0.051625	9.56043	11.9407	21.4535
 401	1	3	0.019035	10.0494	10.55	21.6186
 402	1	5	-0.389616	7.10053	10.5242	23.5068
 403	1	5	-0.380104	10.064	12.8082	20.7591
 404	1	3	-0.045097	9.34565	8.51239	22.7301
 405	1	3	-0.056032	11.1391	9.90912	21.023
 406	1	3	-0.174781	11.3163	8.53269	21.274
 407	1	3	-0.129342	10.4261	7.82176	22.127
 408	1	6	0.168842	8.62529	7.99756	23.3648
 409	1	6	0.15893	11.804	10.4582	20.3595
 410	1	6	0.147704	12.1427	8.02821	20.7828
 411	1	2	0.584577	10.5416	6.33385	22.3604
 412	1	3	-0.046755	11.2541	5.48531	21.3449
 413	1	3	-0.110868	12.6633	5.5089	21.2186
 414	1	3	-0.046132	13.2544	4.65277	20.2784
 415	1	3	-0.135873	10.4888	4.59515	20.5497
 416	1	3	-0.117662	11.1043	3.73933	19.6156
 417	1	3	-0.064457	12.4978	3.79254	19.5047
 418	1	2	0.492569	13.4215	2.96714	18.685
 419	1	1	-0.072087	14.6973	3.38295	19.0352
 420	1	2	0.477555	14.6882	4.41062	19.9663
 421	1	3	0.042617	15.8745	2.74169	18.5817
 422	1	3	-0.20367	16.8359	3.43126	17.8263
 423	1	3	-0.057018	17.994	2.76765	17.3846
 424	1	3	-0.18182	16.0929	1.39733	18.9135
 425	1	3	-0.14326	17.2566	0.742137	18.49
 426	1	3	0.043342	18.2172	1.40861	17.6951
 427	1	6	0.163244	16.6879	4.4798	17.5833
 428	1	6	0.101178	18.7267	3.32038	16.8048
 429	1	6	0.165346	10.525	3.03802	19.0173
 430	1	6	0.135111	9.40843	4.55829	20.6758
 431	1	6	0.171751	13.2834	6.14198	21.8508
 432	1	5	-0.478239	15.6403	4.98713	20.4626
 433	1	5	-0.481107	13.1034	2.07676	17.9157
 434	1	5	-0.49957	9.87556	5.79635	23.2291
 435	1	6	0.151248	15.3582	0.853091	19.5022
 436	1	6	0.146138	17.387	-0.291869	18.7918
 437	1	7	0.044043	19.4998	0.706947	17.2013
 438	1	7	-0.215975	19.695	0.887927	15.6711
 439	1	8	0.063789	19.8646	1.937	15.4014
 440	1	8	0.072206	18.813	0.535866	15.121
 441	1	8	0.045489	20.5611	0.312123	15.3192
 442	1	7	0.005306	20.7445	1.23503	17.9869
 443	1	7	0.164932	21.4256	0.0391104	18.7292
 444	1	8	0.005277	20.4406	2.00686	18.7068
 445	1	8	0.017604	21.4538	1.7257	17.3071
 446	1	3	0.008363	20.5398	-1.13833	18.3754
 447	1	7	-0.151488	21.4537	0.280247	20.2577
 448	1	7	-0.269275	22.8638	-0.187963	18.2057
 449	1	3	0.096378	19.5111	-0.778291	17.5191
 450	1	8	0.063418	22.8596	-0.371733	17.1234
 451	1	8	0.061085	23.327	-1.05557	18.6918
 452	1	8	0.065045	23.4956	0.687774	18.4008
 453	1	3	-0.142025	20.6759	-2.46694	18.8094
 454	1	3	-0.448546	18.5911	-1.73168	17.0566
 455	1	3	0.277842	18.6807	-3.06791	17.4996
 456	1	3	-0.409063	19.7382	-3.42439	18.3711
 457	1	6	0.203923	17.7823	-1.4224	16.3987
 458	1	8	0.016419	22.0362	1.17809	20.5013
 459	1	8	0.049665	21.9074	-0.569221	20.7829
 460	1	8	0.035794	20.438	0.41728	20.651
 461	1	6	0.161583	21.491	-2.74716	19.4733
 462	1	6	0.199011	19.8391	-4.45806	18.6962
 463	1	1	0.463181	-8.66609	16.457	22.0269
 464	1	2	0.074399	-9.00849	15.107	22.2185
 465	1	3	0.034296	-7.71402	14.3901	22.4165
 466	1	2	0.051625	-7.28692	16.6633	22.1545
 467	1	3	0.019035	-6.70932	15.3344	22.4101
 468	1	5	-0.389616	-10.1115	14.5838	22.1927
 469	1	5	-0.380104	-6.6209	17.6634	21.9402
 470	1	3	-0.045097	-7.41263	13.0165	22.4515
 471	1	3	-0.056032	-5.36355	14.9941	22.5017
 472	1	3	-0.174781	-5.03884	13.6317	22.5405
 473	1	3	-0.129342	-6.0463	12.6284	22.4739
 474	1	6	0.168842	-8.20861	12.2774	22.3715
 475	1	6	0.15893	-4.5952	15.7643	22.4807
 476	1	6	0.147704	-3.98524	13.3801	22.5698
 477	1	2	0.584577	-5.65907	11.1811	22.2672
 478	1	3	-0.046755	-4.42829	10.9931	21.4219
 479	1	3	-0.110868	-3.14154	11.1172	21.9966
 480	1	3	-0.046132	-2.0609	11.3682	21.1394
 481	1	3	-0.135873	-4.57535	10.996	20.0119
 482	1	3	-0.117662	-3.46736	11.2108	19.1672
 483	1	3	-0.064457	-2.22222	11.4339	19.7685
 484	1	2	0.492569	-0.955258	11.9409	19.175
 485	1	1	-0.072087	-0.115682	12.197	20.2511
 486	1	2	0.477555	-0.68695	11.8338	21.4641
 487	1	3	0.042617	1.13261	12.8691	20.1447
 488	1	3	-0.20367	2.28843	12.3098	20.7086
 489	1	3	-0.057018	3.51153	12.9968	20.6542
 490	1	3	-0.18182	1.22343	14.119	19.507
 491	1	3	-0.14326	2.45155	14.8019	19.4436
 492	1	3	0.043342	3.61443	14.2663	20.0395
 493	1	6	0.163244	2.2395	11.346	21.2086
 494	1	6	0.101178	4.37284	12.5216	21.1077
 495	1	6	0.165346	-3.5874	11.3013	18.0888
 496	1	6	0.135111	-5.57104	10.9277	19.5776
 497	1	6	0.171751	-3.00809	11.175	23.076
 498	1	5	-0.478239	-0.241119	12.0019	22.5857
 499	1	5	-0.481107	-0.770545	12.2064	17.9999
 500	1	5	-0.49957	-6.45694	10.2762	22.4376
 501	1	6	0.151248	0.339543	14.5647	19.0568
 502	1	6	0.146138	2.49163	15.7551	18.9255
 503	1	7	0.044043	4.95683	15.0339	19.9818
 504	1	7	-0.215975	5.57335	14.8996	18.5663
 505	1	8	0.063789	5.66321	13.8449	18.2776
 506	1	8	0.072206	6.57482	15.3475	18.5258
 507	1	8	0.045489	4.9458	15.3989	17.8171
 508	1	7	0.005306	4.80715	16.5399	20.3843
 509	1	7	0.164932	5.03473	16.6491	21.9221
 510	1	8	0.005277	3.85977	16.9958	20.0768
 511	1	8	0.017604	5.59545	17.1117	19.8756
 512	1	3	0.008363	5.88872	15.4229	22.1792
 513	1	7	-0.151488	3.69554	16.5809	22.6934
 514	1	7	-0.269275	5.78033	17.9581	22.2821
 515	1	3	0.096378	5.91357	14.5746	21.0776
 516	1	8	0.063418	6.76508	17.9943	21.7978
 517	1	8	0.061085	5.93773	18.0378	23.3649
 518	1	8	0.065045	5.20916	18.837	21.9577
 519	1	3	-0.142025	6.63634	15.1306	23.3307
 520	1	3	-0.448546	6.7517	13.4467	21.0618
 521	1	3	0.277842	7.52604	13.1373	22.2012
 522	1	3	-0.409063	7.44235	13.9747	23.3386
 523	1	6	0.203923	6.79294	12.813	20.1811
 524	1	8	0.016419	3.1424	15.664	22.4565
 525	1	8	0.049665	3.057	17.4364	22.438
 526	1	8	0.035794	3.86717	16.5999	23.7768
 527	1	6	0.161583	6.59621	15.7904	24.1947
 528	1	6	0.199011	8.02088	13.7335	24.2274
 529	1	1	0.463181	-13.7904	11.9814	28.5943
 530	1	2	0.074399	-14.7703	12.6371	29.338
 531	1	3	0.034296	-14.1906	13.969	29.6407
 532	1	2	0.051625	-12.6145	12.7187	28.4675
 533	1	3	0.019035	-12.9083	14.0143	29.1235
 534	1	5	-0.389616	-15.9225	12.2936	29.5449
 535	1	5	-0.380104	-11.6192	12.4549	27.8126
 536	1	3	-0.045097	-14.817	15.1115	30.1533
 537	1	3	-0.056032	-12.1636	15.1964	29.1078
 538	1	3	-0.174781	-12.7786	16.3628	29.6026
 539	1	3	-0.129342	-14.104	16.3305	30.1076
 540	1	6	0.168842	-15.8545	15.0678	30.4797
 541	1	6	0.15893	-11.1741	15.2197	28.6558
 542	1	6	0.147704	-12.2484	17.3115	29.5374
 543	1	2	0.584577	-14.8097	17.629	30.3658
 544	1	3	-0.046755	-15.2585	18.3416	29.1179
 545	1	3	-0.110868	-15.7313	17.5894	28.0168
 546	1	3	-0.046132	-15.9233	18.2404	26.7969
 547	1	3	-0.135873	-15.0479	19.737	28.9732
 548	1	3	-0.117662	-15.2247	20.3695	27.7236
 549	1	3	-0.064457	-15.6454	19.5823	26.6425
 550	1	2	0.492569	-15.6324	19.8778	25.1853
 551	1	1	-0.072087	-15.8317	18.6509	24.555
 552	1	2	0.477555	-16.1336	17.6404	25.4586
 553	1	3	0.042617	-15.3838	18.3944	23.2292
 554	1	3	-0.20367	-15.6479	19.2898	22.1803
 555	1	3	-0.057018	-14.9405	19.193	20.9696
 556	1	3	-0.18182	-14.4883	17.3349	23.0031
 557	1	3	-0.14326	-13.791	17.2356	21.7953
 558	1	3	0.043342	-13.9319	18.2155	20.7933
 559	1	6	0.163244	-16.3212	20.1289	22.3372
 560	1	6	0.101178	-15.1227	19.961	20.2294
 561	1	6	0.165346	-14.9588	21.4152	27.5776
 562	1	6	0.135111	-14.6521	20.3094	29.8102
 563	1	6	0.171751	-15.8603	16.5107	28.065
 564	1	5	-0.478239	-16.2998	16.4523	25.24
 565	1	5	-0.481107	-15.2795	20.9319	24.6834
 566	1	5	-0.49957	-14.7304	18.1883	31.4449
 567	1	6	0.151248	-14.2538	16.6263	23.7931
 568	1	6	0.146138	-13.0594	16.4417	21.6909
 569	1	7	0.044043	-12.8747	18.2613	19.6651
 570	1	7	-0.215975	-13.0463	17.065	18.695
 571	1	8	0.063789	-13.03	16.1087	19.2321
 572	1	8	0.072206	-12.2407	17.0431	17.9497
 573	1	8	0.045489	-14.0033	17.1339	18.1625
 574	1	7	0.005306	-12.8238	19.6194	18.8862
 575	1	7	0.164932	-11.8769	20.5902	19.6649
 576	1	8	0.005277	-13.8001	20.0572	18.6582
 577	1	8	0.017604	-12.3763	19.4194	17.9036
 578	1	3	0.008363	-11.0687	19.6172	20.4919
 579	1	7	-0.151488	-12.6192	21.6059	20.5669
 580	1	7	-0.269275	-10.9602	21.3492	18.675
 581	1	3	0.096378	-11.5046	18.308	20.3438
 582	1	8	0.063418	-10.3782	20.6443	18.0664
 583	1	8	0.061085	-10.247	21.9909	19.207
 584	1	8	0.065045	-11.5493	21.9795	17.9977
 585	1	3	-0.142025	-9.97166	19.9204	21.3022
 586	1	3	-0.448546	-10.7301	17.2404	20.8417
 587	1	3	0.277842	-9.56661	17.5048	21.6099
 588	1	3	-0.409063	-9.26287	18.8629	21.8924
 589	1	6	0.203923	-11.0341	16.2197	20.6321
 590	1	8	0.016419	-13.311	22.2236	19.981
 591	1	8	0.049665	-11.9036	22.2776	21.0583
 592	1	8	0.035794	-13.1835	21.1074	21.362
 593	1	6	0.161583	-9.66318	20.9528	21.4534
 594	1	6	0.199011	-8.40954	19.1175	22.5151
 595	1	1	0.463181	-17.4464	22.2564	15.1085
 596	1	2	0.074399	-17.2271	20.8828	15.3359
 597	1	3	0.034296	-18.138	20.4999	16.4567
 598	1	2	0.051625	-18.2899	22.801	16.0841
 599	1	3	0.019035	-18.7566	21.6518	16.897
 600	1	5	-0.389616	-16.5613	20.0967	14.6806
 601	1	5	-0.380104	-18.7533	23.9277	16.1527
 602	1	3	-0.045097	-18.5365	19.2281	16.9206
 603	1	3	-0.056032	-19.7996	21.613	17.8233
 604	1	3	-0.174781	-20.2303	20.3549	18.2796
 605	1	3	-0.129342	-19.625	19.1487	17.8347
 606	1	6	0.168842	-18.0604	18.3428	16.5111
 607	1	6	0.15893	-20.3064	22.5271	18.1241
 608	1	6	0.147704	-21.0769	20.3134	18.964
 609	1	2	0.584577	-20.244	17.8492	18.3231
 610	1	3	-0.046755	-19.4388	16.5904	18.4966
 611	1	3	-0.110868	-19.385	16.0174	19.7903
 612	1	3	-0.046132	-18.7118	14.8014	19.9612
 613	1	3	-0.135873	-18.8605	15.899	17.4005
 614	1	3	-0.117662	-18.1827	14.6761	17.5977
 615	1	3	-0.064457	-18.1185	14.158	18.8991
 616	1	2	0.492569	-17.4539	12.9341	19.4176
 617	1	1	-0.072087	-17.6688	12.9201	20.7988
 618	1	2	0.477555	-18.4655	13.9986	21.1896
 619	1	3	0.042617	-17.0203	12.0102	21.7042
 620	1	3	-0.20367	-16.6141	12.4329	22.9853
 621	1	3	-0.057018	-15.8153	11.6165	23.803
 622	1	3	-0.18182	-16.6417	10.7144	21.2997
 623	1	3	-0.14326	-15.7964	9.92055	22.0958
 624	1	3	0.043342	-15.3498	10.3592	23.3625
 625	1	6	0.163244	-16.8624	13.4269	23.348
 626	1	6	0.101178	-15.4982	12.0228	24.7537
 627	1	6	0.165346	-17.7312	14.1358	16.7674
 628	1	6	0.135111	-18.9694	16.2852	16.3905
 629	1	6	0.171751	-19.862	16.5033	20.6407
 630	1	5	-0.478239	-18.8756	14.2824	22.3018
 631	1	5	-0.481107	-16.8026	12.1635	18.7329
 632	1	5	-0.49957	-21.3816	17.8579	18.7653
 633	1	6	0.151248	-16.9312	10.3369	20.3231
 634	1	6	0.146138	-15.4383	8.99202	21.6682
 635	1	7	0.044043	-14.2118	9.62875	24.1228
 636	1	7	-0.215975	-12.8706	10.2108	23.604
 637	1	8	0.063789	-12.0169	9.81065	24.1656
 638	1	8	0.072206	-12.8526	11.3038	23.7058
 639	1	8	0.045489	-12.7258	9.97538	22.5421
 640	1	7	0.005306	-14.2166	8.06524	23.9825
 641	1	7	0.164932	-14.8761	7.45694	25.2547
 642	1	8	0.005277	-13.1736	7.72261	23.9404
 643	1	8	0.017604	-14.6838	7.68203	23.0722
 644	1	3	0.008363	-14.6545	8.56038	26.2631
 645	1	7	-0.151488	-14.1826	6.13343	25.6615
 646	1	7	-0.269275	-16.3908	7.22617	25.0482
 647	1	3	0.096378	-14.2969	9.75363	25.6448
 648	1	8	0.063418	-16.9002	8.16412	24.7915