

################################################################################
##################################    Init    ##################################
################################################################################
units           real
atom_style      full
pair_style      lj/cut/coul/long 12.0  12.0
kspace_style    pppm 1e-4
bond_style      harmonic
angle_style     harmonic
dihedral_style  fourier
improper_style  cvff
special_bonds   amber
pair_modify     mix arithmetic
read_data       temp.lmps
  orthogonal box = (-104.688 -104.688 -104.688) to (104.688 104.688 104.688)
  1 by 1 by 1 MPI processor grid
  reading atoms ...
  132 atoms
  reading velocities ...
  132 velocities
  scanning bonds ...
  3 = max bonds/atom
  scanning angles ...
  6 = max angles/atom
  scanning dihedrals ...
  24 = max dihedrals/atom
  scanning impropers ...
  2 = max impropers/atom
  reading bonds ...
  145 bonds
  reading angles ...
  254 angles
  reading dihedrals ...
  402 dihedrals
  reading impropers ...
  42 impropers
  4 = max # of 1-2 neighbors
  11 = max # of 1-3 neighbors
  23 = max # of 1-4 neighbors
  23 = max # of special neighbors
  special bonds CPU = 0.000332117 secs
  read_data CPU = 0.00454903 secs
################################################################################

timestep        1
fix             pysimm_md all nve/limit 0.1
run             2000
PPPM initialization ...
  using 12-bit tables for long-range coulomb (../kspace.cpp:332)
  G vector (1/distance) = 0.0324101
  grid = 5 5 5
  stencil order = 5
  estimated absolute RMS force accuracy = 0.0437745
  estimated relative force accuracy = 0.000131826
  using double precision KISS FFT
  3d grid and FFT values/proc = 1000 125
Neighbor list info ...
  update every 1 steps, delay 10 steps, check yes
  max neighbors/atom: 2000, page size: 100000
  master list distance cutoff = 14
  ghost atom cutoff = 14
  binsize = 7, bins = 30 30 30
  1 neighbor lists, perpetual/occasional/extra = 1 0 0
  (1) pair lj/cut/coul/long, perpetual
      attributes: half, newton on
      pair build: half/bin/newton
      stencil: half/bin/3d/newton
      bin: standard
Per MPI rank memory allocation (min/avg/max) = 17.98 | 17.98 | 17.98 Mbytes
Step Temp E_pair E_mol TotEng Press 
       0    1.4295706    141.43599    284.78978      426.784    0.8673907 
    2000    268.25058    83.830613    213.48133    402.06007  -0.98919564 
Loop time of 0.836884 on 1 procs for 2000 steps with 132 atoms

Performance: 206.480 ns/day, 0.116 hours/ns, 2389.817 timesteps/s
99.9% CPU use with 1 MPI tasks x no OpenMP threads

MPI task timing breakdown:
Section |  min time  |  avg time  |  max time  |%varavg| %total
---------------------------------------------------------------
Pair    | 0.30362    | 0.30362    | 0.30362    |   0.0 | 36.28
Bond    | 0.17945    | 0.17945    | 0.17945    |   0.0 | 21.44
Kspace  | 0.33116    | 0.33116    | 0.33116    |   0.0 | 39.57
Neigh   | 0.0081673  | 0.0081673  | 0.0081673  |   0.0 |  0.98
Comm    | 0.0010483  | 0.0010483  | 0.0010483  |   0.0 |  0.13
Output  | 1.3828e-05 | 1.3828e-05 | 1.3828e-05 |   0.0 |  0.00
Modify  | 0.0067451  | 0.0067451  | 0.0067451  |   0.0 |  0.81
Other   |            | 0.00668    |            |       |  0.80

Nlocal:    132 ave 132 max 132 min
Histogram: 1 0 0 0 0 0 0 0 0 0
Nghost:    0 ave 0 max 0 min
Histogram: 1 0 0 0 0 0 0 0 0 0
Neighs:    4534 ave 4534 max 4534 min
Histogram: 1 0 0 0 0 0 0 0 0 0

Total # of neighbors = 4534
Ave neighs/atom = 34.3485
Ave special neighs/atom = 11.3182
Neighbor list builds = 33
Dangerous builds = 0
unfix pysimm_md
min_style cg
minimize 0.001 0.001 10000 100000
WARNING: Using 'neigh_modify every 1 delay 0 check yes' setting during minimization (../min.cpp:190)
PPPM initialization ...
  using 12-bit tables for long-range coulomb (../kspace.cpp:332)
  G vector (1/distance) = 0.0324101
  grid = 5 5 5
  stencil order = 5
  estimated absolute RMS force accuracy = 0.0437745
  estimated relative force accuracy = 0.000131826
  using double precision KISS FFT
  3d grid and FFT values/proc = 1000 125
Per MPI rank memory allocation (min/avg/max) = 19.11 | 19.11 | 19.11 Mbytes
Step Temp E_pair E_mol TotEng Press 
    2000    268.25058    83.830613    213.48133    402.06007  -0.98919564 
    2010    268.25058    79.250282    150.60566    334.60407  -0.19655179 
Loop time of 0.0248249 on 1 procs for 10 steps with 132 atoms

100.7% CPU use with 1 MPI tasks x no OpenMP threads

Minimization stats:
  Stopping criterion = linesearch alpha is zero
  Energy initial, next-to-last, final = 
         297.311939944      229.855944937      229.855944937
  Force two-norm initial, final = 339.206 49.7448
  Force max component initial, final = 100.248 11.3967
  Final line search alpha, max atom move = 4.28037e-12 4.87821e-11
  Iterations, force evaluations = 10 79

MPI task timing breakdown:
Section |  min time  |  avg time  |  max time  |%varavg| %total
---------------------------------------------------------------
Pair    | 0.011743   | 0.011743   | 0.011743   |   0.0 | 47.30
Bond    | 0.0047054  | 0.0047054  | 0.0047054  |   0.0 | 18.95
Kspace  | 0.0081027  | 0.0081027  | 0.0081027  |   0.0 | 32.64
Neigh   | 0          | 0          | 0          |   0.0 |  0.00
Comm    | 2.6226e-05 | 2.6226e-05 | 2.6226e-05 |   0.0 |  0.11
Output  | 0          | 0          | 0          |   0.0 |  0.00
Modify  | 0          | 0          | 0          |   0.0 |  0.00
Other   |            | 0.0002477  |            |       |  1.00

Nlocal:    132 ave 132 max 132 min
Histogram: 1 0 0 0 0 0 0 0 0 0
Nghost:    0 ave 0 max 0 min
Histogram: 1 0 0 0 0 0 0 0 0 0
Neighs:    4542 ave 4542 max 4542 min
Histogram: 1 0 0 0 0 0 0 0 0 0

Total # of neighbors = 4542
Ave neighs/atom = 34.4091
Ave special neighs/atom = 11.3182
Neighbor list builds = 0
Dangerous builds = 0
write_dump all custom pysimm.dump.tmp id q x y z vx vy vz
quit


################################################################################
##################################    Init    ##################################
################################################################################
units           real
atom_style      full
pair_style      lj/cut/coul/long 12.0  12.0
kspace_style    pppm 1e-4
bond_style      harmonic
angle_style     harmonic
dihedral_style  fourier
improper_style  cvff
special_bonds   amber
pair_modify     mix arithmetic
read_data       temp.lmps
  orthogonal box = (-104.688 -104.688 -104.688) to (104.688 104.688 104.688)
  1 by 1 by 1 MPI processor grid
  reading atoms ...
  198 atoms
  reading velocities ...
  198 velocities
  scanning bonds ...
  3 = max bonds/atom
  scanning angles ...
  6 = max angles/atom
  scanning dihedrals ...
  24 = max dihedrals/atom
  scanning impropers ...
  2 = max impropers/atom
  reading bonds ...
  218 bonds
  reading angles ...
  383 angles
  reading dihedrals ...
  609 dihedrals
  reading impropers ...
  63 impropers
  4 = max # of 1-2 neighbors
  11 = max # of 1-3 neighbors
  23 = max # of 1-4 neighbors
  23 = max # of special neighbors
  special bonds CPU = 0.00029397 secs
  read_data CPU = 0.00499296 secs
################################################################################

timestep        1
fix             pysimm_md all nve/limit 0.1
run             2000
PPPM initialization ...
  using 12-bit tables for long-range coulomb (../kspace.cpp:332)
  G vector (1/distance) = 0.0599544
  grid = 10 10 10
  stencil order = 5
  estimated absolute RMS force accuracy = 0.0371671
  estimated relative force accuracy = 0.000111928
  using double precision KISS FFT
  3d grid and FFT values/proc = 3375 1000
Neighbor list info ...
  update every 1 steps, delay 10 steps, check yes
  max neighbors/atom: 2000, page size: 100000
  master list distance cutoff = 14
  ghost atom cutoff = 14
  binsize = 7, bins = 30 30 30
  1 neighbor lists, perpetual/occasional/extra = 1 0 0
  (1) pair lj/cut/coul/long, perpetual
      attributes: half, newton on
      pair build: half/bin/newton
      stencil: half/bin/3d/newton
      bin: standard
Per MPI rank memory allocation (min/avg/max) = 18.16 | 18.16 | 18.16 Mbytes
Step Temp E_pair E_mol TotEng Press 
       0    178.85518    1306.4563    396.19802    1807.6816    33.594894 
    2000    512.21241    159.57746    530.93242    991.29104   -1.2271206 
Loop time of 1.51545 on 1 procs for 2000 steps with 198 atoms

Performance: 114.026 ns/day, 0.210 hours/ns, 1319.741 timesteps/s
100.0% CPU use with 1 MPI tasks x no OpenMP threads

MPI task timing breakdown:
Section |  min time  |  avg time  |  max time  |%varavg| %total
---------------------------------------------------------------
Pair    | 0.41156    | 0.41156    | 0.41156    |   0.0 | 27.16
Bond    | 0.21084    | 0.21084    | 0.21084    |   0.0 | 13.91
Kspace  | 0.84741    | 0.84741    | 0.84741    |   0.0 | 55.92
Neigh   | 0.031484   | 0.031484   | 0.031484   |   0.0 |  2.08
Comm    | 0.0011821  | 0.0011821  | 0.0011821  |   0.0 |  0.08
Output  | 1.502e-05  | 1.502e-05  | 1.502e-05  |   0.0 |  0.00
Modify  | 0.0077972  | 0.0077972  | 0.0077972  |   0.0 |  0.51
Other   |            | 0.005153   |            |       |  0.34

Nlocal:    198 ave 198 max 198 min
Histogram: 1 0 0 0 0 0 0 0 0 0
Nghost:    0 ave 0 max 0 min
Histogram: 1 0 0 0 0 0 0 0 0 0
Neighs:    8094 ave 8094 max 8094 min
Histogram: 1 0 0 0 0 0 0 0 0 0

Total # of neighbors = 8094
Ave neighs/atom = 40.8788
Ave special neighs/atom = 11.404
Neighbor list builds = 93
Dangerous builds = 0
unfix pysimm_md
min_style cg
minimize 0.001 0.001 10000 100000
WARNING: Using 'neigh_modify every 1 delay 0 check yes' setting during minimization (../min.cpp:190)
PPPM initialization ...
  using 12-bit tables for long-range coulomb (../kspace.cpp:332)
  G vector (1/distance) = 0.0599544
  grid = 10 10 10
  stencil order = 5
  estimated absolute RMS force accuracy = 0.0371671
  estimated relative force accuracy = 0.000111928
  using double precision KISS FFT
  3d grid and FFT values/proc = 3375 1000
Per MPI rank memory allocation (min/avg/max) = 19.29 | 19.29 | 19.29 Mbytes
Step Temp E_pair E_mol TotEng Press 
    2000    512.21241    159.57746    530.93242    991.29104   -1.2271206 
    2016    512.21241    142.43057    259.50248    702.71421    1.6251441 
Loop time of 0.0629818 on 1 procs for 16 steps with 198 atoms

100.0% CPU use with 1 MPI tasks x no OpenMP threads

Minimization stats:
  Stopping criterion = linesearch alpha is zero
  Energy initial, next-to-last, final = 
         690.509880632      401.933053719      401.933053719
  Force two-norm initial, final = 610.12 61.9803
  Force max component initial, final = 114.019 16.896
  Final line search alpha, max atom move = 3.04617e-12 5.14682e-11
  Iterations, force evaluations = 16 91

MPI task timing breakdown:
Section |  min time  |  avg time  |  max time  |%varavg| %total
---------------------------------------------------------------
Pair    | 0.024716   | 0.024716   | 0.024716   |   0.0 | 39.24
Bond    | 0.0083756  | 0.0083756  | 0.0083756  |   0.0 | 13.30
Kspace  | 0.029438   | 0.029438   | 0.029438   |   0.0 | 46.74
Neigh   | 0          | 0          | 0          |   0.0 |  0.00
Comm    | 3.9816e-05 | 3.9816e-05 | 3.9816e-05 |   0.0 |  0.06
Output  | 0          | 0          | 0          |   0.0 |  0.00
Modify  | 0          | 0          | 0          |   0.0 |  0.00
Other   |            | 0.000412   |            |       |  0.65

Nlocal:    198 ave 198 max 198 min
Histogram: 1 0 0 0 0 0 0 0 0 0
Nghost:    0 ave 0 max 0 min
Histogram: 1 0 0 0 0 0 0 0 0 0
Neighs:    8095 ave 8095 max 8095 min
Histogram: 1 0 0 0 0 0 0 0 0 0

Total # of neighbors = 8095
Ave neighs/atom = 40.8838
Ave special neighs/atom = 11.404
Neighbor list builds = 0
Dangerous builds = 0
write_dump all custom pysimm.dump.tmp id q x y z vx vy vz
quit


################################################################################
##################################    Init    ##################################
################################################################################
units           real
atom_style      full
pair_style      lj/cut/coul/long 12.0  12.0
kspace_style    pppm 1e-4
bond_style      harmonic
angle_style     harmonic
dihedral_style  fourier
improper_style  cvff
special_bonds   amber
pair_modify     mix arithmetic
read_data       temp.lmps
  orthogonal box = (-104.688 -104.688 -104.688) to (104.688 104.688 104.688)
  1 by 1 by 1 MPI processor grid
  reading atoms ...
  264 atoms
  reading velocities ...
  264 velocities
  scanning bonds ...
  3 = max bonds/atom
  scanning angles ...
  6 = max angles/atom
  scanning dihedrals ...
  24 = max dihedrals/atom
  scanning impropers ...
  2 = max impropers/atom
  reading bonds ...
  291 bonds
  reading angles ...
  512 angles
  reading dihedrals ...
  816 dihedrals
  reading impropers ...
  84 impropers
  4 = max # of 1-2 neighbors
  11 = max # of 1-3 neighbors
  23 = max # of 1-4 neighbors
  23 = max # of special neighbors
  special bonds CPU = 0.000405073 secs
  read_data CPU = 0.00557494 secs
################################################################################

timestep        1
fix             pysimm_md all nve/limit 0.1
run             2000
PPPM initialization ...
  using 12-bit tables for long-range coulomb (../kspace.cpp:332)
  G vector (1/distance) = 0.0698004
  grid = 12 12 12
  stencil order = 5
  estimated absolute RMS force accuracy = 0.035705
  estimated relative force accuracy = 0.000107525
  using double precision KISS FFT
  3d grid and FFT values/proc = 4913 1728
Neighbor list info ...
  update every 1 steps, delay 10 steps, check yes
  max neighbors/atom: 2000, page size: 100000
  master list distance cutoff = 14
  ghost atom cutoff = 14
  binsize = 7, bins = 30 30 30
  1 neighbor lists, perpetual/occasional/extra = 1 0 0
  (1) pair lj/cut/coul/long, perpetual
      attributes: half, newton on
      pair build: half/bin/newton
      stencil: half/bin/3d/newton
      bin: standard
Per MPI rank memory allocation (min/avg/max) = 18.29 | 18.29 | 18.29 Mbytes
Step Temp E_pair E_mol TotEng Press 
       0    384.02838     27317.02    580.45691    28198.537    812.33909 
    2000    553.06666    203.12409    737.87839    1374.5808   0.35509641 
Loop time of 1.7172 on 1 procs for 2000 steps with 264 atoms

Performance: 100.629 ns/day, 0.238 hours/ns, 1164.690 timesteps/s
100.1% CPU use with 1 MPI tasks x no OpenMP threads

MPI task timing breakdown:
Section |  min time  |  avg time  |  max time  |%varavg| %total
---------------------------------------------------------------
Pair    | 0.47854    | 0.47854    | 0.47854    |   0.0 | 27.87
Bond    | 0.22549    | 0.22549    | 0.22549    |   0.0 | 13.13
Kspace  | 0.96267    | 0.96267    | 0.96267    |   0.0 | 56.06
Neigh   | 0.036644   | 0.036644   | 0.036644   |   0.0 |  2.13
Comm    | 0.0011432  | 0.0011432  | 0.0011432  |   0.0 |  0.07
Output  | 1.5974e-05 | 1.5974e-05 | 1.5974e-05 |   0.0 |  0.00
Modify  | 0.0082564  | 0.0082564  | 0.0082564  |   0.0 |  0.48
Other   |            | 0.004432   |            |       |  0.26

Nlocal:    264 ave 264 max 264 min
Histogram: 1 0 0 0 0 0 0 0 0 0
Nghost:    0 ave 0 max 0 min
Histogram: 1 0 0 0 0 0 0 0 0 0
Neighs:    11242 ave 11242 max 11242 min
Histogram: 1 0 0 0 0 0 0 0 0 0

Total # of neighbors = 11242
Ave neighs/atom = 42.5833
Ave special neighs/atom = 11.447
Neighbor list builds = 96
Dangerous builds = 0
unfix pysimm_md
min_style cg
minimize 0.001 0.001 10000 100000
WARNING: Using 'neigh_modify every 1 delay 0 check yes' setting during minimization (../min.cpp:190)
PPPM initialization ...
  using 12-bit tables for long-range coulomb (../kspace.cpp:332)
  G vector (1/distance) = 0.0698004
  grid = 12 12 12
  stencil order = 5
  estimated absolute RMS force accuracy = 0.035705
  estimated relative force accuracy = 0.000107525
  using double precision KISS FFT
  3d grid and FFT values/proc = 4913 1728
Per MPI rank memory allocation (min/avg/max) = 19.42 | 19.42 | 19.42 Mbytes
Step Temp E_pair E_mol TotEng Press 
    2000    553.06666    203.12409    737.87839    1374.5808   0.35509641 
    2019    553.06666    184.76154    346.25963    964.59946    3.4366972 
Loop time of 0.0941341 on 1 procs for 19 steps with 264 atoms

99.8% CPU use with 1 MPI tasks x no OpenMP threads

Minimization stats:
  Stopping criterion = linesearch alpha is zero
  Energy initial, next-to-last, final = 
         941.002476797      531.021167637      531.021167637
  Force two-norm initial, final = 840.624 50.0365
  Force max component initial, final = 146.816 9.63956
  Final line search alpha, max atom move = 2.63886e-12 2.54375e-11
  Iterations, force evaluations = 19 99

MPI task timing breakdown:
Section |  min time  |  avg time  |  max time  |%varavg| %total
---------------------------------------------------------------
Pair    | 0.036597   | 0.036597   | 0.036597   |   0.0 | 38.88
Bond    | 0.011805   | 0.011805   | 0.011805   |   0.0 | 12.54
Kspace  | 0.045171   | 0.045171   | 0.045171   |   0.0 | 47.99
Neigh   | 0          | 0          | 0          |   0.0 |  0.00
Comm    | 2.6941e-05 | 2.6941e-05 | 2.6941e-05 |   0.0 |  0.03
Output  | 0          | 0          | 0          |   0.0 |  0.00
Modify  | 0          | 0          | 0          |   0.0 |  0.00
Other   |            | 0.0005338  |            |       |  0.57

Nlocal:    264 ave 264 max 264 min
Histogram: 1 0 0 0 0 0 0 0 0 0
Nghost:    0 ave 0 max 0 min
Histogram: 1 0 0 0 0 0 0 0 0 0
Neighs:    11222 ave 11222 max 11222 min
Histogram: 1 0 0 0 0 0 0 0 0 0

Total # of neighbors = 11222
Ave neighs/atom = 42.5076
Ave special neighs/atom = 11.447
Neighbor list builds = 0
Dangerous builds = 0
write_dump all custom pysimm.dump.tmp id q x y z vx vy vz
quit


################################################################################
##################################    Init    ##################################
################################################################################
units           real
atom_style      full
pair_style      lj/cut/coul/long 12.0  12.0
kspace_style    pppm 1e-4
bond_style      harmonic
angle_style     harmonic
dihedral_style  fourier
improper_style  cvff
special_bonds   amber
pair_modify     mix arithmetic
read_data       temp.lmps
  orthogonal box = (-104.688 -104.688 -104.688) to (104.688 104.688 104.688)
  1 by 1 by 1 MPI processor grid
  reading atoms ...
  330 atoms
  reading velocities ...
  330 velocities
  scanning bonds ...
  3 = max bonds/atom
  scanning angles ...
  6 = max angles/atom
  scanning dihedrals ...
  24 = max dihedrals/atom
  scanning impropers ...
  2 = max impropers/atom
  reading bonds ...
  364 bonds
  reading angles ...
  641 angles
  reading dihedrals ...
  1023 dihedrals
  reading impropers ...
  105 impropers
  4 = max # of 1-2 neighbors
  11 = max # of 1-3 neighbors
  23 = max # of 1-4 neighbors
  23 = max # of special neighbors
  special bonds CPU = 0.000490904 secs
  read_data CPU = 0.00657105 secs
################################################################################

timestep        1
fix             pysimm_md all nve/limit 0.1
run             2000
PPPM initialization ...
WARNING: System is not charge neutral, net charge = -1e-05 (../kspace.cpp:313)
  using 12-bit tables for long-range coulomb (../kspace.cpp:332)
  G vector (1/distance) = 0.0833808
  grid = 15 15 15
  stencil order = 5
  estimated absolute RMS force accuracy = 0.0295912
  estimated relative force accuracy = 8.9113e-05
  using double precision KISS FFT
  3d grid and FFT values/proc = 8000 3375
Neighbor list info ...
  update every 1 steps, delay 10 steps, check yes
  max neighbors/atom: 2000, page size: 100000
  master list distance cutoff = 14
  ghost atom cutoff = 14
  binsize = 7, bins = 30 30 30
  1 neighbor lists, perpetual/occasional/extra = 1 0 0
  (1) pair lj/cut/coul/long, perpetual
      attributes: half, newton on
      pair build: half/bin/newton
      stencil: half/bin/3d/newton
      bin: standard
Per MPI rank memory allocation (min/avg/max) = 18.56 | 18.56 | 18.56 Mbytes
Step Temp E_pair E_mol TotEng Press 
       0    442.40181    282.85733    540.60779    1257.3226    3.6997931 
    2000    353.73389    249.40838    666.67243    1262.9829  -0.15317621 
Loop time of 2.59194 on 1 procs for 2000 steps with 330 atoms

Performance: 66.668 ns/day, 0.360 hours/ns, 771.621 timesteps/s
100.0% CPU use with 1 MPI tasks x no OpenMP threads

MPI task timing breakdown:
Section |  min time  |  avg time  |  max time  |%varavg| %total
---------------------------------------------------------------
Pair    | 0.59899    | 0.59899    | 0.59899    |   0.0 | 23.11
Bond    | 0.283      | 0.283      | 0.283      |   0.0 | 10.92
Kspace  | 1.6654     | 1.6654     | 1.6654     |   0.0 | 64.25
Neigh   | 0.027642   | 0.027642   | 0.027642   |   0.0 |  1.07
Comm    | 0.0010235  | 0.0010235  | 0.0010235  |   0.0 |  0.04
Output  | 2.0981e-05 | 2.0981e-05 | 2.0981e-05 |   0.0 |  0.00
Modify  | 0.010171   | 0.010171   | 0.010171   |   0.0 |  0.39
Other   |            | 0.005706   |            |       |  0.22

Nlocal:    330 ave 330 max 330 min
Histogram: 1 0 0 0 0 0 0 0 0 0
Nghost:    0 ave 0 max 0 min
Histogram: 1 0 0 0 0 0 0 0 0 0
Neighs:    13934 ave 13934 max 13934 min
Histogram: 1 0 0 0 0 0 0 0 0 0

Total # of neighbors = 13934
Ave neighs/atom = 42.2242
Ave special neighs/atom = 11.4727
Neighbor list builds = 58
Dangerous builds = 0
unfix pysimm_md
min_style cg
minimize 0.001 0.001 10000 100000
WARNING: Using 'neigh_modify every 1 delay 0 check yes' setting during minimization (../min.cpp:190)
PPPM initialization ...
  using 12-bit tables for long-range coulomb (../kspace.cpp:332)
  G vector (1/distance) = 0.0833808
  grid = 15 15 15
  stencil order = 5
  estimated absolute RMS force accuracy = 0.0295912
  estimated relative force accuracy = 8.9113e-05
  using double precision KISS FFT
  3d grid and FFT values/proc = 8000 3375
Per MPI rank memory allocation (min/avg/max) = 19.68 | 19.68 | 19.68 Mbytes
Step Temp E_pair E_mol TotEng Press 
    2000    353.73389    249.40838    666.67243    1262.9829  -0.15317621 
    2025    353.73389    233.22396    401.70482    981.83084    1.7769037 
Loop time of 0.0726838 on 1 procs for 25 steps with 330 atoms

99.0% CPU use with 1 MPI tasks x no OpenMP threads

Minimization stats:
  Stopping criterion = energy tolerance
  Energy initial, next-to-last, final = 
         916.080814176      635.546530446      634.928784118
  Force two-norm initial, final = 636.883 45.2973
  Force max component initial, final = 115.444 5.90704
  Final line search alpha, max atom move = 0.00457129 0.0270028
  Iterations, force evaluations = 25 50

MPI task timing breakdown:
Section |  min time  |  avg time  |  max time  |%varavg| %total
---------------------------------------------------------------
Pair    | 0.023074   | 0.023074   | 0.023074   |   0.0 | 31.75
Bond    | 0.0074711  | 0.0074711  | 0.0074711  |   0.0 | 10.28
Kspace  | 0.041698   | 0.041698   | 0.041698   |   0.0 | 57.37
Neigh   | 0          | 0          | 0          |   0.0 |  0.00
Comm    | 1.9073e-05 | 1.9073e-05 | 1.9073e-05 |   0.0 |  0.03
Output  | 0          | 0          | 0          |   0.0 |  0.00
Modify  | 0          | 0          | 0          |   0.0 |  0.00
Other   |            | 0.0004225  |            |       |  0.58

Nlocal:    330 ave 330 max 330 min
Histogram: 1 0 0 0 0 0 0 0 0 0
Nghost:    0 ave 0 max 0 min
Histogram: 1 0 0 0 0 0 0 0 0 0
Neighs:    13938 ave 13938 max 13938 min
Histogram: 1 0 0 0 0 0 0 0 0 0

Total # of neighbors = 13938
Ave neighs/atom = 42.2364
Ave special neighs/atom = 11.4727
Neighbor list builds = 0
Dangerous builds = 0
write_dump all custom pysimm.dump.tmp id q x y z vx vy vz
quit


################################################################################
##################################    Init    ##################################
################################################################################
units           real
atom_style      full
pair_style      lj/cut/coul/long 12.0  12.0
kspace_style    pppm 1e-4
bond_style      harmonic
angle_style     harmonic
dihedral_style  fourier
improper_style  cvff
special_bonds   amber
pair_modify     mix arithmetic
read_data       temp.lmps
  orthogonal box = (-104.688 -104.688 -104.688) to (104.688 104.688 104.688)
  1 by 1 by 1 MPI processor grid
  reading atoms ...
  396 atoms
  reading velocities ...
  396 velocities
  scanning bonds ...
  3 = max bonds/atom
  scanning angles ...
  6 = max angles/atom
  scanning dihedrals ...
  24 = max dihedrals/atom
  scanning impropers ...
  2 = max impropers/atom
  reading bonds ...
  437 bonds
  reading angles ...
  770 angles
  reading dihedrals ...
  1230 dihedrals
  reading impropers ...
  126 impropers
  4 = max # of 1-2 neighbors
  11 = max # of 1-3 neighbors
  23 = max # of 1-4 neighbors
  23 = max # of special neighbors
  special bonds CPU = 0.000448227 secs
  read_data CPU = 0.00659299 secs
################################################################################

timestep        1
fix             pysimm_md all nve/limit 0.1
run             2000
PPPM initialization ...
WARNING: System is not charge neutral, net charge = -1.2e-05 (../kspace.cpp:313)
  using 12-bit tables for long-range coulomb (../kspace.cpp:332)
  G vector (1/distance) = 0.0833782
  grid = 15 15 15
  stencil order = 5
  estimated absolute RMS force accuracy = 0.032412
  estimated relative force accuracy = 9.76079e-05
  using double precision KISS FFT
  3d grid and FFT values/proc = 8000 3375
Neighbor list info ...
  update every 1 steps, delay 10 steps, check yes
  max neighbors/atom: 2000, page size: 100000
  master list distance cutoff = 14
  ghost atom cutoff = 14
  binsize = 7, bins = 30 30 30
  1 neighbor lists, perpetual/occasional/extra = 1 0 0
  (1) pair lj/cut/coul/long, perpetual
      attributes: half, newton on
      pair build: half/bin/newton
      stencil: half/bin/3d/newton
      bin: standard
Per MPI rank memory allocation (min/avg/max) = 18.57 | 18.57 | 18.57 Mbytes
Step Temp E_pair E_mol TotEng Press 
       0    294.86586    8829.1132    681.34617    9857.6403    256.26894 
    2000    346.21215    318.46422     806.2506    1532.3519    1.3674591 
Loop time of 2.9465 on 1 procs for 2000 steps with 396 atoms

Performance: 58.646 ns/day, 0.409 hours/ns, 678.771 timesteps/s
99.9% CPU use with 1 MPI tasks x no OpenMP threads

MPI task timing breakdown:
Section |  min time  |  avg time  |  max time  |%varavg| %total
---------------------------------------------------------------
Pair    | 0.73533    | 0.73533    | 0.73533    |   0.0 | 24.96
Bond    | 0.34814    | 0.34814    | 0.34814    |   0.0 | 11.82
Kspace  | 1.7976     | 1.7976     | 1.7976     |   0.0 | 61.01
Neigh   | 0.045047   | 0.045047   | 0.045047   |   0.0 |  1.53
Comm    | 0.001725   | 0.001725   | 0.001725   |   0.0 |  0.06
Output  | 2.0027e-05 | 2.0027e-05 | 2.0027e-05 |   0.0 |  0.00
Modify  | 0.012507   | 0.012507   | 0.012507   |   0.0 |  0.42
Other   |            | 0.00612    |            |       |  0.21

Nlocal:    396 ave 396 max 396 min
Histogram: 1 0 0 0 0 0 0 0 0 0
Nghost:    9 ave 9 max 9 min
Histogram: 1 0 0 0 0 0 0 0 0 0
Neighs:    17140 ave 17140 max 17140 min
Histogram: 1 0 0 0 0 0 0 0 0 0

Total # of neighbors = 17140
Ave neighs/atom = 43.2828
Ave special neighs/atom = 11.4899
Neighbor list builds = 76
Dangerous builds = 0
unfix pysimm_md
min_style cg
minimize 0.001 0.001 10000 100000
WARNING: Using 'neigh_modify every 1 delay 0 check yes' setting during minimization (../min.cpp:190)
PPPM initialization ...
  using 12-bit tables for long-range coulomb (../kspace.cpp:332)
  G vector (1/distance) = 0.0833782
  grid = 15 15 15
  stencil order = 5
  estimated absolute RMS force accuracy = 0.032412
  estimated relative force accuracy = 9.76079e-05
  using double precision KISS FFT
  3d grid and FFT values/proc = 8000 3375
Per MPI rank memory allocation (min/avg/max) = 19.69 | 19.69 | 19.69 Mbytes
Step Temp E_pair E_mol TotEng Press 
    2000    346.21215    318.46422     806.2506    1532.3519    1.3674591 
    2032    346.21215    292.71936    472.94933    1173.3058    2.4152013 
Loop time of 0.103071 on 1 procs for 32 steps with 396 atoms

99.9% CPU use with 1 MPI tasks x no OpenMP threads

Minimization stats:
  Stopping criterion = energy tolerance
  Energy initial, next-to-last, final = 
         1124.71481756      766.009497765      765.668692409
  Force two-norm initial, final = 670.143 40.1326
  Force max component initial, final = 131.783 6.81652
  Final line search alpha, max atom move = 0.00384339 0.0261986
  Iterations, force evaluations = 32 64

MPI task timing breakdown:
Section |  min time  |  avg time  |  max time  |%varavg| %total
---------------------------------------------------------------
Pair    | 0.036522   | 0.036522   | 0.036522   |   0.0 | 35.43
Bond    | 0.011426   | 0.011426   | 0.011426   |   0.0 | 11.09
Kspace  | 0.054476   | 0.054476   | 0.054476   |   0.0 | 52.85
Neigh   | 0          | 0          | 0          |   0.0 |  0.00
Comm    | 3.8147e-05 | 3.8147e-05 | 3.8147e-05 |   0.0 |  0.04
Output  | 0          | 0          | 0          |   0.0 |  0.00
Modify  | 0          | 0          | 0          |   0.0 |  0.00
Other   |            | 0.0006092  |            |       |  0.59

Nlocal:    396 ave 396 max 396 min
Histogram: 1 0 0 0 0 0 0 0 0 0
Nghost:    9 ave 9 max 9 min
Histogram: 1 0 0 0 0 0 0 0 0 0
Neighs:    17138 ave 17138 max 17138 min
Histogram: 1 0 0 0 0 0 0 0 0 0

Total # of neighbors = 17138
Ave neighs/atom = 43.2778
Ave special neighs/atom = 11.4899
Neighbor list builds = 0
Dangerous builds = 0
write_dump all custom pysimm.dump.tmp id q x y z vx vy vz
quit


################################################################################
##################################    Init    ##################################
################################################################################
units           real
atom_style      full
pair_style      lj/cut/coul/long 12.0  12.0
kspace_style    pppm 1e-4
bond_style      harmonic
angle_style     harmonic
dihedral_style  fourier
improper_style  cvff
special_bonds   amber
pair_modify     mix arithmetic
read_data       temp.lmps
  orthogonal box = (-104.688 -104.688 -104.688) to (104.688 104.688 104.688)
  1 by 1 by 1 MPI processor grid
  reading atoms ...
  462 atoms
  reading velocities ...
  462 velocities
  scanning bonds ...
  3 = max bonds/atom
  scanning angles ...
  6 = max angles/atom
  scanning dihedrals ...
  24 = max dihedrals/atom
  scanning impropers ...
  2 = max impropers/atom
  reading bonds ...
  510 bonds
  reading angles ...
  899 angles
  reading dihedrals ...
  1437 dihedrals
  reading impropers ...
  147 impropers
  4 = max # of 1-2 neighbors
  11 = max # of 1-3 neighbors
  23 = max # of 1-4 neighbors
  23 = max # of special neighbors
  special bonds CPU = 0.000610113 secs
  read_data CPU = 0.00709295 secs
################################################################################

timestep        1
fix             pysimm_md all nve/limit 0.1
run             2000
PPPM initialization ...
WARNING: System is not charge neutral, net charge = -1.4e-05 (../kspace.cpp:313)
  using 12-bit tables for long-range coulomb (../kspace.cpp:332)
  G vector (1/distance) = 0.083379
  grid = 15 15 15
  stencil order = 5
  estimated absolute RMS force accuracy = 0.0350102
  estimated relative force accuracy = 0.000105432
  using double precision KISS FFT
  3d grid and FFT values/proc = 8000 3375
Neighbor list info ...
  update every 1 steps, delay 10 steps, check yes
  max neighbors/atom: 2000, page size: 100000
  master list distance cutoff = 14
  ghost atom cutoff = 14
  binsize = 7, bins = 30 30 30
  1 neighbor lists, perpetual/occasional/extra = 1 0 0
  (1) pair lj/cut/coul/long, perpetual
      attributes: half, newton on
      pair build: half/bin/newton
      stencil: half/bin/3d/newton
      bin: standard
Per MPI rank memory allocation (min/avg/max) = 18.58 | 18.58 | 18.58 Mbytes
Step Temp E_pair E_mol TotEng Press 
       0    296.84913    719.18918    702.63028    1829.7357    12.271727 
    2000    298.89042     363.2779    811.10002    1585.0992    2.3851263 
Loop time of 3.11692 on 1 procs for 2000 steps with 462 atoms

Performance: 55.439 ns/day, 0.433 hours/ns, 641.659 timesteps/s
100.0% CPU use with 1 MPI tasks x no OpenMP threads

MPI task timing breakdown:
Section |  min time  |  avg time  |  max time  |%varavg| %total
---------------------------------------------------------------
Pair    | 0.82626    | 0.82626    | 0.82626    |   0.0 | 26.51
Bond    | 0.39673    | 0.39673    | 0.39673    |   0.0 | 12.73
Kspace  | 1.8281     | 1.8281     | 1.8281     |   0.0 | 58.65
Neigh   | 0.043121   | 0.043121   | 0.043121   |   0.0 |  1.38
Comm    | 0.0022781  | 0.0022781  | 0.0022781  |   0.0 |  0.07
Output  | 1.9073e-05 | 1.9073e-05 | 1.9073e-05 |   0.0 |  0.00
Modify  | 0.013968   | 0.013968   | 0.013968   |   0.0 |  0.45
Other   |            | 0.006428   |            |       |  0.21

Nlocal:    462 ave 462 max 462 min
Histogram: 1 0 0 0 0 0 0 0 0 0
Nghost:    64 ave 64 max 64 min
Histogram: 1 0 0 0 0 0 0 0 0 0
Neighs:    19883 ave 19883 max 19883 min
Histogram: 1 0 0 0 0 0 0 0 0 0

Total # of neighbors = 19883
Ave neighs/atom = 43.0368
Ave special neighs/atom = 11.5022
Neighbor list builds = 63
Dangerous builds = 0
unfix pysimm_md
min_style cg
minimize 0.001 0.001 10000 100000
WARNING: Using 'neigh_modify every 1 delay 0 check yes' setting during minimization (../min.cpp:190)
PPPM initialization ...
  using 12-bit tables for long-range coulomb (../kspace.cpp:332)
  G vector (1/distance) = 0.083379
  grid = 15 15 15
  stencil order = 5
  estimated absolute RMS force accuracy = 0.0350102
  estimated relative force accuracy = 0.000105432
  using double precision KISS FFT
  3d grid and FFT values/proc = 8000 3375
Per MPI rank memory allocation (min/avg/max) = 19.7 | 19.7 | 19.7 Mbytes
Step Temp E_pair E_mol TotEng Press 
    2000    298.89042     363.2779    811.10002    1585.0992    2.3851263 
    2018    298.89042    349.20975    531.84656    1291.7776    3.2378744 
Loop time of 0.063997 on 1 procs for 18 steps with 462 atoms

100.0% CPU use with 1 MPI tasks x no OpenMP threads

Minimization stats:
  Stopping criterion = energy tolerance
  Energy initial, next-to-last, final = 
         1174.37791946      881.562306862      881.056306536
  Force two-norm initial, final = 700.069 50.0885
  Force max component initial, final = 112.705 6.78701
  Final line search alpha, max atom move = 0.0046119 0.0313011
  Iterations, force evaluations = 18 36

MPI task timing breakdown:
Section |  min time  |  avg time  |  max time  |%varavg| %total
---------------------------------------------------------------
Pair    | 0.022947   | 0.022947   | 0.022947   |   0.0 | 35.86
Bond    | 0.0075908  | 0.0075908  | 0.0075908  |   0.0 | 11.86
Kspace  | 0.033031   | 0.033031   | 0.033031   |   0.0 | 51.61
Neigh   | 0          | 0          | 0          |   0.0 |  0.00
Comm    | 3.4332e-05 | 3.4332e-05 | 3.4332e-05 |   0.0 |  0.05
Output  | 0          | 0          | 0          |   0.0 |  0.00
Modify  | 0          | 0          | 0          |   0.0 |  0.00
Other   |            | 0.0003941  |            |       |  0.62

Nlocal:    462 ave 462 max 462 min
Histogram: 1 0 0 0 0 0 0 0 0 0
Nghost:    64 ave 64 max 64 min
Histogram: 1 0 0 0 0 0 0 0 0 0
Neighs:    19873 ave 19873 max 19873 min
Histogram: 1 0 0 0 0 0 0 0 0 0

Total # of neighbors = 19873
Ave neighs/atom = 43.0152
Ave special neighs/atom = 11.5022
Neighbor list builds = 0
Dangerous builds = 0
write_dump all custom pysimm.dump.tmp id q x y z vx vy vz
quit


################################################################################
##################################    Init    ##################################
################################################################################
units           real
atom_style      full
pair_style      lj/cut/coul/long 12.0  12.0
kspace_style    pppm 1e-4
bond_style      harmonic
angle_style     harmonic
dihedral_style  fourier
improper_style  cvff
special_bonds   amber
pair_modify     mix arithmetic
read_data       temp.lmps
  orthogonal box = (-104.688 -104.688 -104.688) to (104.688 104.688 104.688)
  1 by 1 by 1 MPI processor grid
  reading atoms ...
  528 atoms
  reading velocities ...
  528 velocities
  scanning bonds ...
  3 = max bonds/atom
  scanning angles ...
  6 = max angles/atom
  scanning dihedrals ...
  24 = max dihedrals/atom
  scanning impropers ...
  2 = max impropers/atom
  reading bonds ...
  583 bonds
  reading angles ...
  1028 angles
  reading dihedrals ...
  1644 dihedrals
  reading impropers ...
  168 impropers
  4 = max # of 1-2 neighbors
  11 = max # of 1-3 neighbors
  23 = max # of 1-4 neighbors
  23 = max # of special neighbors
  special bonds CPU = 0.000552893 secs
  read_data CPU = 0.00744081 secs
################################################################################

timestep        1
fix             pysimm_md all nve/limit 0.1
run             2000
PPPM initialization ...
WARNING: System is not charge neutral, net charge = -1.6e-05 (../kspace.cpp:313)
  using 12-bit tables for long-range coulomb (../kspace.cpp:332)
  G vector (1/distance) = 0.0876041
  grid = 16 16 16
  stencil order = 5
  estimated absolute RMS force accuracy = 0.033729
  estimated relative force accuracy = 0.000101574
  using double precision KISS FFT
  3d grid and FFT values/proc = 9261 4096
Neighbor list info ...
  update every 1 steps, delay 10 steps, check yes
  max neighbors/atom: 2000, page size: 100000
  master list distance cutoff = 14
  ghost atom cutoff = 14
  binsize = 7, bins = 30 30 30
  1 neighbor lists, perpetual/occasional/extra = 1 0 0
  (1) pair lj/cut/coul/long, perpetual
      attributes: half, newton on
      pair build: half/bin/newton
      stencil: half/bin/3d/newton
      bin: standard
Per MPI rank memory allocation (min/avg/max) = 18.7 | 18.7 | 18.7 Mbytes
Step Temp E_pair E_mol TotEng Press 
       0    261.63596    1189.4154    785.62393    2386.0398    25.923328 
    2000    327.65731    425.02973    986.21275     1925.955   0.34283707 
Loop time of 3.66287 on 1 procs for 2000 steps with 528 atoms

Performance: 47.176 ns/day, 0.509 hours/ns, 546.019 timesteps/s
100.0% CPU use with 1 MPI tasks x no OpenMP threads

MPI task timing breakdown:
Section |  min time  |  avg time  |  max time  |%varavg| %total
---------------------------------------------------------------
Pair    | 0.98405    | 0.98405    | 0.98405    |   0.0 | 26.87
Bond    | 0.45285    | 0.45285    | 0.45285    |   0.0 | 12.36
Kspace  | 2.1271     | 2.1271     | 2.1271     |   0.0 | 58.07
Neigh   | 0.073503   | 0.073503   | 0.073503   |   0.0 |  2.01
Comm    | 0.0030296  | 0.0030296  | 0.0030296  |   0.0 |  0.08
Output  | 2.0981e-05 | 2.0981e-05 | 2.0981e-05 |   0.0 |  0.00
Modify  | 0.015944   | 0.015944   | 0.015944   |   0.0 |  0.44
Other   |            | 0.006389   |            |       |  0.17

Nlocal:    528 ave 528 max 528 min
Histogram: 1 0 0 0 0 0 0 0 0 0
Nghost:    128 ave 128 max 128 min
Histogram: 1 0 0 0 0 0 0 0 0 0
Neighs:    25014 ave 25014 max 25014 min
Histogram: 1 0 0 0 0 0 0 0 0 0

Total # of neighbors = 25014
Ave neighs/atom = 47.375
Ave special neighs/atom = 11.5114
Neighbor list builds = 89
Dangerous builds = 0
unfix pysimm_md
min_style cg
minimize 0.001 0.001 10000 100000
WARNING: Using 'neigh_modify every 1 delay 0 check yes' setting during minimization (../min.cpp:190)
PPPM initialization ...
  using 12-bit tables for long-range coulomb (../kspace.cpp:332)
  G vector (1/distance) = 0.0876041
  grid = 16 16 16
  stencil order = 5
  estimated absolute RMS force accuracy = 0.033729
  estimated relative force accuracy = 0.000101574
  using double precision KISS FFT
  3d grid and FFT values/proc = 9261 4096
Per MPI rank memory allocation (min/avg/max) = 19.82 | 19.82 | 19.82 Mbytes
Step Temp E_pair E_mol TotEng Press 
    2000    327.65731    425.02973    986.21275     1925.955   0.34283707 
    2026    327.65731     404.0019    617.06937    1535.7838    2.8932047 
Loop time of 0.111312 on 1 procs for 26 steps with 528 atoms

99.7% CPU use with 1 MPI tasks x no OpenMP threads

Minimization stats:
  Stopping criterion = energy tolerance
  Energy initial, next-to-last, final = 
         1411.24247306      1021.60753923      1021.07127375
  Force two-norm initial, final = 773.467 44.2007
  Force max component initial, final = 133.689 5.77633
  Final line search alpha, max atom move = 0.00428645 0.02476
  Iterations, force evaluations = 26 52

MPI task timing breakdown:
Section |  min time  |  avg time  |  max time  |%varavg| %total
---------------------------------------------------------------
Pair    | 0.042346   | 0.042346   | 0.042346   |   0.0 | 38.04
Bond    | 0.012816   | 0.012816   | 0.012816   |   0.0 | 11.51
Kspace  | 0.055447   | 0.055447   | 0.055447   |   0.0 | 49.81
Neigh   | 0          | 0          | 0          |   0.0 |  0.00
Comm    | 5.9843e-05 | 5.9843e-05 | 5.9843e-05 |   0.0 |  0.05
Output  | 0          | 0          | 0          |   0.0 |  0.00
Modify  | 0          | 0          | 0          |   0.0 |  0.00
Other   |            | 0.0006435  |            |       |  0.58

Nlocal:    528 ave 528 max 528 min
Histogram: 1 0 0 0 0 0 0 0 0 0
Nghost:    128 ave 128 max 128 min
Histogram: 1 0 0 0 0 0 0 0 0 0
Neighs:    25036 ave 25036 max 25036 min
Histogram: 1 0 0 0 0 0 0 0 0 0

Total # of neighbors = 25036
Ave neighs/atom = 47.4167
Ave special neighs/atom = 11.5114
Neighbor list builds = 0
Dangerous builds = 0
write_dump all custom pysimm.dump.tmp id q x y z vx vy vz
quit


################################################################################
##################################    Init    ##################################
################################################################################
units           real
atom_style      full
pair_style      lj/cut/coul/long 12.0  12.0
kspace_style    pppm 1e-4
bond_style      harmonic
angle_style     harmonic
dihedral_style  fourier
improper_style  cvff
special_bonds   amber
pair_modify     mix arithmetic
read_data       temp.lmps
  orthogonal box = (-104.688 -104.688 -104.688) to (104.688 104.688 104.688)
  1 by 1 by 1 MPI processor grid
  reading atoms ...
  594 atoms
  reading velocities ...
  594 velocities
  scanning bonds ...
  3 = max bonds/atom
  scanning angles ...
  6 = max angles/atom
  scanning dihedrals ...
  24 = max dihedrals/atom
  scanning impropers ...
  2 = max impropers/atom
  reading bonds ...
  656 bonds
  reading angles ...
  1157 angles
  reading dihedrals ...
  1851 dihedrals
  reading impropers ...
  189 impropers
  4 = max # of 1-2 neighbors
  11 = max # of 1-3 neighbors
  23 = max # of 1-4 neighbors
  23 = max # of special neighbors
  special bonds CPU = 0.000544071 secs
  read_data CPU = 0.0077498 secs
################################################################################

timestep        1
fix             pysimm_md all nve/limit 0.1
run             2000
PPPM initialization ...
WARNING: System is not charge neutral, net charge = -1.8e-05 (../kspace.cpp:313)
  using 12-bit tables for long-range coulomb (../kspace.cpp:332)
  G vector (1/distance) = 0.0876036
  grid = 16 16 16
  stencil order = 5
  estimated absolute RMS force accuracy = 0.0357743
  estimated relative force accuracy = 0.000107733
  using double precision KISS FFT
  3d grid and FFT values/proc = 9261 4096
Neighbor list info ...
  update every 1 steps, delay 10 steps, check yes
  max neighbors/atom: 2000, page size: 100000
  master list distance cutoff = 14
  ghost atom cutoff = 14
  binsize = 7, bins = 30 30 30
  1 neighbor lists, perpetual/occasional/extra = 1 0 0
  (1) pair lj/cut/coul/long, perpetual
      attributes: half, newton on
      pair build: half/bin/newton
      stencil: half/bin/3d/newton
      bin: standard
Per MPI rank memory allocation (min/avg/max) = 18.7 | 18.7 | 18.7 Mbytes
Step Temp E_pair E_mol TotEng Press 
       0    291.34751      642.828    898.27614    2056.0959     7.388172 
    2000    242.50798    461.26642    1025.2032    1915.1317   -2.1684244 
Loop time of 3.93906 on 1 procs for 2000 steps with 594 atoms

Performance: 43.868 ns/day, 0.547 hours/ns, 507.735 timesteps/s
100.0% CPU use with 1 MPI tasks x no OpenMP threads

MPI task timing breakdown:
Section |  min time  |  avg time  |  max time  |%varavg| %total
---------------------------------------------------------------
Pair    | 1.1656     | 1.1656     | 1.1656     |   0.0 | 29.59
Bond    | 0.50765    | 0.50765    | 0.50765    |   0.0 | 12.89
Kspace  | 2.173      | 2.173      | 2.173      |   0.0 | 55.16
Neigh   | 0.064573   | 0.064573   | 0.064573   |   0.0 |  1.64
Comm    | 0.0032904  | 0.0032904  | 0.0032904  |   0.0 |  0.08
Output  | 1.9073e-05 | 1.9073e-05 | 1.9073e-05 |   0.0 |  0.00
Modify  | 0.017578   | 0.017578   | 0.017578   |   0.0 |  0.45
Other   |            | 0.007395   |            |       |  0.19

Nlocal:    594 ave 594 max 594 min
Histogram: 1 0 0 0 0 0 0 0 0 0
Nghost:    138 ave 138 max 138 min
Histogram: 1 0 0 0 0 0 0 0 0 0
Neighs:    30191 ave 30191 max 30191 min
Histogram: 1 0 0 0 0 0 0 0 0 0

Total # of neighbors = 30191
Ave neighs/atom = 50.8266
Ave special neighs/atom = 11.5185
Neighbor list builds = 67
Dangerous builds = 0
unfix pysimm_md
min_style cg
minimize 0.001 0.001 10000 100000
WARNING: Using 'neigh_modify every 1 delay 0 check yes' setting during minimization (../min.cpp:190)
PPPM initialization ...
  using 12-bit tables for long-range coulomb (../kspace.cpp:332)
  G vector (1/distance) = 0.0876036
  grid = 16 16 16
  stencil order = 5
  estimated absolute RMS force accuracy = 0.0357743
  estimated relative force accuracy = 0.000107733
  using double precision KISS FFT
  3d grid and FFT values/proc = 9261 4096
Per MPI rank memory allocation (min/avg/max) = 19.83 | 19.83 | 19.83 Mbytes
Step Temp E_pair E_mol TotEng Press 
    2000    242.50798    461.26642    1025.2032    1915.1317   -2.1684244 
    2023    242.50798    450.94878    670.19821     1549.809    2.0908651 
Loop time of 0.106683 on 1 procs for 23 steps with 594 atoms

100.3% CPU use with 1 MPI tasks x no OpenMP threads

Minimization stats:
  Stopping criterion = energy tolerance
  Energy initial, next-to-last, final = 
         1486.46964483      1121.93727024      1121.14699453
  Force two-norm initial, final = 706.022 56.1228
  Force max component initial, final = 96.1333 6.68256
  Final line search alpha, max atom move = 0.0034671 0.0231691
  Iterations, force evaluations = 23 46

MPI task timing breakdown:
Section |  min time  |  avg time  |  max time  |%varavg| %total
---------------------------------------------------------------
Pair    | 0.043453   | 0.043453   | 0.043453   |   0.0 | 40.73
Bond    | 0.012497   | 0.012497   | 0.012497   |   0.0 | 11.71
Kspace  | 0.050033   | 0.050033   | 0.050033   |   0.0 | 46.90
Neigh   | 0          | 0          | 0          |   0.0 |  0.00
Comm    | 6.5565e-05 | 6.5565e-05 | 6.5565e-05 |   0.0 |  0.06
Output  | 0          | 0          | 0          |   0.0 |  0.00
Modify  | 0          | 0          | 0          |   0.0 |  0.00
Other   |            | 0.000634   |            |       |  0.59

Nlocal:    594 ave 594 max 594 min
Histogram: 1 0 0 0 0 0 0 0 0 0
Nghost:    138 ave 138 max 138 min
Histogram: 1 0 0 0 0 0 0 0 0 0
Neighs:    30190 ave 30190 max 30190 min
Histogram: 1 0 0 0 0 0 0 0 0 0

Total # of neighbors = 30190
Ave neighs/atom = 50.8249
Ave special neighs/atom = 11.5185
Neighbor list builds = 0
Dangerous builds = 0
write_dump all custom pysimm.dump.tmp id q x y z vx vy vz
quit


################################################################################
##################################    Init    ##################################
################################################################################
units           real
atom_style      full
pair_style      lj/cut/coul/long 12.0  12.0
kspace_style    pppm 1e-4
bond_style      harmonic
angle_style     harmonic
dihedral_style  fourier
improper_style  cvff
special_bonds   amber
pair_modify     mix arithmetic
read_data       temp.lmps
  orthogonal box = (-104.688 -104.688 -104.688) to (104.688 104.688 104.688)
  1 by 1 by 1 MPI processor grid
  reading atoms ...
  660 atoms
  reading velocities ...
  660 velocities
  scanning bonds ...
  3 = max bonds/atom
  scanning angles ...
  6 = max angles/atom
  scanning dihedrals ...
  24 = max dihedrals/atom
  scanning impropers ...
  2 = max impropers/atom
  reading bonds ...
  729 bonds
  reading angles ...
  1286 angles
  reading dihedrals ...
  2058 dihedrals
  reading impropers ...
  210 impropers
  4 = max # of 1-2 neighbors
  11 = max # of 1-3 neighbors
  23 = max # of 1-4 neighbors
  23 = max # of special neighbors
  special bonds CPU = 0.000722885 secs
  read_data CPU = 0.00914598 secs
################################################################################

timestep        1
fix             pysimm_md all nve/limit 0.1
run             2000
PPPM initialization ...
WARNING: System is not charge neutral, net charge = -2e-05 (../kspace.cpp:313)
  using 12-bit tables for long-range coulomb (../kspace.cpp:332)
  G vector (1/distance) = 0.0956335
  grid = 18 18 18
  stencil order = 5
  estimated absolute RMS force accuracy = 0.0305098
  estimated relative force accuracy = 9.18794e-05
  using double precision KISS FFT
  3d grid and FFT values/proc = 12167 5832
Neighbor list info ...
  update every 1 steps, delay 10 steps, check yes
  max neighbors/atom: 2000, page size: 100000
  master list distance cutoff = 14
  ghost atom cutoff = 14
  binsize = 7, bins = 30 30 30
  1 neighbor lists, perpetual/occasional/extra = 1 0 0
  (1) pair lj/cut/coul/long, perpetual
      attributes: half, newton on
      pair build: half/bin/newton
      stencil: half/bin/3d/newton
      bin: standard
Per MPI rank memory allocation (min/avg/max) = 18.97 | 18.97 | 18.97 Mbytes
Step Temp E_pair E_mol TotEng Press 
       0    218.36245    3219.6746    960.44985    4609.0656    82.407003 
    2000     261.9969    517.59441    1127.3504    2159.5994    1.6158947 
Loop time of 5.33872 on 1 procs for 2000 steps with 660 atoms

Performance: 32.367 ns/day, 0.741 hours/ns, 374.622 timesteps/s
100.0% CPU use with 1 MPI tasks x no OpenMP threads

MPI task timing breakdown:
Section |  min time  |  avg time  |  max time  |%varavg| %total
---------------------------------------------------------------
Pair    | 1.4388     | 1.4388     | 1.4388     |   0.0 | 26.95
Bond    | 0.58395    | 0.58395    | 0.58395    |   0.0 | 10.94
Kspace  | 3.1815     | 3.1815     | 3.1815     |   0.0 | 59.59
Neigh   | 0.1032     | 0.1032     | 0.1032     |   0.0 |  1.93
Comm    | 0.0036106  | 0.0036106  | 0.0036106  |   0.0 |  0.07
Output  | 2.0027e-05 | 2.0027e-05 | 2.0027e-05 |   0.0 |  0.00
Modify  | 0.020387   | 0.020387   | 0.020387   |   0.0 |  0.38
Other   |            | 0.007188   |            |       |  0.13

Nlocal:    660 ave 660 max 660 min
Histogram: 1 0 0 0 0 0 0 0 0 0
Nghost:    133 ave 133 max 133 min
Histogram: 1 0 0 0 0 0 0 0 0 0
Neighs:    34460 ave 34460 max 34460 min
Histogram: 1 0 0 0 0 0 0 0 0 0

Total # of neighbors = 34460
Ave neighs/atom = 52.2121
Ave special neighs/atom = 11.5242
Neighbor list builds = 90
Dangerous builds = 0
unfix pysimm_md
min_style cg
minimize 0.001 0.001 10000 100000
WARNING: Using 'neigh_modify every 1 delay 0 check yes' setting during minimization (../min.cpp:190)
PPPM initialization ...
  using 12-bit tables for long-range coulomb (../kspace.cpp:332)
  G vector (1/distance) = 0.0956335
  grid = 18 18 18
  stencil order = 5
  estimated absolute RMS force accuracy = 0.0305098
  estimated relative force accuracy = 9.18794e-05
  using double precision KISS FFT
  3d grid and FFT values/proc = 12167 5832
Per MPI rank memory allocation (min/avg/max) = 20.1 | 20.1 | 20.1 Mbytes
Step Temp E_pair E_mol TotEng Press 
    2000     261.9969    517.59441    1127.3504    2159.5994    1.6158947 
    2029     261.9969    490.90572    749.63732    1755.1977     2.667943 
Loop time of 0.168366 on 1 procs for 29 steps with 660 atoms

100.4% CPU use with 1 MPI tasks x no OpenMP threads

Minimization stats:
  Stopping criterion = energy tolerance
  Energy initial, next-to-last, final = 
         1644.94480651      1241.53868761      1240.54303625
  Force two-norm initial, final = 759.155 41.6344
  Force max component initial, final = 117.916 5.93133
  Final line search alpha, max atom move = 0.00478598 0.0283872
  Iterations, force evaluations = 29 58

MPI task timing breakdown:
Section |  min time  |  avg time  |  max time  |%varavg| %total
---------------------------------------------------------------
Pair    | 0.062716   | 0.062716   | 0.062716   |   0.0 | 37.25
Bond    | 0.01732    | 0.01732    | 0.01732    |   0.0 | 10.29
Kspace  | 0.086322   | 0.086322   | 0.086322   |   0.0 | 51.27
Neigh   | 0.0010428  | 0.0010428  | 0.0010428  |   0.0 |  0.62
Comm    | 7.534e-05  | 7.534e-05  | 7.534e-05  |   0.0 |  0.04
Output  | 0          | 0          | 0          |   0.0 |  0.00
Modify  | 0          | 0          | 0          |   0.0 |  0.00
Other   |            | 0.0008903  |            |       |  0.53

Nlocal:    660 ave 660 max 660 min
Histogram: 1 0 0 0 0 0 0 0 0 0
Nghost:    133 ave 133 max 133 min
Histogram: 1 0 0 0 0 0 0 0 0 0
Neighs:    34433 ave 34433 max 34433 min
Histogram: 1 0 0 0 0 0 0 0 0 0

Total # of neighbors = 34433
Ave neighs/atom = 52.1712
Ave special neighs/atom = 11.5242
Neighbor list builds = 1
Dangerous builds = 0
write_dump all custom pysimm.dump.tmp id q x y z vx vy vz
quit


################################################################################
##################################    Init    ##################################
################################################################################
units           real
atom_style      full
pair_style      lj/cut/coul/long 12.0  12.0
kspace_style    pppm 1e-4
bond_style      harmonic
angle_style     harmonic
dihedral_style  fourier
improper_style  cvff
special_bonds   amber
pair_modify     mix arithmetic
read_data       temp.lmps
  orthogonal box = (-131.899 -131.899 -131.899) to (131.899 131.899 131.899)
  1 by 1 by 1 MPI processor grid
  reading atoms ...
  726 atoms
  reading velocities ...
  726 velocities
  scanning bonds ...
  3 = max bonds/atom
  scanning angles ...
  6 = max angles/atom
  scanning dihedrals ...
  24 = max dihedrals/atom
  scanning impropers ...
  2 = max impropers/atom
  reading bonds ...
  802 bonds
  reading angles ...
  1415 angles
  reading dihedrals ...
  2265 dihedrals
  reading impropers ...
  231 impropers
  4 = max # of 1-2 neighbors
  11 = max # of 1-3 neighbors
  23 = max # of 1-4 neighbors
  23 = max # of special neighbors
  special bonds CPU = 0.000679016 secs
  read_data CPU = 0.00931501 secs
################################################################################

timestep        1
fix             pysimm_md all nve/limit 0.1
run             2000
PPPM initialization ...
WARNING: System is not charge neutral, net charge = -2.2e-05 (../kspace.cpp:313)
  using 12-bit tables for long-range coulomb (../kspace.cpp:332)
  G vector (1/distance) = 0.0802743
  grid = 18 18 18
  stencil order = 5
  estimated absolute RMS force accuracy = 0.0333872
  estimated relative force accuracy = 0.000100545
  using double precision KISS FFT
  3d grid and FFT values/proc = 12167 5832
Neighbor list info ...
  update every 1 steps, delay 10 steps, check yes
  max neighbors/atom: 2000, page size: 100000
  master list distance cutoff = 14
  ghost atom cutoff = 14
  binsize = 7, bins = 38 38 38
  1 neighbor lists, perpetual/occasional/extra = 1 0 0
  (1) pair lj/cut/coul/long, perpetual
      attributes: half, newton on
      pair build: half/bin/newton
      stencil: half/bin/3d/newton
      bin: standard
Per MPI rank memory allocation (min/avg/max) = 19.12 | 19.12 | 19.12 Mbytes
Step Temp E_pair E_mol TotEng Press 
       0     238.2753    518.30539    396288.53    397321.77   -1026.3705 
    2000    1485.2333    607.63949    2114.2759    5931.6342   -2.5102577 
Loop time of 5.41638 on 1 procs for 2000 steps with 726 atoms

Performance: 31.903 ns/day, 0.752 hours/ns, 369.250 timesteps/s
100.0% CPU use with 1 MPI tasks x no OpenMP threads

MPI task timing breakdown:
Section |  min time  |  avg time  |  max time  |%varavg| %total
---------------------------------------------------------------
Pair    | 1.615      | 1.615      | 1.615      |   0.0 | 29.82
Bond    | 0.60695    | 0.60695    | 0.60695    |   0.0 | 11.21
Kspace  | 2.9709     | 2.9709     | 2.9709     |   0.0 | 54.85
Neigh   | 0.19521    | 0.19521    | 0.19521    |   0.0 |  3.60
Comm    | 0.0025396  | 0.0025396  | 0.0025396  |   0.0 |  0.05
Output  | 2.0027e-05 | 2.0027e-05 | 2.0027e-05 |   0.0 |  0.00
Modify  | 0.021269   | 0.021269   | 0.021269   |   0.0 |  0.39
Other   |            | 0.004534   |            |       |  0.08

Nlocal:    726 ave 726 max 726 min
Histogram: 1 0 0 0 0 0 0 0 0 0
Nghost:    0 ave 0 max 0 min
Histogram: 1 0 0 0 0 0 0 0 0 0
Neighs:    36854 ave 36854 max 36854 min
Histogram: 1 0 0 0 0 0 0 0 0 0

Total # of neighbors = 36854
Ave neighs/atom = 50.7631
Ave special neighs/atom = 11.5289
Neighbor list builds = 169
Dangerous builds = 0
unfix pysimm_md
min_style cg
minimize 0.001 0.001 10000 100000
WARNING: Using 'neigh_modify every 1 delay 0 check yes' setting during minimization (../min.cpp:190)
PPPM initialization ...
  using 12-bit tables for long-range coulomb (../kspace.cpp:332)
  G vector (1/distance) = 0.0802743
  grid = 18 18 18
  stencil order = 5
  estimated absolute RMS force accuracy = 0.0333872
  estimated relative force accuracy = 0.000100545
  using double precision KISS FFT
  3d grid and FFT values/proc = 12167 5832
Per MPI rank memory allocation (min/avg/max) = 20.24 | 20.24 | 20.24 Mbytes
Step Temp E_pair E_mol TotEng Press 
    2000    1485.2333    607.63949    2114.2759    5931.6342   -2.5102577 
    2039    1485.2333    578.31207    990.21244    4778.2434    7.3936076 
Loop time of 0.239845 on 1 procs for 39 steps with 726 atoms

100.0% CPU use with 1 MPI tasks x no OpenMP threads

Minimization stats:
  Stopping criterion = energy tolerance
  Energy initial, next-to-last, final = 
         2721.91535991      1569.39463561      1568.52450825
  Force two-norm initial, final = 1122.51 82.2653
  Force max component initial, final = 156.945 11.505
  Final line search alpha, max atom move = 0.00223825 0.0257511
  Iterations, force evaluations = 39 78

MPI task timing breakdown:
Section |  min time  |  avg time  |  max time  |%varavg| %total
---------------------------------------------------------------
Pair    | 0.092676   | 0.092676   | 0.092676   |   0.0 | 38.64
Bond    | 0.026172   | 0.026172   | 0.026172   |   0.0 | 10.91
Kspace  | 0.11854    | 0.11854    | 0.11854    |   0.0 | 49.42
Neigh   | 0.001112   | 0.001112   | 0.001112   |   0.0 |  0.46
Comm    | 4.6015e-05 | 4.6015e-05 | 4.6015e-05 |   0.0 |  0.02
Output  | 0          | 0          | 0          |   0.0 |  0.00
Modify  | 0          | 0          | 0          |   0.0 |  0.00
Other   |            | 0.001297   |            |       |  0.54

Nlocal:    726 ave 726 max 726 min
Histogram: 1 0 0 0 0 0 0 0 0 0
Nghost:    0 ave 0 max 0 min
Histogram: 1 0 0 0 0 0 0 0 0 0
Neighs:    36905 ave 36905 max 36905 min
Histogram: 1 0 0 0 0 0 0 0 0 0

Total # of neighbors = 36905
Ave neighs/atom = 50.8333
Ave special neighs/atom = 11.5289
Neighbor list builds = 1
Dangerous builds = 0
write_dump all custom pysimm.dump.tmp id q x y z vx vy vz
quit


################################################################################
##################################    Init    ##################################
################################################################################
units           real
atom_style      full
pair_style      lj/cut/coul/long 12.0  12.0
kspace_style    pppm 1e-4
bond_style      harmonic
angle_style     harmonic
dihedral_style  fourier
improper_style  cvff
special_bonds   amber
pair_modify     mix arithmetic
read_data       temp.lmps
  orthogonal box = (-136.157 -136.157 -136.157) to (136.157 136.157 136.157)
  1 by 1 by 1 MPI processor grid
  reading atoms ...
  792 atoms
  reading velocities ...
  792 velocities
  scanning bonds ...
  3 = max bonds/atom
  scanning angles ...
  6 = max angles/atom
  scanning dihedrals ...
  24 = max dihedrals/atom
  scanning impropers ...
  2 = max impropers/atom
  reading bonds ...
  875 bonds
  reading angles ...
  1544 angles
  reading dihedrals ...
  2472 dihedrals
  reading impropers ...
  252 impropers
  4 = max # of 1-2 neighbors
  11 = max # of 1-3 neighbors
  23 = max # of 1-4 neighbors
  23 = max # of special neighbors
  special bonds CPU = 0.000772238 secs
  read_data CPU = 0.0101659 secs
################################################################################

timestep        1
fix             pysimm_md all nve/limit 0.1
run             2000
PPPM initialization ...
WARNING: System is not charge neutral, net charge = -2.4e-05 (../kspace.cpp:313)
  using 12-bit tables for long-range coulomb (../kspace.cpp:332)
  G vector (1/distance) = 0.0782915
  grid = 18 18 18
  stencil order = 5
  estimated absolute RMS force accuracy = 0.0347888
  estimated relative force accuracy = 0.000104765
  using double precision KISS FFT
  3d grid and FFT values/proc = 12167 5832
Neighbor list info ...
  update every 1 steps, delay 10 steps, check yes
  max neighbors/atom: 2000, page size: 100000
  master list distance cutoff = 14
  ghost atom cutoff = 14
  binsize = 7, bins = 39 39 39
  1 neighbor lists, perpetual/occasional/extra = 1 0 0
  (1) pair lj/cut/coul/long, perpetual
      attributes: half, newton on
      pair build: half/bin/newton
      stencil: half/bin/3d/newton
      bin: standard
Per MPI rank memory allocation (min/avg/max) = 19.15 | 19.15 | 19.15 Mbytes
Step Temp E_pair E_mol TotEng Press 
       0    1361.4257    606.67204    198211.59    202028.26   -466.95951 
    2000    1280.4944    696.75218    2798.3845     6514.313   -7.3748355 
Loop time of 5.58332 on 1 procs for 2000 steps with 792 atoms

Performance: 30.949 ns/day, 0.775 hours/ns, 358.210 timesteps/s
100.1% CPU use with 1 MPI tasks x no OpenMP threads

MPI task timing breakdown:
Section |  min time  |  avg time  |  max time  |%varavg| %total
---------------------------------------------------------------
Pair    | 1.6263     | 1.6263     | 1.6263     |   0.0 | 29.13
Bond    | 0.65615    | 0.65615    | 0.65615    |   0.0 | 11.75
Kspace  | 3.072      | 3.072      | 3.072      |   0.0 | 55.02
Neigh   | 0.19802    | 0.19802    | 0.19802    |   0.0 |  3.55
Comm    | 0.0028207  | 0.0028207  | 0.0028207  |   0.0 |  0.05
Output  | 2.1935e-05 | 2.1935e-05 | 2.1935e-05 |   0.0 |  0.00
Modify  | 0.02289    | 0.02289    | 0.02289    |   0.0 |  0.41
Other   |            | 0.005082   |            |       |  0.09

Nlocal:    792 ave 792 max 792 min
Histogram: 1 0 0 0 0 0 0 0 0 0
Nghost:    0 ave 0 max 0 min
Histogram: 1 0 0 0 0 0 0 0 0 0
Neighs:    39121 ave 39121 max 39121 min
Histogram: 1 0 0 0 0 0 0 0 0 0

Total # of neighbors = 39121
Ave neighs/atom = 49.3952
Ave special neighs/atom = 11.5328
Neighbor list builds = 165
Dangerous builds = 0
unfix pysimm_md
min_style cg
minimize 0.001 0.001 10000 100000
WARNING: Using 'neigh_modify every 1 delay 0 check yes' setting during minimization (../min.cpp:190)
PPPM initialization ...
  using 12-bit tables for long-range coulomb (../kspace.cpp:332)
  G vector (1/distance) = 0.0782915
  grid = 18 18 18
  stencil order = 5
  estimated absolute RMS force accuracy = 0.0347888
  estimated relative force accuracy = 0.000104765
  using double precision KISS FFT
  3d grid and FFT values/proc = 12167 5832
Per MPI rank memory allocation (min/avg/max) = 20.27 | 20.27 | 20.27 Mbytes
Step Temp E_pair E_mol TotEng Press 
    2000    1280.4944    696.75218    2798.3845     6514.313   -7.3748355 
    2059    1280.4944    591.53522    1086.2741    4696.9856    2.7038031 
Loop time of 0.56022 on 1 procs for 59 steps with 792 atoms

100.1% CPU use with 1 MPI tasks x no OpenMP threads

Minimization stats:
  Stopping criterion = linesearch alpha is zero
  Energy initial, next-to-last, final = 
         3495.13672802      1677.80928267      1677.80928267
  Force two-norm initial, final = 1309.95 83.8462
  Force max component initial, final = 153.585 11.3648
  Final line search alpha, max atom move = 1.61404e-12 1.83432e-11
  Iterations, force evaluations = 59 176

MPI task timing breakdown:
Section |  min time  |  avg time  |  max time  |%varavg| %total
---------------------------------------------------------------
Pair    | 0.21816    | 0.21816    | 0.21816    |   0.0 | 38.94
Bond    | 0.062643   | 0.062643   | 0.062643   |   0.0 | 11.18
Kspace  | 0.27179    | 0.27179    | 0.27179    |   0.0 | 48.51
Neigh   | 0.0048652  | 0.0048652  | 0.0048652  |   0.0 |  0.87
Comm    | 0.00011325 | 0.00011325 | 0.00011325 |   0.0 |  0.02
Output  | 0          | 0          | 0          |   0.0 |  0.00
Modify  | 0          | 0          | 0          |   0.0 |  0.00
Other   |            | 0.00265    |            |       |  0.47

Nlocal:    792 ave 792 max 792 min
Histogram: 1 0 0 0 0 0 0 0 0 0
Nghost:    0 ave 0 max 0 min
Histogram: 1 0 0 0 0 0 0 0 0 0
Neighs:    39703 ave 39703 max 39703 min
Histogram: 1 0 0 0 0 0 0 0 0 0

Total # of neighbors = 39703
Ave neighs/atom = 50.1301
Ave special neighs/atom = 11.5328
Neighbor list builds = 4
Dangerous builds = 0
write_dump all custom pysimm.dump.tmp id q x y z vx vy vz
quit


################################################################################
##################################    Init    ##################################
################################################################################
units           real
atom_style      full
pair_style      lj/cut/coul/long 12.0  12.0
kspace_style    pppm 1e-4
bond_style      harmonic
angle_style     harmonic
dihedral_style  fourier
improper_style  cvff
special_bonds   amber
pair_modify     mix arithmetic
read_data       temp.lmps
  orthogonal box = (-140.164 -140.164 -140.164) to (140.164 140.164 140.164)
  1 by 1 by 1 MPI processor grid
  reading atoms ...
  858 atoms
  reading velocities ...
  858 velocities
  scanning bonds ...
  3 = max bonds/atom
  scanning angles ...
  6 = max angles/atom
  scanning dihedrals ...
  24 = max dihedrals/atom
  scanning impropers ...
  2 = max impropers/atom
  reading bonds ...
  948 bonds
  reading angles ...
  1673 angles
  reading dihedrals ...
  2679 dihedrals
  reading impropers ...
  273 impropers
  4 = max # of 1-2 neighbors
  11 = max # of 1-3 neighbors
  23 = max # of 1-4 neighbors
  23 = max # of special neighbors
  special bonds CPU = 0.000747919 secs
  read_data CPU = 0.009969 secs
################################################################################

timestep        1
fix             pysimm_md all nve/limit 0.1
run             2000
PPPM initialization ...
WARNING: System is not charge neutral, net charge = -2.6e-05 (../kspace.cpp:313)
  using 12-bit tables for long-range coulomb (../kspace.cpp:332)
  G vector (1/distance) = 0.0765102
  grid = 18 18 18
  stencil order = 5
  estimated absolute RMS force accuracy = 0.0360721
  estimated relative force accuracy = 0.00010863
  using double precision KISS FFT
  3d grid and FFT values/proc = 12167 5832
Neighbor list info ...
  update every 1 steps, delay 10 steps, check yes
  max neighbors/atom: 2000, page size: 100000
  master list distance cutoff = 14
  ghost atom cutoff = 14
  binsize = 7, bins = 41 41 41
  1 neighbor lists, perpetual/occasional/extra = 1 0 0
  (1) pair lj/cut/coul/long, perpetual
      attributes: half, newton on
      pair build: half/bin/newton
      stencil: half/bin/3d/newton
      bin: standard
Per MPI rank memory allocation (min/avg/max) = 19.2 | 19.2 | 19.2 Mbytes
Step Temp E_pair E_mol TotEng Press 
       0    1181.9893    618.57622    503043.53    506681.56     -1079.25 
    2000    1397.6999    804.80098    2950.5253    7325.8264    4.3835159 
Loop time of 6.30906 on 1 procs for 2000 steps with 858 atoms

Performance: 27.389 ns/day, 0.876 hours/ns, 317.004 timesteps/s
100.0% CPU use with 1 MPI tasks x no OpenMP threads

MPI task timing breakdown:
Section |  min time  |  avg time  |  max time  |%varavg| %total
---------------------------------------------------------------
Pair    | 2.0834     | 2.0834     | 2.0834     |   0.0 | 33.02
Bond    | 0.72468    | 0.72468    | 0.72468    |   0.0 | 11.49
Kspace  | 3.1982     | 3.1982     | 3.1982     |   0.0 | 50.69
Neigh   | 0.26945    | 0.26945    | 0.26945    |   0.0 |  4.27
Comm    | 0.0029309  | 0.0029309  | 0.0029309  |   0.0 |  0.05
Output  | 2.0981e-05 | 2.0981e-05 | 2.0981e-05 |   0.0 |  0.00
Modify  | 0.025561   | 0.025561   | 0.025561   |   0.0 |  0.41
Other   |            | 0.004903   |            |       |  0.08

Nlocal:    858 ave 858 max 858 min
Histogram: 1 0 0 0 0 0 0 0 0 0
Nghost:    0 ave 0 max 0 min
Histogram: 1 0 0 0 0 0 0 0 0 0
Neighs:    42304 ave 42304 max 42304 min
Histogram: 1 0 0 0 0 0 0 0 0 0

Total # of neighbors = 42304
Ave neighs/atom = 49.3054
Ave special neighs/atom = 11.5361
Neighbor list builds = 175
Dangerous builds = 0
unfix pysimm_md
min_style cg
minimize 0.001 0.001 10000 100000
WARNING: Using 'neigh_modify every 1 delay 0 check yes' setting during minimization (../min.cpp:190)
PPPM initialization ...
  using 12-bit tables for long-range coulomb (../kspace.cpp:332)
  G vector (1/distance) = 0.0765102
  grid = 18 18 18
  stencil order = 5
  estimated absolute RMS force accuracy = 0.0360721
  estimated relative force accuracy = 0.00010863
  using double precision KISS FFT
  3d grid and FFT values/proc = 12167 5832
Per MPI rank memory allocation (min/avg/max) = 20.33 | 20.33 | 20.33 Mbytes
Step Temp E_pair E_mol TotEng Press 
    2000    1397.6999    804.80098    2950.5253    7325.8264    4.3835159 
    2041    1397.6999    690.28916    1139.9392    5400.7285    7.4588002 
Loop time of 0.275734 on 1 procs for 41 steps with 858 atoms

100.4% CPU use with 1 MPI tasks x no OpenMP threads

Minimization stats:
  Stopping criterion = energy tolerance
  Energy initial, next-to-last, final = 
         3755.32626209       1831.9932807      1830.22838398
  Force two-norm initial, final = 1462.54 77.5748
  Force max component initial, final = 164.538 12.4758
  Final line search alpha, max atom move = 0.00358026 0.0446667
  Iterations, force evaluations = 41 81

MPI task timing breakdown:
Section |  min time  |  avg time  |  max time  |%varavg| %total
---------------------------------------------------------------
Pair    | 0.11277    | 0.11277    | 0.11277    |   0.0 | 40.90
Bond    | 0.031229   | 0.031229   | 0.031229   |   0.0 | 11.33
Kspace  | 0.12749    | 0.12749    | 0.12749    |   0.0 | 46.23
Neigh   | 0.002661   | 0.002661   | 0.002661   |   0.0 |  0.97
Comm    | 5.6028e-05 | 5.6028e-05 | 5.6028e-05 |   0.0 |  0.02
Output  | 0          | 0          | 0          |   0.0 |  0.00
Modify  | 0          | 0          | 0          |   0.0 |  0.00
Other   |            | 0.001534   |            |       |  0.56

Nlocal:    858 ave 858 max 858 min
Histogram: 1 0 0 0 0 0 0 0 0 0
Nghost:    0 ave 0 max 0 min
Histogram: 1 0 0 0 0 0 0 0 0 0
Neighs:    42239 ave 42239 max 42239 min
Histogram: 1 0 0 0 0 0 0 0 0 0

Total # of neighbors = 42239
Ave neighs/atom = 49.2296
Ave special neighs/atom = 11.5361
Neighbor list builds = 2
Dangerous builds = 0
write_dump all custom pysimm.dump.tmp id q x y z vx vy vz
quit


################################################################################
##################################    Init    ##################################
################################################################################
units           real
atom_style      full
pair_style      lj/cut/coul/long 12.0  12.0
kspace_style    pppm 1e-4
bond_style      harmonic
angle_style     harmonic
dihedral_style  fourier
improper_style  cvff
special_bonds   amber
pair_modify     mix arithmetic
read_data       temp.lmps
  orthogonal box = (-143.954 -143.954 -143.954) to (143.954 143.954 143.954)
  1 by 1 by 1 MPI processor grid
  reading atoms ...
  924 atoms
  reading velocities ...
  924 velocities
  scanning bonds ...
  3 = max bonds/atom
  scanning angles ...
  6 = max angles/atom
  scanning dihedrals ...
  24 = max dihedrals/atom
  scanning impropers ...
  2 = max impropers/atom
  reading bonds ...
  1021 bonds
  reading angles ...
  1802 angles
  reading dihedrals ...
  2886 dihedrals
  reading impropers ...
  294 impropers
  4 = max # of 1-2 neighbors
  11 = max # of 1-3 neighbors
  23 = max # of 1-4 neighbors
  23 = max # of special neighbors
  special bonds CPU = 0.000758886 secs
  read_data CPU = 0.0107679 secs
################################################################################

timestep        1
fix             pysimm_md all nve/limit 0.1
run             2000
PPPM initialization ...
WARNING: System is not charge neutral, net charge = -2.8e-05 (../kspace.cpp:313)
  using 12-bit tables for long-range coulomb (../kspace.cpp:332)
  G vector (1/distance) = 0.0814063
  grid = 20 20 20
  stencil order = 5
  estimated absolute RMS force accuracy = 0.0321762
  estimated relative force accuracy = 9.68978e-05
  using double precision KISS FFT
  3d grid and FFT values/proc = 15625 8000
Neighbor list info ...
  update every 1 steps, delay 10 steps, check yes
  max neighbors/atom: 2000, page size: 100000
  master list distance cutoff = 14
  ghost atom cutoff = 14
  binsize = 7, bins = 42 42 42
  1 neighbor lists, perpetual/occasional/extra = 1 0 0
  (1) pair lj/cut/coul/long, perpetual
      attributes: half, newton on
      pair build: half/bin/newton
      stencil: half/bin/3d/newton
      bin: standard
Per MPI rank memory allocation (min/avg/max) = 19.55 | 19.55 | 19.55 Mbytes
Step Temp E_pair E_mol TotEng Press 
       0    1297.8575    715.74502    559409.62    563696.15   -1101.6716 
    2000    1643.3883    832.75803    3182.3331    8536.5253    1.9009322 
Loop time of 6.64653 on 1 procs for 2000 steps with 924 atoms

Performance: 25.999 ns/day, 0.923 hours/ns, 300.909 timesteps/s
100.1% CPU use with 1 MPI tasks x no OpenMP threads

MPI task timing breakdown:
Section |  min time  |  avg time  |  max time  |%varavg| %total
---------------------------------------------------------------
Pair    | 1.8903     | 1.8903     | 1.8903     |   0.0 | 28.44
Bond    | 0.76542    | 0.76542    | 0.76542    |   0.0 | 11.52
Kspace  | 3.6898     | 3.6898     | 3.6898     |   0.0 | 55.51
Neigh   | 0.26611    | 0.26611    | 0.26611    |   0.0 |  4.00
Comm    | 0.0031402  | 0.0031402  | 0.0031402  |   0.0 |  0.05
Output  | 2.0027e-05 | 2.0027e-05 | 2.0027e-05 |   0.0 |  0.00
Modify  | 0.026812   | 0.026812   | 0.026812   |   0.0 |  0.40
Other   |            | 0.004941   |            |       |  0.07

Nlocal:    924 ave 924 max 924 min
Histogram: 1 0 0 0 0 0 0 0 0 0
Nghost:    0 ave 0 max 0 min
Histogram: 1 0 0 0 0 0 0 0 0 0
Neighs:    52972 ave 52972 max 52972 min
Histogram: 1 0 0 0 0 0 0 0 0 0

Total # of neighbors = 52972
Ave neighs/atom = 57.329
Ave special neighs/atom = 11.539
Neighbor list builds = 177
Dangerous builds = 0
unfix pysimm_md
min_style cg
minimize 0.001 0.001 10000 100000
WARNING: Using 'neigh_modify every 1 delay 0 check yes' setting during minimization (../min.cpp:190)
PPPM initialization ...
  using 12-bit tables for long-range coulomb (../kspace.cpp:332)
  G vector (1/distance) = 0.0814063
  grid = 20 20 20
  stencil order = 5
  estimated absolute RMS force accuracy = 0.0321762
  estimated relative force accuracy = 9.68978e-05
  using double precision KISS FFT
  3d grid and FFT values/proc = 15625 8000
Per MPI rank memory allocation (min/avg/max) = 20.68 | 20.68 | 20.68 Mbytes
Step Temp E_pair E_mol TotEng Press 
    2000    1643.3883    832.75803    3182.3331    8536.5253    1.9009322 
    2044    1643.3883    717.64988    1220.4262    6459.5102    7.8947719 
Loop time of 0.340139 on 1 procs for 44 steps with 924 atoms

99.9% CPU use with 1 MPI tasks x no OpenMP threads

Minimization stats:
  Stopping criterion = energy tolerance
  Energy initial, next-to-last, final = 
         4015.09116314      1939.80443983      1938.07609175
  Force two-norm initial, final = 1458.88 82.4977
  Force max component initial, final = 178.186 9.84259
  Final line search alpha, max atom move = 0.00236213 0.0232495
  Iterations, force evaluations = 44 88

MPI task timing breakdown:
Section |  min time  |  avg time  |  max time  |%varavg| %total
---------------------------------------------------------------
Pair    | 0.14147    | 0.14147    | 0.14147    |   0.0 | 41.59
Bond    | 0.036567   | 0.036567   | 0.036567   |   0.0 | 10.75
Kspace  | 0.15705    | 0.15705    | 0.15705    |   0.0 | 46.17
Neigh   | 0.0032623  | 0.0032623  | 0.0032623  |   0.0 |  0.96
Comm    | 5.3167e-05 | 5.3167e-05 | 5.3167e-05 |   0.0 |  0.02
Output  | 0          | 0          | 0          |   0.0 |  0.00
Modify  | 0          | 0          | 0          |   0.0 |  0.00
Other   |            | 0.001739   |            |       |  0.51

Nlocal:    924 ave 924 max 924 min
Histogram: 1 0 0 0 0 0 0 0 0 0
Nghost:    0 ave 0 max 0 min
Histogram: 1 0 0 0 0 0 0 0 0 0
Neighs:    53213 ave 53213 max 53213 min
Histogram: 1 0 0 0 0 0 0 0 0 0

Total # of neighbors = 53213
Ave neighs/atom = 57.5898
Ave special neighs/atom = 11.539
Neighbor list builds = 2
Dangerous builds = 0
write_dump all custom pysimm.dump.tmp id q x y z vx vy vz
quit


################################################################################
##################################    Init    ##################################
################################################################################
units           real
atom_style      full
pair_style      lj/cut/coul/long 12.0  12.0
kspace_style    pppm 1e-4
bond_style      harmonic
angle_style     harmonic
dihedral_style  fourier
improper_style  cvff
special_bonds   amber
pair_modify     mix arithmetic
read_data       temp.lmps
  orthogonal box = (-147.554 -147.554 -147.554) to (147.554 147.554 147.554)
  1 by 1 by 1 MPI processor grid
  reading atoms ...
  990 atoms
  reading velocities ...
  990 velocities
  scanning bonds ...
  3 = max bonds/atom
  scanning angles ...
  6 = max angles/atom
  scanning dihedrals ...
  24 = max dihedrals/atom
  scanning impropers ...
  2 = max impropers/atom
  reading bonds ...
  1094 bonds
  reading angles ...
  1931 angles
  reading dihedrals ...
  3093 dihedrals
  reading impropers ...
  315 impropers
  4 = max # of 1-2 neighbors
  11 = max # of 1-3 neighbors
  23 = max # of 1-4 neighbors
  23 = max # of special neighbors
  special bonds CPU = 0.000819206 secs
  read_data CPU = 0.0113029 secs
################################################################################

timestep        1
fix             pysimm_md all nve/limit 0.1
run             2000
PPPM initialization ...
WARNING: System is not charge neutral, net charge = -3e-05 (../kspace.cpp:313)
  using 12-bit tables for long-range coulomb (../kspace.cpp:332)
  G vector (1/distance) = 0.0798474
  grid = 20 20 20
  stencil order = 5
  estimated absolute RMS force accuracy = 0.0332768
  estimated relative force accuracy = 0.000100212
  using double precision KISS FFT
  3d grid and FFT values/proc = 15625 8000
Neighbor list info ...
  update every 1 steps, delay 10 steps, check yes
  max neighbors/atom: 2000, page size: 100000
  master list distance cutoff = 14
  ghost atom cutoff = 14
  binsize = 7, bins = 43 43 43
  1 neighbor lists, perpetual/occasional/extra = 1 0 0
[...]
  using double precision KISS FFT
  3d grid and FFT values/proc = 42875 27000
Per MPI rank memory allocation (min/avg/max) = 25.55 | 25.55 | 25.55 Mbytes
Step Temp E_pair E_mol TotEng Press 
    2000    423.63578    2328.5486    5751.6965    11996.119  -0.18253242 
    2036    423.63578    2198.8485    3655.5385     9770.261    2.0809021 
Loop time of 1.2936 on 1 procs for 36 steps with 3102 atoms

100.1% CPU use with 1 MPI tasks x no OpenMP threads

Minimization stats:
  Stopping criterion = energy tolerance
  Energy initial, next-to-last, final = 
         8080.24506455      5858.24094009      5854.38702878
  Force two-norm initial, final = 1635.94 115.298
  Force max component initial, final = 156.224 12.5183
  Final line search alpha, max atom move = 0.00281213 0.0352032
  Iterations, force evaluations = 36 70

MPI task timing breakdown:
Section |  min time  |  avg time  |  max time  |%varavg| %total
---------------------------------------------------------------
Pair    | 0.66056    | 0.66056    | 0.66056    |   0.0 | 51.06
Bond    | 0.10585    | 0.10585    | 0.10585    |   0.0 |  8.18
Kspace  | 0.50404    | 0.50404    | 0.50404    |   0.0 | 38.96
Neigh   | 0.018053   | 0.018053   | 0.018053   |   0.0 |  1.40
Comm    | 0.00013328 | 0.00013328 | 0.00013328 |   0.0 |  0.01
Output  | 0          | 0          | 0          |   0.0 |  0.00
Modify  | 0          | 0          | 0          |   0.0 |  0.00
Other   |            | 0.004965   |            |       |  0.38

Nlocal:    3102 ave 3102 max 3102 min
Histogram: 1 0 0 0 0 0 0 0 0 0
Nghost:    0 ave 0 max 0 min
Histogram: 1 0 0 0 0 0 0 0 0 0
Neighs:    298689 ave 298689 max 298689 min
Histogram: 1 0 0 0 0 0 0 0 0 0

Total # of neighbors = 298689
Ave neighs/atom = 96.2892
Ave special neighs/atom = 11.5648
Neighbor list builds = 2
Dangerous builds = 0
write_dump all custom pysimm.dump.tmp id q x y z vx vy vz
quit


################################################################################
##################################    Init    ##################################
################################################################################
units           real
atom_style      full
pair_style      lj/cut/coul/long 12.0  12.0
kspace_style    pppm 1e-4
bond_style      harmonic
angle_style     harmonic
dihedral_style  fourier
improper_style  cvff
special_bonds   amber
pair_modify     mix arithmetic
read_data       temp.lmps
  orthogonal box = (-220.94 -220.94 -220.94) to (220.94 220.94 220.94)
  1 by 1 by 1 MPI processor grid
  reading atoms ...
  3168 atoms
  reading velocities ...
  3168 velocities
  scanning bonds ...
  3 = max bonds/atom
  scanning angles ...
  6 = max angles/atom
  scanning dihedrals ...
  24 = max dihedrals/atom
  scanning impropers ...
  2 = max impropers/atom
  reading bonds ...
  3503 bonds
  reading angles ...
  6188 angles
  reading dihedrals ...
  9924 dihedrals
  reading impropers ...
  1008 impropers
  4 = max # of 1-2 neighbors
  11 = max # of 1-3 neighbors
  23 = max # of 1-4 neighbors
  23 = max # of special neighbors
  special bonds CPU = 0.00245595 secs
  read_data CPU = 0.0296221 secs
################################################################################

timestep        1
fix             pysimm_md all nve/limit 0.1
run             2000
PPPM initialization ...
WARNING: System is not charge neutral, net charge = -9.6e-05 (../kspace.cpp:313)
  using 12-bit tables for long-range coulomb (../kspace.cpp:332)
  G vector (1/distance) = 0.0799587
  grid = 30 30 30
  stencil order = 5
  estimated absolute RMS force accuracy = 0.0324064
  estimated relative force accuracy = 9.7591e-05
  using double precision KISS FFT
  3d grid and FFT values/proc = 42875 27000
Neighbor list info ...
  update every 1 steps, delay 10 steps, check yes
  max neighbors/atom: 2000, page size: 100000
  master list distance cutoff = 14
  ghost atom cutoff = 14
  binsize = 7, bins = 64 64 64
  1 neighbor lists, perpetual/occasional/extra = 1 0 0
  (1) pair lj/cut/coul/long, perpetual
      attributes: half, newton on
      pair build: half/bin/newton
      stencil: half/bin/3d/newton
      bin: standard
Per MPI rank memory allocation (min/avg/max) = 24.49 | 24.49 | 24.49 Mbytes
Step Temp E_pair E_mol TotEng Press 
       0     414.8369     2225.292    540461.22    546602.66   -292.97585 
    2000    458.05465    2351.8578     5859.012    12535.009  -0.34147015 
Loop time of 30.2513 on 1 procs for 2000 steps with 3168 atoms

Performance: 5.712 ns/day, 4.202 hours/ns, 66.113 timesteps/s
100.0% CPU use with 1 MPI tasks x no OpenMP threads

MPI task timing breakdown:
Section |  min time  |  avg time  |  max time  |%varavg| %total
---------------------------------------------------------------
Pair    | 12.029     | 12.029     | 12.029     |   0.0 | 39.76
Bond    | 2.7343     | 2.7343     | 2.7343     |   0.0 |  9.04
Kspace  | 13.725     | 13.725     | 13.725     |   0.0 | 45.37
Neigh   | 1.6435     | 1.6435     | 1.6435     |   0.0 |  5.43
Comm    | 0.010268   | 0.010268   | 0.010268   |   0.0 |  0.03
Output  | 3.0994e-05 | 3.0994e-05 | 3.0994e-05 |   0.0 |  0.00
Modify  | 0.093118   | 0.093118   | 0.093118   |   0.0 |  0.31
Other   |            | 0.01577    |            |       |  0.05

Nlocal:    3168 ave 3168 max 3168 min
Histogram: 1 0 0 0 0 0 0 0 0 0
Nghost:    0 ave 0 max 0 min
Histogram: 1 0 0 0 0 0 0 0 0 0
Neighs:    315062 ave 315062 max 315062 min
Histogram: 1 0 0 0 0 0 0 0 0 0

Total # of neighbors = 315062
Ave neighs/atom = 99.4514
Ave special neighs/atom = 11.565
Neighbor list builds = 174
Dangerous builds = 0
unfix pysimm_md
min_style cg
minimize 0.001 0.001 10000 100000
WARNING: Using 'neigh_modify every 1 delay 0 check yes' setting during minimization (../min.cpp:190)
PPPM initialization ...
  using 12-bit tables for long-range coulomb (../kspace.cpp:332)
  G vector (1/distance) = 0.0799587
  grid = 30 30 30
  stencil order = 5
  estimated absolute RMS force accuracy = 0.0324064
  estimated relative force accuracy = 9.7591e-05
  using double precision KISS FFT
  3d grid and FFT values/proc = 42875 27000
Per MPI rank memory allocation (min/avg/max) = 25.61 | 25.61 | 25.61 Mbytes
Step Temp E_pair E_mol TotEng Press 
    2000    458.05465    2351.8578     5859.012    12535.009  -0.34147015 
    2030    458.05465    2248.1872    3735.6838     10308.01    2.4654339 
Loop time of 1.05152 on 1 procs for 30 steps with 3168 atoms

100.1% CPU use with 1 MPI tasks x no OpenMP threads

Minimization stats:
  Stopping criterion = energy tolerance
  Energy initial, next-to-last, final = 
         8210.86979346        5989.826364      5983.87091306
  Force two-norm initial, final = 1646.95 105.914
  Force max component initial, final = 193.647 10.5165
  Final line search alpha, max atom move = 0.00293539 0.03087
  Iterations, force evaluations = 30 59

MPI task timing breakdown:
Section |  min time  |  avg time  |  max time  |%varavg| %total
---------------------------------------------------------------
Pair    | 0.54832    | 0.54832    | 0.54832    |   0.0 | 52.15
Bond    | 0.08851    | 0.08851    | 0.08851    |   0.0 |  8.42
Kspace  | 0.40123    | 0.40123    | 0.40123    |   0.0 | 38.16
Neigh   | 0.009305   | 0.009305   | 0.009305   |   0.0 |  0.88
Comm    | 8.4639e-05 | 8.4639e-05 | 8.4639e-05 |   0.0 |  0.01
Output  | 0          | 0          | 0          |   0.0 |  0.00
Modify  | 0          | 0          | 0          |   0.0 |  0.00
Other   |            | 0.004069   |            |       |  0.39

Nlocal:    3168 ave 3168 max 3168 min
Histogram: 1 0 0 0 0 0 0 0 0 0
Nghost:    0 ave 0 max 0 min
Histogram: 1 0 0 0 0 0 0 0 0 0
Neighs:    315149 ave 315149 max 315149 min
Histogram: 1 0 0 0 0 0 0 0 0 0

Total # of neighbors = 315149
Ave neighs/atom = 99.4789
Ave special neighs/atom = 11.565
Neighbor list builds = 1
Dangerous builds = 0
write_dump all custom pysimm.dump.tmp id q x y z vx vy vz
quit


################################################################################
##################################    Init    ##################################
################################################################################
units           real
atom_style      full
pair_style      lj/cut/coul/long 12.0  12.0
kspace_style    pppm 1e-4
bond_style      harmonic
angle_style     harmonic
dihedral_style  fourier
improper_style  cvff
special_bonds   amber
pair_modify     mix arithmetic
read_data       temp.lmps
  orthogonal box = (-222.496 -222.496 -222.496) to (222.496 222.496 222.496)
  1 by 1 by 1 MPI processor grid
  reading atoms ...
  3234 atoms
  reading velocities ...
  3234 velocities
  scanning bonds ...
  3 = max bonds/atom
  scanning angles ...
  6 = max angles/atom
  scanning dihedrals ...
  24 = max dihedrals/atom
  scanning impropers ...
  2 = max impropers/atom
  reading bonds ...
  3576 bonds
  reading angles ...
  6317 angles
  reading dihedrals ...
  10131 dihedrals
  reading impropers ...
  1029 impropers
  4 = max # of 1-2 neighbors
  11 = max # of 1-3 neighbors
  23 = max # of 1-4 neighbors
  23 = max # of special neighbors
  special bonds CPU = 0.00244308 secs
  read_data CPU = 0.029758 secs
################################################################################

timestep        1
fix             pysimm_md all nve/limit 0.1
run             2000
PPPM initialization ...
WARNING: System is not charge neutral, net charge = -9.8e-05 (../kspace.cpp:313)
  using 12-bit tables for long-range coulomb (../kspace.cpp:332)
  G vector (1/distance) = 0.079519
  grid = 30 30 30
  stencil order = 5
  estimated absolute RMS force accuracy = 0.032728
  estimated relative force accuracy = 9.85595e-05
  using double precision KISS FFT
  3d grid and FFT values/proc = 42875 27000
Neighbor list info ...
  update every 1 steps, delay 10 steps, check yes
  max neighbors/atom: 2000, page size: 100000
  master list distance cutoff = 14
  ghost atom cutoff = 14
  binsize = 7, bins = 64 64 64
  1 neighbor lists, perpetual/occasional/extra = 1 0 0
  (1) pair lj/cut/coul/long, perpetual
      attributes: half, newton on
      pair build: half/bin/newton
      stencil: half/bin/3d/newton
      bin: standard
Per MPI rank memory allocation (min/avg/max) = 24.49 | 24.49 | 24.49 Mbytes
Step Temp E_pair E_mol TotEng Press 
       0     448.7327    2274.7286     368492.7    375091.85   -195.37773 
    2000    405.08974    2423.3254    5772.8231    12099.982   0.37790161 
Loop time of 30.5001 on 1 procs for 2000 steps with 3234 atoms

Performance: 5.666 ns/day, 4.236 hours/ns, 65.574 timesteps/s
100.1% CPU use with 1 MPI tasks x no OpenMP threads

MPI task timing breakdown:
Section |  min time  |  avg time  |  max time  |%varavg| %total
---------------------------------------------------------------
Pair    | 12.041     | 12.041     | 12.041     |   0.0 | 39.48
Bond    | 2.791      | 2.791      | 2.791      |   0.0 |  9.15
Kspace  | 13.934     | 13.934     | 13.934     |   0.0 | 45.69
Neigh   | 1.6121     | 1.6121     | 1.6121     |   0.0 |  5.29
Comm    | 0.010243   | 0.010243   | 0.010243   |   0.0 |  0.03
Output  | 3.0041e-05 | 3.0041e-05 | 3.0041e-05 |   0.0 |  0.00
Modify  | 0.095598   | 0.095598   | 0.095598   |   0.0 |  0.31
Other   |            | 0.01624    |            |       |  0.05

Nlocal:    3234 ave 3234 max 3234 min
Histogram: 1 0 0 0 0 0 0 0 0 0
Nghost:    0 ave 0 max 0 min
Histogram: 1 0 0 0 0 0 0 0 0 0
Neighs:    304034 ave 304034 max 304034 min
Histogram: 1 0 0 0 0 0 0 0 0 0

Total # of neighbors = 304034
Ave neighs/atom = 94.0118
Ave special neighs/atom = 11.5652
Neighbor list builds = 172
Dangerous builds = 0
unfix pysimm_md
min_style cg
minimize 0.001 0.001 10000 100000
WARNING: Using 'neigh_modify every 1 delay 0 check yes' setting during minimization (../min.cpp:190)
PPPM initialization ...
  using 12-bit tables for long-range coulomb (../kspace.cpp:332)
  G vector (1/distance) = 0.079519
  grid = 30 30 30
  stencil order = 5
  estimated absolute RMS force accuracy = 0.032728
  estimated relative force accuracy = 9.85595e-05
  using double precision KISS FFT
  3d grid and FFT values/proc = 42875 27000
Per MPI rank memory allocation (min/avg/max) = 25.62 | 25.62 | 25.62 Mbytes
Step Temp E_pair E_mol TotEng Press 
    2000    405.08974    2423.3254    5772.8231    12099.982   0.37790161 
    2033    405.08974    2220.8599    3808.8542    9933.5473    1.6596885 
Loop time of 1.1748 on 1 procs for 33 steps with 3234 atoms

100.1% CPU use with 1 MPI tasks x no OpenMP threads

Minimization stats:
  Stopping criterion = energy tolerance
  Energy initial, next-to-last, final = 
         8196.14847627      6034.58306893      6029.71416064
  Force two-norm initial, final = 1595.7 120.153
  Force max component initial, final = 176.956 12.8258
  Final line search alpha, max atom move = 0.00192608 0.0247035
  Iterations, force evaluations = 33 65

MPI task timing breakdown:
Section |  min time  |  avg time  |  max time  |%varavg| %total
---------------------------------------------------------------
Pair    | 0.59684    | 0.59684    | 0.59684    |   0.0 | 50.80
Bond    | 0.10009    | 0.10009    | 0.10009    |   0.0 |  8.52
Kspace  | 0.46431    | 0.46431    | 0.46431    |   0.0 | 39.52
Neigh   | 0.0089169  | 0.0089169  | 0.0089169  |   0.0 |  0.76
Comm    | 8.1301e-05 | 8.1301e-05 | 8.1301e-05 |   0.0 |  0.01
Output  | 0          | 0          | 0          |   0.0 |  0.00
Modify  | 0          | 0          | 0          |   0.0 |  0.00
Other   |            | 0.004566   |            |       |  0.39

Nlocal:    3234 ave 3234 max 3234 min
Histogram: 1 0 0 0 0 0 0 0 0 0
Nghost:    0 ave 0 max 0 min
Histogram: 1 0 0 0 0 0 0 0 0 0
Neighs:    304045 ave 304045 max 304045 min
Histogram: 1 0 0 0 0 0 0 0 0 0

Total # of neighbors = 304045
Ave neighs/atom = 94.0152
Ave special neighs/atom = 11.5652
Neighbor list builds = 1
Dangerous builds = 0
write_dump all custom pysimm.dump.tmp id q x y z vx vy vz
quit


################################################################################
##################################    Init    ##################################
################################################################################
units           real
atom_style      full
pair_style      lj/cut/coul/long 12.0  12.0
kspace_style    pppm 1e-4
bond_style      harmonic
angle_style     harmonic
dihedral_style  fourier
improper_style  cvff
special_bonds   amber
pair_modify     mix arithmetic
read_data       temp.lmps
  orthogonal box = (-224.03 -224.03 -224.03) to (224.03 224.03 224.03)
  1 by 1 by 1 MPI processor grid
  reading atoms ...
  3300 atoms
  reading velocities ...
  3300 velocities
  scanning bonds ...
  3 = max bonds/atom
  scanning angles ...
  6 = max angles/atom
  scanning dihedrals ...
  24 = max dihedrals/atom
  scanning impropers ...
  2 = max impropers/atom
  reading bonds ...
  3649 bonds
  reading angles ...
  6446 angles
  reading dihedrals ...
  10338 dihedrals
  reading impropers ...
  1050 impropers
  4 = max # of 1-2 neighbors
  11 = max # of 1-3 neighbors
  23 = max # of 1-4 neighbors
  23 = max # of special neighbors
  special bonds CPU = 0.00250816 secs
  read_data CPU = 0.0303462 secs
################################################################################

timestep        1
fix             pysimm_md all nve/limit 0.1
run             2000
PPPM initialization ...
WARNING: System is not charge neutral, net charge = -0.0001 (../kspace.cpp:313)
  using 12-bit tables for long-range coulomb (../kspace.cpp:332)
  G vector (1/distance) = 0.0790899
  grid = 30 30 30
  stencil order = 5
  estimated absolute RMS force accuracy = 0.0330433
  estimated relative force accuracy = 9.95089e-05
  using double precision KISS FFT
  3d grid and FFT values/proc = 42875 27000
Neighbor list info ...
  update every 1 steps, delay 10 steps, check yes
  max neighbors/atom: 2000, page size: 100000
  master list distance cutoff = 14
  ghost atom cutoff = 14
  binsize = 7, bins = 65 65 65
  1 neighbor lists, perpetual/occasional/extra = 1 0 0
  (1) pair lj/cut/coul/long, perpetual
      attributes: half, newton on
      pair build: half/bin/newton
      stencil: half/bin/3d/newton
      bin: standard
Per MPI rank memory allocation (min/avg/max) = 24.56 | 24.56 | 24.56 Mbytes
Step Temp E_pair E_mol TotEng Press 
       0    397.01382    2246.6842    550949.08    557099.88   -286.72373 
    2000     382.9601    2362.5531    5909.5586    12038.023   0.45428387 
Loop time of 31.0336 on 1 procs for 2000 steps with 3300 atoms

Performance: 5.568 ns/day, 4.310 hours/ns, 64.446 timesteps/s
100.0% CPU use with 1 MPI tasks x no OpenMP threads

MPI task timing breakdown:
Section |  min time  |  avg time  |  max time  |%varavg| %total
---------------------------------------------------------------
Pair    | 12.437     | 12.437     | 12.437     |   0.0 | 40.07
Bond    | 2.8456     | 2.8456     | 2.8456     |   0.0 |  9.17
Kspace  | 14.003     | 14.003     | 14.003     |   0.0 | 45.12
Neigh   | 1.625      | 1.625      | 1.625      |   0.0 |  5.24
Comm    | 0.0099447  | 0.0099447  | 0.0099447  |   0.0 |  0.03
Output  | 3.0994e-05 | 3.0994e-05 | 3.0994e-05 |   0.0 |  0.00
Modify  | 0.096808   | 0.096808   | 0.096808   |   0.0 |  0.31
Other   |            | 0.0162     |            |       |  0.05

Nlocal:    3300 ave 3300 max 3300 min
Histogram: 1 0 0 0 0 0 0 0 0 0
Nghost:    0 ave 0 max 0 min
Histogram: 1 0 0 0 0 0 0 0 0 0
Neighs:    332436 ave 332436 max 332436 min
Histogram: 1 0 0 0 0 0 0 0 0 0

Total # of neighbors = 332436
Ave neighs/atom = 100.738
Ave special neighs/atom = 11.5655
Neighbor list builds = 172
Dangerous builds = 0
unfix pysimm_md
min_style cg
minimize 0.001 0.001 10000 100000
WARNING: Using 'neigh_modify every 1 delay 0 check yes' setting during minimization (../min.cpp:190)
PPPM initialization ...
  using 12-bit tables for long-range coulomb (../kspace.cpp:332)
  G vector (1/distance) = 0.0790899
  grid = 30 30 30
  stencil order = 5
  estimated absolute RMS force accuracy = 0.0330433
  estimated relative force accuracy = 9.95089e-05
  using double precision KISS FFT
  3d grid and FFT values/proc = 42875 27000
Per MPI rank memory allocation (min/avg/max) = 25.68 | 25.68 | 25.68 Mbytes
Step Temp E_pair E_mol TotEng Press 
    2000     382.9601    2362.5531    5909.5586    12038.023   0.45428387 
    2029     382.9601    2221.0342    3857.5342    9844.4802    1.8237046 
Loop time of 1.10313 on 1 procs for 29 steps with 3300 atoms

100.1% CPU use with 1 MPI tasks x no OpenMP threads

Minimization stats:
  Stopping criterion = energy tolerance
  Energy initial, next-to-last, final = 
         8272.11169194      6082.97612195      6078.56843759
  Force two-norm initial, final = 1716.36 127.327
  Force max component initial, final = 181.957 12.5467
  Final line search alpha, max atom move = 0.00157555 0.019768
  Iterations, force evaluations = 29 56

MPI task timing breakdown:
Section |  min time  |  avg time  |  max time  |%varavg| %total
---------------------------------------------------------------
Pair    | 0.58535    | 0.58535    | 0.58535    |   0.0 | 53.06
Bond    | 0.089384   | 0.089384   | 0.089384   |   0.0 |  8.10
Kspace  | 0.41358    | 0.41358    | 0.41358    |   0.0 | 37.49
Neigh   | 0.010466   | 0.010466   | 0.010466   |   0.0 |  0.95
Comm    | 8.1062e-05 | 8.1062e-05 | 8.1062e-05 |   0.0 |  0.01
Output  | 0          | 0          | 0          |   0.0 |  0.00
Modify  | 0          | 0          | 0          |   0.0 |  0.00
Other   |            | 0.004267   |            |       |  0.39

Nlocal:    3300 ave 3300 max 3300 min
Histogram: 1 0 0 0 0 0 0 0 0 0
Nghost:    0 ave 0 max 0 min
Histogram: 1 0 0 0 0 0 0 0 0 0
Neighs:    332489 ave 332489 max 332489 min
Histogram: 1 0 0 0 0 0 0 0 0 0

Total # of neighbors = 332489
Ave neighs/atom = 100.754
Ave special neighs/atom = 11.5655
Neighbor list builds = 1
Dangerous builds = 0
write_dump all custom pysimm.dump.tmp id q x y z vx vy vz
quit
