

################################################################################
##################################    Init    ##################################
################################################################################
units           real
atom_style      full
pair_style      lj/cut/coul/long 12.0  12.0
kspace_style    pppm 1e-4
bond_style      harmonic
angle_style     harmonic
dihedral_style  fourier
improper_style  cvff
special_bonds   amber
pair_modify     mix arithmetic
read_data       temp.lmps
  orthogonal box = (-108.105 -108.105 -108.105) to (108.105 108.105 108.105)
  1 by 1 by 1 MPI processor grid
  reading atoms ...
  581 atoms
  reading velocities ...
  581 velocities
  scanning bonds ...
  3 = max bonds/atom
  scanning angles ...
  6 = max angles/atom
  scanning dihedrals ...
  24 = max dihedrals/atom
  scanning impropers ...
  2 = max impropers/atom
  reading bonds ...
  640 bonds
  reading angles ...
  1088 angles
  reading dihedrals ...
  1710 dihedrals
  reading impropers ...
  200 impropers
  4 = max # of 1-2 neighbors
  10 = max # of 1-3 neighbors
  19 = max # of 1-4 neighbors
  22 = max # of special neighbors
  special bonds CPU = 0.000672817 secs
  read_data CPU = 0.00885201 secs
################################################################################

min_style cg
minimize 1e-06 1e-06 1000000 10000000
WARNING: Using 'neigh_modify every 1 delay 0 check yes' setting during minimization (../min.cpp:190)
PPPM initialization ...
WARNING: System is not charge neutral, net charge = 3e-05 (../kspace.cpp:313)
  using 12-bit tables for long-range coulomb (../kspace.cpp:332)
  G vector (1/distance) = 0.0813248
  grid = 15 15 15
  stencil order = 5
  estimated absolute RMS force accuracy = 0.0359438
  estimated relative force accuracy = 0.000108244
  using double precision KISS FFT
  3d grid and FFT values/proc = 8000 3375
Neighbor list info ...
  update every 1 steps, delay 0 steps, check yes
  max neighbors/atom: 2000, page size: 100000
  master list distance cutoff = 14
  ghost atom cutoff = 14
  binsize = 7, bins = 31 31 31
  1 neighbor lists, perpetual/occasional/extra = 1 0 0
  (1) pair lj/cut/coul/long, perpetual
      attributes: half, newton on
      pair build: half/bin/newton
      stencil: half/bin/3d/newton
      bin: standard
Per MPI rank memory allocation (min/avg/max) = 19.67 | 19.67 | 19.67 Mbytes
Step Temp E_pair E_mol TotEng Press 
       0    428.25107    225.05399    952.98911    1918.4334     2.327553 
      27    428.25107    222.66515    830.24068    1793.2962    2.9760015 
Loop time of 0.254006 on 1 procs for 27 steps with 581 atoms

100.0% CPU use with 1 MPI tasks x no OpenMP threads

Minimization stats:
  Stopping criterion = linesearch alpha is zero
  Energy initial, next-to-last, final = 
         1178.04309738      1052.90583842      1052.90583842
  Force two-norm initial, final = 581.196 50.1558
  Force max component initial, final = 321.755 13.5498
  Final line search alpha, max atom move = 4.13071e-12 5.59702e-11
  Iterations, force evaluations = 27 109

MPI task timing breakdown:
Section |  min time  |  avg time  |  max time  |%varavg| %total
---------------------------------------------------------------
Pair    | 0.10087    | 0.10087    | 0.10087    |   0.0 | 39.71
Bond    | 0.031743   | 0.031743   | 0.031743   |   0.0 | 12.50
Kspace  | 0.12004    | 0.12004    | 0.12004    |   0.0 | 47.26
Neigh   | 0          | 0          | 0          |   0.0 |  0.00
Comm    | 4.2915e-05 | 4.2915e-05 | 4.2915e-05 |   0.0 |  0.02
Output  | 0          | 0          | 0          |   0.0 |  0.00
Modify  | 0          | 0          | 0          |   0.0 |  0.00
Other   |            | 0.001308   |            |       |  0.52

Nlocal:    581 ave 581 max 581 min
Histogram: 1 0 0 0 0 0 0 0 0 0
Nghost:    0 ave 0 max 0 min
Histogram: 1 0 0 0 0 0 0 0 0 0
Neighs:    24664 ave 24664 max 24664 min
Histogram: 1 0 0 0 0 0 0 0 0 0

Total # of neighbors = 24664
Ave neighs/atom = 42.4509
Ave special neighs/atom = 11.1084
Neighbor list builds = 0
Dangerous builds = 0
write_dump all custom pysimm.dump.tmp id q x y z vx vy vz
quit


################################################################################
##################################    Init    ##################################
################################################################################
units           real
atom_style      full
pair_style      lj/cut/coul/long 12.0  12.0
kspace_style    pppm 1e-4
bond_style      harmonic
angle_style     harmonic
dihedral_style  fourier
improper_style  cvff
special_bonds   amber
pair_modify     mix arithmetic
read_data       temp.lmps
  orthogonal box = (-136.203 -136.203 -136.203) to (136.203 136.203 136.203)
  1 by 1 by 1 MPI processor grid
  reading atoms ...
  639 atoms
  reading velocities ...
  639 velocities
  scanning bonds ...
  3 = max bonds/atom
  scanning angles ...
  6 = max angles/atom
  scanning dihedrals ...
  24 = max dihedrals/atom
  scanning impropers ...
  2 = max impropers/atom
  reading bonds ...
  704 bonds
  reading angles ...
  1197 angles
  reading dihedrals ...
  1882 dihedrals
  reading impropers ...
  220 impropers
  4 = max # of 1-2 neighbors
  10 = max # of 1-3 neighbors
  19 = max # of 1-4 neighbors
  22 = max # of special neighbors
  special bonds CPU = 0.000681162 secs
  read_data CPU = 0.00884604 secs
################################################################################

min_style cg
minimize 1e-06 1e-06 1000000 10000000
WARNING: Using 'neigh_modify every 1 delay 0 check yes' setting during minimization (../min.cpp:190)
PPPM initialization ...
WARNING: System is not charge neutral, net charge = 3.3e-05 (../kspace.cpp:313)
  using 12-bit tables for long-range coulomb (../kspace.cpp:332)
  G vector (1/distance) = 0.0675418
  grid = 15 15 15
  stencil order = 5
  estimated absolute RMS force accuracy = 0.0358213
  estimated relative force accuracy = 0.000107875
  using double precision KISS FFT
  3d grid and FFT values/proc = 8000 3375
Neighbor list info ...
  update every 1 steps, delay 0 steps, check yes
  max neighbors/atom: 2000, page size: 100000
  master list distance cutoff = 14
  ghost atom cutoff = 14
  binsize = 7, bins = 39 39 39
  1 neighbor lists, perpetual/occasional/extra = 1 0 0
  (1) pair lj/cut/coul/long, perpetual
      attributes: half, newton on
      pair build: half/bin/newton
      stencil: half/bin/3d/newton
      bin: standard
Per MPI rank memory allocation (min/avg/max) = 19.82 | 19.82 | 19.82 Mbytes
Step Temp E_pair E_mol TotEng Press 
       0    1275.1975    246.90473    1156.0157    3828.0359    3.0868566 
      12    1275.1975    243.95213       1035.5    3704.5676    3.9487847 
Loop time of 0.218786 on 1 procs for 12 steps with 639 atoms

100.1% CPU use with 1 MPI tasks x no OpenMP threads

Minimization stats:
  Stopping criterion = linesearch alpha is zero
  Energy initial, next-to-last, final = 
         1402.92046844       1279.4521351       1279.4521351
  Force two-norm initial, final = 588.288 57.155
  Force max component initial, final = 395.871 14.8926
  Final line search alpha, max atom move = 1.98549e-12 2.95691e-11
  Iterations, force evaluations = 12 82

MPI task timing breakdown:
Section |  min time  |  avg time  |  max time  |%varavg| %total
---------------------------------------------------------------
Pair    | 0.09619    | 0.09619    | 0.09619    |   0.0 | 43.97
Bond    | 0.026234   | 0.026234   | 0.026234   |   0.0 | 11.99
Kspace  | 0.095398   | 0.095398   | 0.095398   |   0.0 | 43.60
Neigh   | 0          | 0          | 0          |   0.0 |  0.00
Comm    | 4.6492e-05 | 4.6492e-05 | 4.6492e-05 |   0.0 |  0.02
Output  | 0          | 0          | 0          |   0.0 |  0.00
Modify  | 0          | 0          | 0          |   0.0 |  0.00
Other   |            | 0.000917   |            |       |  0.42

Nlocal:    639 ave 639 max 639 min
Histogram: 1 0 0 0 0 0 0 0 0 0
Nghost:    0 ave 0 max 0 min
Histogram: 1 0 0 0 0 0 0 0 0 0
Neighs:    31011 ave 31011 max 31011 min
Histogram: 1 0 0 0 0 0 0 0 0 0

Total # of neighbors = 31011
Ave neighs/atom = 48.5305
Ave special neighs/atom = 11.1142
Neighbor list builds = 0
Dangerous builds = 0
write_dump all custom pysimm.dump.tmp id q x y z vx vy vz
quit


################################################################################
##################################    Init    ##################################
################################################################################
units           real
atom_style      full
pair_style      lj/cut/coul/long 12.0  12.0
kspace_style    pppm 1e-4
bond_style      harmonic
angle_style     harmonic
dihedral_style  fourier
improper_style  cvff
special_bonds   amber
pair_modify     mix arithmetic
read_data       temp.lmps
  orthogonal box = (-140.6 -140.6 -140.6) to (140.6 140.6 140.6)
  1 by 1 by 1 MPI processor grid
  reading atoms ...
  697 atoms
  reading velocities ...
  697 velocities
  scanning bonds ...
  3 = max bonds/atom
  scanning angles ...
  6 = max angles/atom
  scanning dihedrals ...
  24 = max dihedrals/atom
  scanning impropers ...
  2 = max impropers/atom
  reading bonds ...
  768 bonds
  reading angles ...
  1306 angles
  reading dihedrals ...
  2054 dihedrals
  reading impropers ...
  240 impropers
  4 = max # of 1-2 neighbors
  10 = max # of 1-3 neighbors
  19 = max # of 1-4 neighbors
  22 = max # of special neighbors
  special bonds CPU = 0.000724077 secs
  read_data CPU = 0.00931096 secs
################################################################################

min_style cg
minimize 1e-06 1e-06 1000000 10000000
WARNING: Using 'neigh_modify every 1 delay 0 check yes' setting during minimization (../min.cpp:190)
PPPM initialization ...
WARNING: System is not charge neutral, net charge = 3.6e-05 (../kspace.cpp:313)
  using 12-bit tables for long-range coulomb (../kspace.cpp:332)
  G vector (1/distance) = 0.0657876
  grid = 15 15 15
  stencil order = 5
  estimated absolute RMS force accuracy = 0.0368972
  estimated relative force accuracy = 0.000111115
  using double precision KISS FFT
  3d grid and FFT values/proc = 8000 3375
Neighbor list info ...
  update every 1 steps, delay 0 steps, check yes
  max neighbors/atom: 2000, page size: 100000
  master list distance cutoff = 14
  ghost atom cutoff = 14
  binsize = 7, bins = 41 41 41
  1 neighbor lists, perpetual/occasional/extra = 1 0 0
  (1) pair lj/cut/coul/long, perpetual
      attributes: half, newton on
      pair build: half/bin/newton
      stencil: half/bin/3d/newton
      bin: standard
Per MPI rank memory allocation (min/avg/max) = 19.87 | 19.87 | 19.87 Mbytes
Step Temp E_pair E_mol TotEng Press 
       0    1617.2973    285.74806     1234.605    4875.6688    6.4338362 
      10    1617.2973    287.20409    1116.6749    4759.1947    7.1594272 
Loop time of 0.21735 on 1 procs for 10 steps with 697 atoms

99.8% CPU use with 1 MPI tasks x no OpenMP threads

Minimization stats:
  Stopping criterion = linesearch alpha is zero
  Energy initial, next-to-last, final = 
         1520.35301252      1403.87897432      1403.87897432
  Force two-norm initial, final = 586.233 63.2102
  Force max component initial, final = 375.451 24.5209
  Final line search alpha, max atom move = 2.3207e-12 5.69056e-11
  Iterations, force evaluations = 10 78

MPI task timing breakdown:
Section |  min time  |  avg time  |  max time  |%varavg| %total
---------------------------------------------------------------
Pair    | 0.10117    | 0.10117    | 0.10117    |   0.0 | 46.55
Bond    | 0.02711    | 0.02711    | 0.02711    |   0.0 | 12.47
Kspace  | 0.088122   | 0.088122   | 0.088122   |   0.0 | 40.54
Neigh   | 0          | 0          | 0          |   0.0 |  0.00
Comm    | 2.861e-05  | 2.861e-05  | 2.861e-05  |   0.0 |  0.01
Output  | 0          | 0          | 0          |   0.0 |  0.00
Modify  | 0          | 0          | 0          |   0.0 |  0.00
Other   |            | 0.0009153  |            |       |  0.42

Nlocal:    697 ave 697 max 697 min
Histogram: 1 0 0 0 0 0 0 0 0 0
Nghost:    0 ave 0 max 0 min
Histogram: 1 0 0 0 0 0 0 0 0 0
Neighs:    36217 ave 36217 max 36217 min
Histogram: 1 0 0 0 0 0 0 0 0 0

Total # of neighbors = 36217
Ave neighs/atom = 51.9613
Ave special neighs/atom = 11.1191
Neighbor list builds = 0
Dangerous builds = 0
write_dump all custom pysimm.dump.tmp id q x y z vx vy vz
quit


################################################################################
##################################    Init    ##################################
################################################################################
units           real
atom_style      full
pair_style      lj/cut/coul/long 12.0  12.0
kspace_style    pppm 1e-4
bond_style      harmonic
angle_style     harmonic
dihedral_style  fourier
improper_style  cvff
special_bonds   amber
pair_modify     mix arithmetic
read_data       temp.lmps
  orthogonal box = (-144.738 -144.738 -144.738) to (144.738 144.738 144.738)
  1 by 1 by 1 MPI processor grid
  reading atoms ...
  755 atoms
  reading velocities ...
  755 velocities
  scanning bonds ...
  3 = max bonds/atom
  scanning angles ...
  6 = max angles/atom
  scanning dihedrals ...
  24 = max dihedrals/atom
  scanning impropers ...
  2 = max impropers/atom
  reading bonds ...
  832 bonds
  reading angles ...
  1415 angles
  reading dihedrals ...
  2226 dihedrals
  reading impropers ...
  260 impropers
  4 = max # of 1-2 neighbors
  10 = max # of 1-3 neighbors
  19 = max # of 1-4 neighbors
  22 = max # of special neighbors
  special bonds CPU = 0.000754118 secs
  read_data CPU = 0.00973797 secs
################################################################################

min_style cg
minimize 1e-06 1e-06 1000000 10000000
WARNING: Using 'neigh_modify every 1 delay 0 check yes' setting during minimization (../min.cpp:190)
PPPM initialization ...
WARNING: System is not charge neutral, net charge = 3.9e-05 (../kspace.cpp:313)
  using 12-bit tables for long-range coulomb (../kspace.cpp:332)
  G vector (1/distance) = 0.0642164
  grid = 15 15 15
  stencil order = 5
  estimated absolute RMS force accuracy = 0.0378686
  estimated relative force accuracy = 0.00011404
  using double precision KISS FFT
  3d grid and FFT values/proc = 8000 3375
Neighbor list info ...
  update every 1 steps, delay 0 steps, check yes
  max neighbors/atom: 2000, page size: 100000
  master list distance cutoff = 14
  ghost atom cutoff = 14
  binsize = 7, bins = 42 42 42
  1 neighbor lists, perpetual/occasional/extra = 1 0 0
  (1) pair lj/cut/coul/long, perpetual
      attributes: half, newton on
      pair build: half/bin/newton
      stencil: half/bin/3d/newton
      bin: standard
Per MPI rank memory allocation (min/avg/max) = 19.9 | 19.9 | 19.9 Mbytes
Step Temp E_pair E_mol TotEng Press 
       0    1359.0974     329.4372    1359.8432    4743.8936    4.7551646 
       9    1359.0974    329.93432    1241.6166    4626.1641    5.4495853 
Loop time of 0.228553 on 1 procs for 9 steps with 755 atoms

100.2% CPU use with 1 MPI tasks x no OpenMP threads

Minimization stats:
  Stopping criterion = linesearch alpha is zero
  Energy initial, next-to-last, final = 
         1689.28037438      1571.55089731      1571.55089731
  Force two-norm initial, final = 586.284 58.7257
  Force max component initial, final = 272.109 17.65
  Final line search alpha, max atom move = 2.11366e-12 3.73061e-11
  Iterations, force evaluations = 9 77

MPI task timing breakdown:
Section |  min time  |  avg time  |  max time  |%varavg| %total
---------------------------------------------------------------
Pair    | 0.10491    | 0.10491    | 0.10491    |   0.0 | 45.90
Bond    | 0.02915    | 0.02915    | 0.02915    |   0.0 | 12.75
Kspace  | 0.093513   | 0.093513   | 0.093513   |   0.0 | 40.92
Neigh   | 0          | 0          | 0          |   0.0 |  0.00
Comm    | 3.0041e-05 | 3.0041e-05 | 3.0041e-05 |   0.0 |  0.01
Output  | 0          | 0          | 0          |   0.0 |  0.00
Modify  | 0          | 0          | 0          |   0.0 |  0.00
Other   |            | 0.000953   |            |       |  0.42

Nlocal:    755 ave 755 max 755 min
Histogram: 1 0 0 0 0 0 0 0 0 0
Nghost:    0 ave 0 max 0 min
Histogram: 1 0 0 0 0 0 0 0 0 0
Neighs:    38012 ave 38012 max 38012 min
Histogram: 1 0 0 0 0 0 0 0 0 0

Total # of neighbors = 38012
Ave neighs/atom = 50.347
Ave special neighs/atom = 11.1232
Neighbor list builds = 0
Dangerous builds = 0
write_dump all custom pysimm.dump.tmp id q x y z vx vy vz
quit


################################################################################
##################################    Init    ##################################
################################################################################
units           real
atom_style      full
pair_style      lj/cut/coul/long 12.0  12.0
kspace_style    pppm 1e-4
bond_style      harmonic
angle_style     harmonic
dihedral_style  fourier
improper_style  cvff
special_bonds   amber
pair_modify     mix arithmetic
read_data       temp.lmps
  orthogonal box = (-148.651 -148.651 -148.651) to (148.651 148.651 148.651)
  1 by 1 by 1 MPI processor grid
  reading atoms ...
  813 atoms
  reading velocities ...
  813 velocities
  scanning bonds ...
  3 = max bonds/atom
  scanning angles ...
  6 = max angles/atom
  scanning dihedrals ...
  24 = max dihedrals/atom
  scanning impropers ...
  2 = max impropers/atom
  reading bonds ...
  896 bonds
  reading angles ...
  1524 angles
  reading dihedrals ...
  2398 dihedrals
  reading impropers ...
  280 impropers
  4 = max # of 1-2 neighbors
  10 = max # of 1-3 neighbors
  19 = max # of 1-4 neighbors
  22 = max # of special neighbors
  special bonds CPU = 0.000802994 secs
  read_data CPU = 0.0103612 secs
################################################################################

min_style cg
minimize 1e-06 1e-06 1000000 10000000
WARNING: Using 'neigh_modify every 1 delay 0 check yes' setting during minimization (../min.cpp:190)
PPPM initialization ...
WARNING: System is not charge neutral, net charge = 4.2e-05 (../kspace.cpp:313)
  using 12-bit tables for long-range coulomb (../kspace.cpp:332)
  G vector (1/distance) = 0.066273
  grid = 16 16 16
  stencil order = 5
  estimated absolute RMS force accuracy = 0.0363269
  estimated relative force accuracy = 0.000109397
  using double precision KISS FFT
  3d grid and FFT values/proc = 9261 4096
Neighbor list info ...
  update every 1 steps, delay 0 steps, check yes
  max neighbors/atom: 2000, page size: 100000
  master list distance cutoff = 14
  ghost atom cutoff = 14
  binsize = 7, bins = 43 43 43
  1 neighbor lists, perpetual/occasional/extra = 1 0 0
  (1) pair lj/cut/coul/long, perpetual
      attributes: half, newton on
      pair build: half/bin/newton
      stencil: half/bin/3d/newton
      bin: standard
Per MPI rank memory allocation (min/avg/max) = 20.05 | 20.05 | 20.05 Mbytes
Step Temp E_pair E_mol TotEng Press 
       0    1380.0125    329.91835    1523.2247    5193.3497     5.028726 
      11    1380.0125    328.78962    1389.9979    5058.9943     5.986732 
Loop time of 0.280977 on 1 procs for 11 steps with 813 atoms

100.3% CPU use with 1 MPI tasks x no OpenMP threads

Minimization stats:
  Stopping criterion = linesearch alpha is zero
  Energy initial, next-to-last, final = 
         1853.14301283      1718.78756302      1718.78756302
  Force two-norm initial, final = 588.292 65.4813
  Force max component initial, final = 366.118 24.9414
  Final line search alpha, max atom move = 2.7705e-12 6.91002e-11
  Iterations, force evaluations = 11 78

MPI task timing breakdown:
Section |  min time  |  avg time  |  max time  |%varavg| %total
---------------------------------------------------------------
Pair    | 0.14092    | 0.14092    | 0.14092    |   0.0 | 50.15
Bond    | 0.031961   | 0.031961   | 0.031961   |   0.0 | 11.37
Kspace  | 0.10698    | 0.10698    | 0.10698    |   0.0 | 38.07
Neigh   | 0          | 0          | 0          |   0.0 |  0.00
Comm    | 3.0518e-05 | 3.0518e-05 | 3.0518e-05 |   0.0 |  0.01
Output  | 0          | 0          | 0          |   0.0 |  0.00
Modify  | 0          | 0          | 0          |   0.0 |  0.00
Other   |            | 0.001082   |            |       |  0.39

Nlocal:    813 ave 813 max 813 min
Histogram: 1 0 0 0 0 0 0 0 0 0
Nghost:    0 ave 0 max 0 min
Histogram: 1 0 0 0 0 0 0 0 0 0
Neighs:    50529 ave 50529 max 50529 min
Histogram: 1 0 0 0 0 0 0 0 0 0

Total # of neighbors = 50529
Ave neighs/atom = 62.1513
Ave special neighs/atom = 11.1267
Neighbor list builds = 0
Dangerous builds = 0
write_dump all custom pysimm.dump.tmp id q x y z vx vy vz
quit


################################################################################
##################################    Init    ##################################
################################################################################
units           real
atom_style      full
pair_style      lj/cut/coul/long 12.0  12.0
kspace_style    pppm 1e-4
bond_style      harmonic
angle_style     harmonic
dihedral_style  fourier
improper_style  cvff
special_bonds   amber
pair_modify     mix arithmetic
read_data       temp.lmps
  orthogonal box = (-108.105 -108.105 -108.105) to (108.105 108.105 108.105)
  1 by 1 by 1 MPI processor grid
  reading atoms ...
  581 atoms
  reading velocities ...
  581 velocities
  scanning bonds ...
  3 = max bonds/atom
  scanning angles ...
  6 = max angles/atom
  scanning dihedrals ...
  24 = max dihedrals/atom
  scanning impropers ...
  2 = max impropers/atom
  reading bonds ...
  640 bonds
  reading angles ...
  1097 angles
  reading dihedrals ...
  1710 dihedrals
  reading impropers ...
  200 impropers
  4 = max # of 1-2 neighbors
  10 = max # of 1-3 neighbors
  19 = max # of 1-4 neighbors
  22 = max # of special neighbors
  special bonds CPU = 0.000624895 secs
  read_data CPU = 0.00830221 secs
################################################################################

min_style cg
minimize 1e-06 1e-06 1000000 10000000
WARNING: Using 'neigh_modify every 1 delay 0 check yes' setting during minimization (../min.cpp:190)
PPPM initialization ...
WARNING: System is not charge neutral, net charge = 3e-05 (../kspace.cpp:313)
  using 12-bit tables for long-range coulomb (../kspace.cpp:332)
  G vector (1/distance) = 0.0813248
  grid = 15 15 15
  stencil order = 5
  estimated absolute RMS force accuracy = 0.0359438
  estimated relative force accuracy = 0.000108244
  using double precision KISS FFT
  3d grid and FFT values/proc = 8000 3375
Neighbor list info ...
  update every 1 steps, delay 0 steps, check yes
  max neighbors/atom: 2000, page size: 100000
  master list distance cutoff = 14
  ghost atom cutoff = 14
  binsize = 7, bins = 31 31 31
  1 neighbor lists, perpetual/occasional/extra = 1 0 0
  (1) pair lj/cut/coul/long, perpetual
      attributes: half, newton on
      pair build: half/bin/newton
      stencil: half/bin/3d/newton
      bin: standard
Per MPI rank memory allocation (min/avg/max) = 19.67 | 19.67 | 19.67 Mbytes
Step Temp E_pair E_mol TotEng Press 
       0    297.49339    141.85058    1214.5821      1870.76   0.94176322 
      12    297.49339    140.30313    1102.4611    1757.0916    2.4903217 
Loop time of 0.222285 on 1 procs for 12 steps with 581 atoms

100.3% CPU use with 1 MPI tasks x no OpenMP threads

Minimization stats:
  Stopping criterion = linesearch alpha is zero
  Energy initial, next-to-last, final = 
         1356.43264924      1242.76424018      1242.76424018
  Force two-norm initial, final = 583.636 39.4191
  Force max component initial, final = 373.264 12.4784
  Final line search alpha, max atom move = 5.13963e-12 6.41344e-11
  Iterations, force evaluations = 12 80

MPI task timing breakdown:
Section |  min time  |  avg time  |  max time  |%varavg| %total
---------------------------------------------------------------
Pair    | 0.10994    | 0.10994    | 0.10994    |   0.0 | 49.46
Bond    | 0.023554   | 0.023554   | 0.023554   |   0.0 | 10.60
Kspace  | 0.087909   | 0.087909   | 0.087909   |   0.0 | 39.55
Neigh   | 0          | 0          | 0          |   0.0 |  0.00
Comm    | 4.2439e-05 | 4.2439e-05 | 4.2439e-05 |   0.0 |  0.02
Output  | 0          | 0          | 0          |   0.0 |  0.00
Modify  | 0          | 0          | 0          |   0.0 |  0.00
Other   |            | 0.0008421  |            |       |  0.38

Nlocal:    581 ave 581 max 581 min
Histogram: 1 0 0 0 0 0 0 0 0 0
Nghost:    0 ave 0 max 0 min
Histogram: 1 0 0 0 0 0 0 0 0 0
Neighs:    38085 ave 38085 max 38085 min
Histogram: 1 0 0 0 0 0 0 0 0 0

Total # of neighbors = 38085
Ave neighs/atom = 65.5508
Ave special neighs/atom = 11.1084
Neighbor list builds = 0
Dangerous builds = 0
write_dump all custom pysimm.dump.tmp id q x y z vx vy vz
quit


################################################################################
##################################    Init    ##################################
################################################################################
units           real
atom_style      full
pair_style      lj/cut/coul/long 12.0  12.0
kspace_style    pppm 1e-4
bond_style      harmonic
angle_style     harmonic
dihedral_style  fourier
improper_style  cvff
special_bonds   amber
pair_modify     mix arithmetic
read_data       temp.lmps
  orthogonal box = (-136.203 -136.203 -136.203) to (136.203 136.203 136.203)
  1 by 1 by 1 MPI processor grid
  reading atoms ...
  639 atoms
  reading velocities ...
  639 velocities
  scanning bonds ...
  3 = max bonds/atom
  scanning angles ...
  6 = max angles/atom
  scanning dihedrals ...
  24 = max dihedrals/atom
  scanning impropers ...
  2 = max impropers/atom
  reading bonds ...
  704 bonds
  reading angles ...
  1207 angles
  reading dihedrals ...
  1882 dihedrals
  reading impropers ...
  220 impropers
  4 = max # of 1-2 neighbors
  10 = max # of 1-3 neighbors
  19 = max # of 1-4 neighbors
  22 = max # of special neighbors
  special bonds CPU = 0.000672102 secs
  read_data CPU = 0.00872517 secs
################################################################################

min_style cg
minimize 1e-06 1e-06 1000000 10000000
WARNING: Using 'neigh_modify every 1 delay 0 check yes' setting during minimization (../min.cpp:190)
PPPM initialization ...
WARNING: System is not charge neutral, net charge = 3.3e-05 (../kspace.cpp:313)
  using 12-bit tables for long-range coulomb (../kspace.cpp:332)
  G vector (1/distance) = 0.0675418
  grid = 15 15 15
  stencil order = 5
  estimated absolute RMS force accuracy = 0.0358213
  estimated relative force accuracy = 0.000107875
  using double precision KISS FFT
  3d grid and FFT values/proc = 8000 3375
Neighbor list info ...
  update every 1 steps, delay 0 steps, check yes
  max neighbors/atom: 2000, page size: 100000
  master list distance cutoff = 14
  ghost atom cutoff = 14
  binsize = 7, bins = 39 39 39
  1 neighbor lists, perpetual/occasional/extra = 1 0 0
  (1) pair lj/cut/coul/long, perpetual
      attributes: half, newton on
      pair build: half/bin/newton
      stencil: half/bin/3d/newton
      bin: standard
Per MPI rank memory allocation (min/avg/max) = 19.82 | 19.82 | 19.82 Mbytes
Step Temp E_pair E_mol TotEng Press 
       0    969.39172      157.422    1434.2409    3435.2102    2.9129796 
      11    969.39172    155.37716    1316.6161    3315.5406    3.7700079 
Loop time of 0.227084 on 1 procs for 11 steps with 639 atoms

99.9% CPU use with 1 MPI tasks x no OpenMP threads

Minimization stats:
  Stopping criterion = linesearch alpha is zero
  Energy initial, next-to-last, final = 
         1591.66293862      1471.99326576      1471.99326576
  Force two-norm initial, final = 583.405 56.7834
  Force max component initial, final = 396.529 14.4403
  Final line search alpha, max atom move = 3.06412e-12 4.42467e-11
  Iterations, force evaluations = 11 78

MPI task timing breakdown:
Section |  min time  |  avg time  |  max time  |%varavg| %total
---------------------------------------------------------------
Pair    | 0.11221    | 0.11221    | 0.11221    |   0.0 | 49.41
Bond    | 0.024954   | 0.024954   | 0.024954   |   0.0 | 10.99
Kspace  | 0.089002   | 0.089002   | 0.089002   |   0.0 | 39.19
Neigh   | 0          | 0          | 0          |   0.0 |  0.00
Comm    | 4.7922e-05 | 4.7922e-05 | 4.7922e-05 |   0.0 |  0.02
Output  | 0          | 0          | 0          |   0.0 |  0.00
Modify  | 0          | 0          | 0          |   0.0 |  0.00
Other   |            | 0.0008695  |            |       |  0.38

Nlocal:    639 ave 639 max 639 min
Histogram: 1 0 0 0 0 0 0 0 0 0
Nghost:    0 ave 0 max 0 min
Histogram: 1 0 0 0 0 0 0 0 0 0
Neighs:    41293 ave 41293 max 41293 min
Histogram: 1 0 0 0 0 0 0 0 0 0

Total # of neighbors = 41293
Ave neighs/atom = 64.6213
Ave special neighs/atom = 11.1142
Neighbor list builds = 0
Dangerous builds = 0
write_dump all custom pysimm.dump.tmp id q x y z vx vy vz
quit


################################################################################
##################################    Init    ##################################
################################################################################
units           real
atom_style      full
pair_style      lj/cut/coul/long 12.0  12.0
kspace_style    pppm 1e-4
bond_style      harmonic
angle_style     harmonic
dihedral_style  fourier
improper_style  cvff
special_bonds   amber
pair_modify     mix arithmetic
read_data       temp.lmps
  orthogonal box = (-140.6 -140.6 -140.6) to (140.6 140.6 140.6)
  1 by 1 by 1 MPI processor grid
  reading atoms ...
  697 atoms
  reading velocities ...
  697 velocities
  scanning bonds ...
  3 = max bonds/atom
  scanning angles ...
  6 = max angles/atom
  scanning dihedrals ...
  24 = max dihedrals/atom
  scanning impropers ...
  2 = max impropers/atom
  reading bonds ...
  768 bonds
  reading angles ...
  1317 angles
  reading dihedrals ...
  2054 dihedrals
  reading impropers ...
  240 impropers
  4 = max # of 1-2 neighbors
  10 = max # of 1-3 neighbors
  19 = max # of 1-4 neighbors
  22 = max # of special neighbors
  special bonds CPU = 0.00071311 secs
  read_data CPU = 0.00929284 secs
################################################################################

min_style cg
minimize 1e-06 1e-06 1000000 10000000
WARNING: Using 'neigh_modify every 1 delay 0 check yes' setting during minimization (../min.cpp:190)
PPPM initialization ...
WARNING: System is not charge neutral, net charge = 3.6e-05 (../kspace.cpp:313)
  using 12-bit tables for long-range coulomb (../kspace.cpp:332)
  G vector (1/distance) = 0.0657876
  grid = 15 15 15
  stencil order = 5
  estimated absolute RMS force accuracy = 0.0368972
  estimated relative force accuracy = 0.000111115
  using double precision KISS FFT
  3d grid and FFT values/proc = 8000 3375
Neighbor list info ...
  update every 1 steps, delay 0 steps, check yes
  max neighbors/atom: 2000, page size: 100000
  master list distance cutoff = 14
  ghost atom cutoff = 14
  binsize = 7, bins = 41 41 41
  1 neighbor lists, perpetual/occasional/extra = 1 0 0
  (1) pair lj/cut/coul/long, perpetual
      attributes: half, newton on
      pair build: half/bin/newton
      stencil: half/bin/3d/newton
      bin: standard
Per MPI rank memory allocation (min/avg/max) = 19.87 | 19.87 | 19.87 Mbytes
Step Temp E_pair E_mol TotEng Press 
       0    1589.8108    206.07855    1632.6397    5137.0094    5.5481303 
      11    1589.8108    197.25914    1508.2033    5003.7536    6.3037255 
Loop time of 0.265082 on 1 procs for 11 steps with 697 atoms

100.0% CPU use with 1 MPI tasks x no OpenMP threads

Minimization stats:
  Stopping criterion = linesearch alpha is zero
  Energy initial, next-to-last, final = 
          1838.7182809      1705.46248193      1705.46248193
  Force two-norm initial, final = 587.281 75.6565
  Force max component initial, final = 415.848 32.706
  Final line search alpha, max atom move = 1.35637e-12 4.43616e-11
  Iterations, force evaluations = 11 79

MPI task timing breakdown:
Section |  min time  |  avg time  |  max time  |%varavg| %total
---------------------------------------------------------------
Pair    | 0.14017    | 0.14017    | 0.14017    |   0.0 | 52.88
Bond    | 0.027558   | 0.027558   | 0.027558   |   0.0 | 10.40
Kspace  | 0.096329   | 0.096329   | 0.096329   |   0.0 | 36.34
Neigh   | 0          | 0          | 0          |   0.0 |  0.00
Comm    | 3.2663e-05 | 3.2663e-05 | 3.2663e-05 |   0.0 |  0.01
Output  | 0          | 0          | 0          |   0.0 |  0.00
Modify  | 0          | 0          | 0          |   0.0 |  0.00
Other   |            | 0.0009952  |            |       |  0.38

Nlocal:    697 ave 697 max 697 min
Histogram: 1 0 0 0 0 0 0 0 0 0
Nghost:    0 ave 0 max 0 min
Histogram: 1 0 0 0 0 0 0 0 0 0
Neighs:    52157 ave 52157 max 52157 min
Histogram: 1 0 0 0 0 0 0 0 0 0

Total # of neighbors = 52157
Ave neighs/atom = 74.8307
Ave special neighs/atom = 11.1191
Neighbor list builds = 0
Dangerous builds = 0
write_dump all custom pysimm.dump.tmp id q x y z vx vy vz
quit


################################################################################
##################################    Init    ##################################
################################################################################
units           real
atom_style      full
pair_style      lj/cut/coul/long 12.0  12.0
kspace_style    pppm 1e-4
bond_style      harmonic
angle_style     harmonic
dihedral_style  fourier
improper_style  cvff
special_bonds   amber
pair_modify     mix arithmetic
read_data       temp.lmps
  orthogonal box = (-144.738 -144.738 -144.738) to (144.738 144.738 144.738)
  1 by 1 by 1 MPI processor grid
  reading atoms ...
  755 atoms
  reading velocities ...
  755 velocities
  scanning bonds ...
  3 = max bonds/atom
  scanning angles ...
  6 = max angles/atom
  scanning dihedrals ...
  24 = max dihedrals/atom
  scanning impropers ...
  2 = max impropers/atom
  reading bonds ...
  832 bonds
  reading angles ...
  1427 angles
  reading dihedrals ...
  2226 dihedrals
  reading impropers ...
  260 impropers
  4 = max # of 1-2 neighbors
  10 = max # of 1-3 neighbors
  19 = max # of 1-4 neighbors
  22 = max # of special neighbors
  special bonds CPU = 0.000751972 secs
  read_data CPU = 0.00977898 secs
################################################################################

min_style cg
minimize 1e-06 1e-06 1000000 10000000
WARNING: Using 'neigh_modify every 1 delay 0 check yes' setting during minimization (../min.cpp:190)
PPPM initialization ...
WARNING: System is not charge neutral, net charge = 3.9e-05 (../kspace.cpp:313)
  using 12-bit tables for long-range coulomb (../kspace.cpp:332)
  G vector (1/distance) = 0.0642164
  grid = 15 15 15
  stencil order = 5
  estimated absolute RMS force accuracy = 0.0378686
  estimated relative force accuracy = 0.00011404
  using double precision KISS FFT
  3d grid and FFT values/proc = 8000 3375
Neighbor list info ...
  update every 1 steps, delay 0 steps, check yes
  max neighbors/atom: 2000, page size: 100000
  master list distance cutoff = 14
  ghost atom cutoff = 14
  binsize = 7, bins = 42 42 42
  1 neighbor lists, perpetual/occasional/extra = 1 0 0
  (1) pair lj/cut/coul/long, perpetual
      attributes: half, newton on
      pair build: half/bin/newton
      stencil: half/bin/3d/newton
      bin: standard
Per MPI rank memory allocation (min/avg/max) = 19.9 | 19.9 | 19.9 Mbytes
Step Temp E_pair E_mol TotEng Press 
       0    1053.9495    218.64551    1696.5627    4283.9922    4.1259185 
      21    1053.9495    199.37541    1544.9192    4113.0786    4.2119768 
Loop time of 0.352537 on 1 procs for 21 steps with 755 atoms

100.1% CPU use with 1 MPI tasks x no OpenMP threads

Minimization stats:
  Stopping criterion = linesearch alpha is zero
  Energy initial, next-to-last, final = 
         1915.20825494      1744.29465288      1744.29465288
  Force two-norm initial, final = 586.453 77.0048
  Force max component initial, final = 403.113 15.2325
  Final line search alpha, max atom move = 2.07587e-12 3.16208e-11
  Iterations, force evaluations = 21 98

MPI task timing breakdown:
Section |  min time  |  avg time  |  max time  |%varavg| %total
---------------------------------------------------------------
Pair    | 0.19526    | 0.19526    | 0.19526    |   0.0 | 55.39
Bond    | 0.037083   | 0.037083   | 0.037083   |   0.0 | 10.52
Kspace  | 0.11876    | 0.11876    | 0.11876    |   0.0 | 33.69
Neigh   | 0          | 0          | 0          |   0.0 |  0.00
Comm    | 4.7445e-05 | 4.7445e-05 | 4.7445e-05 |   0.0 |  0.01
Output  | 0          | 0          | 0          |   0.0 |  0.00
Modify  | 0          | 0          | 0          |   0.0 |  0.00
Other   |            | 0.001383   |            |       |  0.39

Nlocal:    755 ave 755 max 755 min
Histogram: 1 0 0 0 0 0 0 0 0 0
Nghost:    0 ave 0 max 0 min
Histogram: 1 0 0 0 0 0 0 0 0 0
Neighs:    58316 ave 58316 max 58316 min
Histogram: 1 0 0 0 0 0 0 0 0 0

Total # of neighbors = 58316
Ave neighs/atom = 77.2397
Ave special neighs/atom = 11.1232
Neighbor list builds = 0
Dangerous builds = 0
write_dump all custom pysimm.dump.tmp id q x y z vx vy vz
quit


################################################################################
##################################    Init    ##################################
################################################################################
units           real
atom_style      full
pair_style      lj/cut/coul/long 12.0  12.0
kspace_style    pppm 1e-4
bond_style      harmonic
angle_style     harmonic
dihedral_style  fourier
improper_style  cvff
special_bonds   amber
pair_modify     mix arithmetic
read_data       temp.lmps
  orthogonal box = (-148.651 -148.651 -148.651) to (148.651 148.651 148.651)
  1 by 1 by 1 MPI processor grid
  reading atoms ...
  813 atoms
  reading velocities ...
  813 velocities
  scanning bonds ...
  3 = max bonds/atom
  scanning angles ...
  6 = max angles/atom
  scanning dihedrals ...
  24 = max dihedrals/atom
  scanning impropers ...
  2 = max impropers/atom
  reading bonds ...
  896 bonds
  reading angles ...
  1537 angles
  reading dihedrals ...
  2398 dihedrals
  reading impropers ...
  280 impropers
  4 = max # of 1-2 neighbors
  10 = max # of 1-3 neighbors
  19 = max # of 1-4 neighbors
  22 = max # of special neighbors
  special bonds CPU = 0.000845909 secs
  read_data CPU = 0.0106411 secs
################################################################################

min_style cg
minimize 1e-06 1e-06 1000000 10000000
WARNING: Using 'neigh_modify every 1 delay 0 check yes' setting during minimization (../min.cpp:190)
PPPM initialization ...
WARNING: System is not charge neutral, net charge = 4.2e-05 (../kspace.cpp:313)
  using 12-bit tables for long-range coulomb (../kspace.cpp:332)
  G vector (1/distance) = 0.066273
  grid = 16 16 16
  stencil order = 5
  estimated absolute RMS force accuracy = 0.0363269
  estimated relative force accuracy = 0.000109397
  using double precision KISS FFT
  3d grid and FFT values/proc = 9261 4096
Neighbor list info ...
  update every 1 steps, delay 0 steps, check yes
  max neighbors/atom: 2000, page size: 100000
  master list distance cutoff = 14
  ghost atom cutoff = 14
  binsize = 7, bins = 43 43 43
  1 neighbor lists, perpetual/occasional/extra = 1 0 0
  (1) pair lj/cut/coul/long, perpetual
      attributes: half, newton on
      pair build: half/bin/newton
      stencil: half/bin/3d/newton
      bin: standard
Per MPI rank memory allocation (min/avg/max) = 20.05 | 20.05 | 20.05 Mbytes
Step Temp E_pair E_mol TotEng Press 
       0    1157.2554    231.75178    1717.1418     4749.935    4.4695951 
       8    1157.2554    230.04233    1599.6681    4630.7519    5.0180439 
Loop time of 0.286388 on 1 procs for 8 steps with 813 atoms

100.5% CPU use with 1 MPI tasks x no OpenMP threads

Minimization stats:
  Stopping criterion = linesearch alpha is zero
  Energy initial, next-to-last, final = 
         1948.89353449      1829.71043663      1829.71043663
  Force two-norm initial, final = 584.554 46.0617
  Force max component initial, final = 355.972 14.0106
  Final line search alpha, max atom move = 3.53671e-12 4.95514e-11
  Iterations, force evaluations = 8 75

MPI task timing breakdown:
Section |  min time  |  avg time  |  max time  |%varavg| %total
---------------------------------------------------------------
Pair    | 0.15227    | 0.15227    | 0.15227    |   0.0 | 53.17
Bond    | 0.030496   | 0.030496   | 0.030496   |   0.0 | 10.65
Kspace  | 0.10258    | 0.10258    | 0.10258    |   0.0 | 35.82
Neigh   | 0          | 0          | 0          |   0.0 |  0.00
Comm    | 5.3406e-05 | 5.3406e-05 | 5.3406e-05 |   0.0 |  0.02
Output  | 0          | 0          | 0          |   0.0 |  0.00
Modify  | 0          | 0          | 0          |   0.0 |  0.00
Other   |            | 0.0009794  |            |       |  0.34

Nlocal:    813 ave 813 max 813 min
Histogram: 1 0 0 0 0 0 0 0 0 0
Nghost:    0 ave 0 max 0 min
Histogram: 1 0 0 0 0 0 0 0 0 0
Neighs:    57556 ave 57556 max 57556 min
Histogram: 1 0 0 0 0 0 0 0 0 0

Total # of neighbors = 57556
Ave neighs/atom = 70.7946
Ave special neighs/atom = 11.1267
Neighbor list builds = 0
Dangerous builds = 0
write_dump all custom pysimm.dump.tmp id q x y z vx vy vz
quit


################################################################################
##################################    Init    ##################################
################################################################################
units           real
atom_style      full
pair_style      lj/cut/coul/long 12.0  12.0
kspace_style    pppm 1e-4
bond_style      harmonic
angle_style     harmonic
dihedral_style  fourier
improper_style  cvff
special_bonds   amber
pair_modify     mix arithmetic
read_data       temp.lmps
  orthogonal box = (-152.369 -152.369 -152.369) to (152.369 152.369 152.369)
  1 by 1 by 1 MPI processor grid
  reading atoms ...
  871 atoms
  reading velocities ...
  871 velocities
  scanning bonds ...
  3 = max bonds/atom
  scanning angles ...
  6 = max angles/atom
  scanning dihedrals ...
  24 = max dihedrals/atom
  scanning impropers ...
  2 = max impropers/atom
  reading bonds ...
  960 bonds
  reading angles ...
  1647 angles
  reading dihedrals ...
  2570 dihedrals
  reading impropers ...
  300 impropers
  4 = max # of 1-2 neighbors
  10 = max # of 1-3 neighbors
  19 = max # of 1-4 neighbors
  22 = max # of special neighbors
  special bonds CPU = 0.000819921 secs
  read_data CPU = 0.0107229 secs
################################################################################

min_style cg
minimize 1e-06 1e-06 1000000 10000000
WARNING: Using 'neigh_modify every 1 delay 0 check yes' setting during minimization (../min.cpp:190)
PPPM initialization ...
WARNING: System is not charge neutral, net charge = 4.5e-05 (../kspace.cpp:313)
  using 12-bit tables for long-range coulomb (../kspace.cpp:332)
  G vector (1/distance) = 0.0649254
  grid = 16 16 16
  stencil order = 5
  estimated absolute RMS force accuracy = 0.0371699
  estimated relative force accuracy = 0.000111936
  using double precision KISS FFT
  3d grid and FFT values/proc = 9261 4096
Neighbor list info ...
  update every 1 steps, delay 0 steps, check yes
  max neighbors/atom: 2000, page size: 100000
  master list distance cutoff = 14
  ghost atom cutoff = 14
  binsize = 7, bins = 44 44 44
  1 neighbor lists, perpetual/occasional/extra = 1 0 0
  (1) pair lj/cut/coul/long, perpetual
      attributes: half, newton on
      pair build: half/bin/newton
      stencil: half/bin/3d/newton
      bin: standard
Per MPI rank memory allocation (min/avg/max) = 20.08 | 20.08 | 20.08 Mbytes
Step Temp E_pair E_mol TotEng Press 
       0    1823.2986    842.66217    3440.6804    9011.7116     7.146162 
      37    1823.2986    798.55967    3263.5562    8790.4849    7.3545374 
Loop time of 0.586296 on 1 procs for 37 steps with 871 atoms

99.9% CPU use with 1 MPI tasks x no OpenMP threads

Minimization stats:
  Stopping criterion = linesearch alpha is zero
  Energy initial, next-to-last, final = 
         4283.34255568      4062.11586442      4062.11586442
  Force two-norm initial, final = 597.737 107.394
  Force max component initial, final = 393.748 54.0182
  Final line search alpha, max atom move = 8.72484e-13 4.713e-11
  Iterations, force evaluations = 37 133

MPI task timing breakdown:
Section |  min time  |  avg time  |  max time  |%varavg| %total
---------------------------------------------------------------
Pair    | 0.33983    | 0.33983    | 0.33983    |   0.0 | 57.96
Bond    | 0.05763    | 0.05763    | 0.05763    |   0.0 |  9.83
Kspace  | 0.18651    | 0.18651    | 0.18651    |   0.0 | 31.81
Neigh   | 0          | 0          | 0          |   0.0 |  0.00
Comm    | 6.8426e-05 | 6.8426e-05 | 6.8426e-05 |   0.0 |  0.01
Output  | 0          | 0          | 0          |   0.0 |  0.00
Modify  | 0          | 0          | 0          |   0.0 |  0.00
Other   |            | 0.002248   |            |       |  0.38

Nlocal:    871 ave 871 max 871 min
Histogram: 1 0 0 0 0 0 0 0 0 0
Nghost:    0 ave 0 max 0 min
Histogram: 1 0 0 0 0 0 0 0 0 0
Neighs:    76330 ave 76330 max 76330 min
Histogram: 1 0 0 0 0 0 0 0 0 0

Total # of neighbors = 76330
Ave neighs/atom = 87.6349
Ave special neighs/atom = 11.1297
Neighbor list builds = 0
Dangerous builds = 0
write_dump all custom pysimm.dump.tmp id q x y z vx vy vz
quit


################################################################################
##################################    Init    ##################################
################################################################################
units           real
atom_style      full
pair_style      lj/cut/coul/long 12.0  12.0
kspace_style    pppm 1e-4
bond_style      harmonic
angle_style     harmonic
dihedral_style  fourier
improper_style  cvff
special_bonds   amber
pair_modify     mix arithmetic
read_data       temp.lmps
  orthogonal box = (-155.914 -155.914 -155.914) to (155.914 155.914 155.914)
  1 by 1 by 1 MPI processor grid
  reading atoms ...
  929 atoms
  reading velocities ...
  929 velocities
  scanning bonds ...
  3 = max bonds/atom
  scanning angles ...
  6 = max angles/atom
  scanning dihedrals ...
  24 = max dihedrals/atom
  scanning impropers ...
  2 = max impropers/atom
  reading bonds ...
  1024 bonds
  reading angles ...
  1757 angles
  reading dihedrals ...
  2742 dihedrals
  reading impropers ...
  320 impropers
  4 = max # of 1-2 neighbors
  10 = max # of 1-3 neighbors
  19 = max # of 1-4 neighbors
  22 = max # of special neighbors
  special bonds CPU = 0.000862122 secs
  read_data CPU = 0.011261 secs
################################################################################

min_style cg
minimize 1e-06 1e-06 1000000 10000000
WARNING: Using 'neigh_modify every 1 delay 0 check yes' setting during minimization (../min.cpp:190)
PPPM initialization ...
WARNING: System is not charge neutral, net charge = 4.8e-05 (../kspace.cpp:313)
  using 12-bit tables for long-range coulomb (../kspace.cpp:332)
  G vector (1/distance) = 0.0636897
  grid = 16 16 16
  stencil order = 5
  estimated absolute RMS force accuracy = 0.0379471
  estimated relative force accuracy = 0.000114277
  using double precision KISS FFT
  3d grid and FFT values/proc = 9261 4096
Neighbor list info ...
  update every 1 steps, delay 0 steps, check yes
  max neighbors/atom: 2000, page size: 100000
  master list distance cutoff = 14
  ghost atom cutoff = 14
  binsize = 7, bins = 45 45 45
  1 neighbor lists, perpetual/occasional/extra = 1 0 0
  (1) pair lj/cut/coul/long, perpetual
      attributes: half, newton on
      pair build: half/bin/newton
      stencil: half/bin/3d/newton
      bin: standard
Per MPI rank memory allocation (min/avg/max) = 20.12 | 20.12 | 20.12 Mbytes
Step Temp E_pair E_mol TotEng Press 
       0     1510.575    823.28062     3526.916    8528.7367    5.5527645 
      22     1510.575    826.83374    3316.7403    8322.1141    6.6090641 
Loop time of 0.519819 on 1 procs for 22 steps with 929 atoms

100.0% CPU use with 1 MPI tasks x no OpenMP threads

Minimization stats:
  Stopping criterion = linesearch alpha is zero
  Energy initial, next-to-last, final = 
         4350.19665586       4143.5740622       4143.5740622
  Force two-norm initial, final = 608.915 120.469
  Force max component initial, final = 347.009 50.6831
  Final line search alpha, max atom move = 4.51694e-13 2.28932e-11
  Iterations, force evaluations = 22 106

MPI task timing breakdown:
Section |  min time  |  avg time  |  max time  |%varavg| %total
---------------------------------------------------------------
Pair    | 0.3169     | 0.3169     | 0.3169     |   0.0 | 60.96
Bond    | 0.049428   | 0.049428   | 0.049428   |   0.0 |  9.51
Kspace  | 0.15168    | 0.15168    | 0.15168    |   0.0 | 29.18
Neigh   | 0          | 0          | 0          |   0.0 |  0.00
Comm    | 5.6744e-05 | 5.6744e-05 | 5.6744e-05 |   0.0 |  0.01
Output  | 0          | 0          | 0          |   0.0 |  0.00
Modify  | 0          | 0          | 0          |   0.0 |  0.00
Other   |            | 0.001752   |            |       |  0.34

Nlocal:    929 ave 929 max 929 min
Histogram: 1 0 0 0 0 0 0 0 0 0
Nghost:    0 ave 0 max 0 min
Histogram: 1 0 0 0 0 0 0 0 0 0
Neighs:    86732 ave 86732 max 86732 min
Histogram: 1 0 0 0 0 0 0 0 0 0

Total # of neighbors = 86732
Ave neighs/atom = 93.3606
Ave special neighs/atom = 11.1324
Neighbor list builds = 0
Dangerous builds = 0
write_dump all custom pysimm.dump.tmp id q x y z vx vy vz
quit


################################################################################
##################################    Init    ##################################
################################################################################
units           real
atom_style      full
pair_style      lj/cut/coul/long 12.0  12.0
kspace_style    pppm 1e-4
bond_style      harmonic
angle_style     harmonic
dihedral_style  fourier
improper_style  cvff
special_bonds   amber
pair_modify     mix arithmetic
read_data       temp.lmps
  orthogonal box = (-159.304 -159.304 -159.304) to (159.304 159.304 159.304)
  1 by 1 by 1 MPI processor grid
  reading atoms ...
  987 atoms
  reading velocities ...
  987 velocities
  scanning bonds ...
  3 = max bonds/atom
  scanning angles ...
  6 = max angles/atom
  scanning dihedrals ...
  24 = max dihedrals/atom
  scanning impropers ...
  2 = max impropers/atom
  reading bonds ...
  1088 bonds
  reading angles ...
  1867 angles
  reading dihedrals ...
  2914 dihedrals
  reading impropers ...
  340 impropers
  4 = max # of 1-2 neighbors
  10 = max # of 1-3 neighbors
  19 = max # of 1-4 neighbors
  22 = max # of special neighbors
  special bonds CPU = 0.000922203 secs
  read_data CPU = 0.011802 secs
################################################################################

min_style cg
minimize 1e-06 1e-06 1000000 10000000
WARNING: Using 'neigh_modify every 1 delay 0 check yes' setting during minimization (../min.cpp:190)
PPPM initialization ...
WARNING: System is not charge neutral, net charge = 5.1e-05 (../kspace.cpp:313)
  using 12-bit tables for long-range coulomb (../kspace.cpp:332)
  G vector (1/distance) = 0.0689849
  grid = 18 18 18
  stencil order = 5
  estimated absolute RMS force accuracy = 0.0342338
  estimated relative force accuracy = 0.000103094
  using double precision KISS FFT
  3d grid and FFT values/proc = 12167 5832
Neighbor list info ...
  update every 1 steps, delay 0 steps, check yes
  max neighbors/atom: 2000, page size: 100000
  master list distance cutoff = 14
  ghost atom cutoff = 14
  binsize = 7, bins = 46 46 46
  1 neighbor lists, perpetual/occasional/extra = 1 0 0
  (1) pair lj/cut/coul/long, perpetual
      attributes: half, newton on
      pair build: half/bin/newton
      stencil: half/bin/3d/newton
      bin: standard
Per MPI rank memory allocation (min/avg/max) = 20.41 | 20.41 | 20.41 Mbytes
Step Temp E_pair E_mol TotEng Press 
       0    1108.1385    851.42584    3561.8519     7670.184    4.3248073 
      30    1108.1385    815.46515    3335.9573    7408.3287    4.7033063 
Loop time of 0.655048 on 1 procs for 30 steps with 987 atoms

100.0% CPU use with 1 MPI tasks x no OpenMP threads

Minimization stats:
  Stopping criterion = linesearch alpha is zero
  Energy initial, next-to-last, final = 
         4413.27774116      4151.42246521      4151.42246521
  Force two-norm initial, final = 611.148 107.66
  Force max component initial, final = 297.636 34.0052
  Final line search alpha, max atom move = 6.02459e-13 2.04868e-11
  Iterations, force evaluations = 30 122

MPI task timing breakdown:
Section |  min time  |  avg time  |  max time  |%varavg| %total
---------------------------------------------------------------
Pair    | 0.34874    | 0.34874    | 0.34874    |   0.0 | 53.24
Bond    | 0.059995   | 0.059995   | 0.059995   |   0.0 |  9.16
Kspace  | 0.24132    | 0.24132    | 0.24132    |   0.0 | 36.84
Neigh   | 0.0026689  | 0.0026689  | 0.0026689  |   0.0 |  0.41
Comm    | 8.1301e-05 | 8.1301e-05 | 8.1301e-05 |   0.0 |  0.01
Output  | 0          | 0          | 0          |   0.0 |  0.00
Modify  | 0          | 0          | 0          |   0.0 |  0.00
Other   |            | 0.002244   |            |       |  0.34

Nlocal:    987 ave 987 max 987 min
Histogram: 1 0 0 0 0 0 0 0 0 0
Nghost:    0 ave 0 max 0 min
Histogram: 1 0 0 0 0 0 0 0 0 0
Neighs:    83692 ave 83692 max 83692 min
Histogram: 1 0 0 0 0 0 0 0 0 0

Total # of neighbors = 83692
Ave neighs/atom = 84.7943
Ave special neighs/atom = 11.1348
Neighbor list builds = 1
Dangerous builds = 0
write_dump all custom pysimm.dump.tmp id q x y z vx vy vz
quit


################################################################################
##################################    Init    ##################################
################################################################################
units           real
atom_style      full
pair_style      lj/cut/coul/long 12.0  12.0
kspace_style    pppm 1e-4
bond_style      harmonic
angle_style     harmonic
dihedral_style  fourier
improper_style  cvff
special_bonds   amber
pair_modify     mix arithmetic
read_data       temp.lmps
  orthogonal box = (-162.556 -162.556 -162.556) to (162.556 162.556 162.556)
  1 by 1 by 1 MPI processor grid
  reading atoms ...
  1045 atoms
  reading velocities ...
  1045 velocities
  scanning bonds ...
  3 = max bonds/atom
  scanning angles ...
  6 = max angles/atom
  scanning dihedrals ...
  24 = max dihedrals/atom
  scanning impropers ...
  2 = max impropers/atom
  reading bonds ...
  1152 bonds
  reading angles ...
  1977 angles
  reading dihedrals ...
  3086 dihedrals
  reading impropers ...
  360 impropers
  4 = max # of 1-2 neighbors
  10 = max # of 1-3 neighbors
  19 = max # of 1-4 neighbors
  22 = max # of special neighbors
  special bonds CPU = 0.000934839 secs
  read_data CPU = 0.0124471 secs
################################################################################

min_style cg
minimize 1e-06 1e-06 1000000 10000000
WARNING: Using 'neigh_modify every 1 delay 0 check yes' setting during minimization (../min.cpp:190)
PPPM initialization ...
WARNING: System is not charge neutral, net charge = 5.4e-05 (../kspace.cpp:313)
  using 12-bit tables for long-range coulomb (../kspace.cpp:332)
  G vector (1/distance) = 0.0678466
  grid = 18 18 18
  stencil order = 5
  estimated absolute RMS force accuracy = 0.0349487
  estimated relative force accuracy = 0.000105247
  using double precision KISS FFT
  3d grid and FFT values/proc = 12167 5832
Neighbor list info ...
  update every 1 steps, delay 0 steps, check yes
  max neighbors/atom: 2000, page size: 100000
  master list distance cutoff = 14
  ghost atom cutoff = 14
  binsize = 7, bins = 47 47 47
  1 neighbor lists, perpetual/occasional/extra = 1 0 0
  (1) pair lj/cut/coul/long, perpetual
      attributes: half, newton on
      pair build: half/bin/newton
      stencil: half/bin/3d/newton
      bin: standard
Per MPI rank memory allocation (min/avg/max) = 20.83 | 20.83 | 20.83 Mbytes
Step Temp E_pair E_mol TotEng Press 
       0    1012.6767    783.62422    3607.8146    7542.8539    3.3880332 
      36    1012.6767    755.94877    3398.8033    7306.1672    3.8099573 
Loop time of 0.777039 on 1 procs for 36 steps with 1045 atoms

100.0% CPU use with 1 MPI tasks x no OpenMP threads

Minimization stats:
  Stopping criterion = linesearch alpha is zero
  Energy initial, next-to-last, final = 
         4391.43879799      4154.75209819      4154.75209819
  Force two-norm initial, final = 603.526 96.2718
  Force max component initial, final = 374.086 34.85
  Final line search alpha, max atom move = 8.66931e-13 3.02126e-11
  Iterations, force evaluations = 36 131

MPI task timing breakdown:
Section |  min time  |  avg time  |  max time  |%varavg| %total
---------------------------------------------------------------
Pair    | 0.44006    | 0.44006    | 0.44006    |   0.0 | 56.63
Bond    | 0.068264   | 0.068264   | 0.068264   |   0.0 |  8.79
Kspace  | 0.26283    | 0.26283    | 0.26283    |   0.0 | 33.82
Neigh   | 0.0031691  | 0.0031691  | 0.0031691  |   0.0 |  0.41
Comm    | 7.8917e-05 | 7.8917e-05 | 7.8917e-05 |   0.0 |  0.01
Output  | 0          | 0          | 0          |   0.0 |  0.00
Modify  | 0          | 0          | 0          |   0.0 |  0.00
Other   |            | 0.002637   |            |       |  0.34

Nlocal:    1045 ave 1045 max 1045 min
Histogram: 1 0 0 0 0 0 0 0 0 0
Nghost:    0 ave 0 max 0 min
Histogram: 1 0 0 0 0 0 0 0 0 0
Neighs:    102477 ave 102477 max 102477 min
Histogram: 1 0 0 0 0 0 0 0 0 0

Total # of neighbors = 102477
Ave neighs/atom = 98.0641
Ave special neighs/atom = 11.1368
Neighbor list builds = 1
Dangerous builds = 0
write_dump all custom pysimm.dump.tmp id q x y z vx vy vz
quit


################################################################################
##################################    Init    ##################################
################################################################################
units           real
atom_style      full
pair_style      lj/cut/coul/long 12.0  12.0
kspace_style    pppm 1e-4
bond_style      harmonic
angle_style     harmonic
dihedral_style  fourier
improper_style  cvff
special_bonds   amber
pair_modify     mix arithmetic
read_data       temp.lmps
  orthogonal box = (-165.683 -165.683 -165.683) to (165.683 165.683 165.683)
  1 by 1 by 1 MPI processor grid
  reading atoms ...
  1103 atoms
  reading velocities ...
  1103 velocities
  scanning bonds ...
  3 = max bonds/atom
  scanning angles ...
  6 = max angles/atom
  scanning dihedrals ...
  24 = max dihedrals/atom
  scanning impropers ...
  2 = max impropers/atom
  reading bonds ...
  1216 bonds
  reading angles ...
  2087 angles
  reading dihedrals ...
  3258 dihedrals
  reading impropers ...
  380 impropers
  4 = max # of 1-2 neighbors
  10 = max # of 1-3 neighbors
  19 = max # of 1-4 neighbors
  22 = max # of special neighbors
  special bonds CPU = 0.00097394 secs
  read_data CPU = 0.0128841 secs
################################################################################

min_style cg
minimize 1e-06 1e-06 1000000 10000000
WARNING: Using 'neigh_modify every 1 delay 0 check yes' setting during minimization (../min.cpp:190)
PPPM initialization ...
WARNING: System is not charge neutral, net charge = 5.7e-05 (../kspace.cpp:313)
  using 12-bit tables for long-range coulomb (../kspace.cpp:332)
  G vector (1/distance) = 0.0667865
  grid = 18 18 18
  stencil order = 5
  estimated absolute RMS force accuracy = 0.0356191
  estimated relative force accuracy = 0.000107266
  using double precision KISS FFT
  3d grid and FFT values/proc = 12167 5832
Neighbor list info ...
  update every 1 steps, delay 0 steps, check yes
  max neighbors/atom: 2000, page size: 100000
  master list distance cutoff = 14
  ghost atom cutoff = 14
  binsize = 7, bins = 48 48 48
  1 neighbor lists, perpetual/occasional/extra = 1 0 0
  (1) pair lj/cut/coul/long, perpetual
      attributes: half, newton on
      pair build: half/bin/newton
      stencil: half/bin/3d/newton
      bin: standard
Per MPI rank memory allocation (min/avg/max) = 20.49 | 20.49 | 20.49 Mbytes
Step Temp E_pair E_mol TotEng Press 
       0    1100.7076    843.70752      3780.01    8239.3797    4.1516986 
      46    1100.7076    820.59204    3511.9282    7948.1824    4.4456135 
Loop time of 0.856066 on 1 procs for 46 steps with 1103 atoms

100.0% CPU use with 1 MPI tasks x no OpenMP threads

Minimization stats:
  Stopping criterion = linesearch alpha is zero
  Energy initial, next-to-last, final = 
         4623.71749048      4332.52020468      4332.52020468
  Force two-norm initial, final = 600.244 70.4665
  Force max component initial, final = 334.753 27.2567
  Final line search alpha, max atom move = 1.9448e-12 5.3009e-11
  Iterations, force evaluations = 46 149

MPI task timing breakdown:
Section |  min time  |  avg time  |  max time  |%varavg| %total
---------------------------------------------------------------
Pair    | 0.46797    | 0.46797    | 0.46797    |   0.0 | 54.67
Bond    | 0.081857   | 0.081857   | 0.081857   |   0.0 |  9.56
Kspace  | 0.29684    | 0.29684    | 0.29684    |   0.0 | 34.67
Neigh   | 0.0060408  | 0.0060408  | 0.0060408  |   0.0 |  0.71
Comm    | 8.6069e-05 | 8.6069e-05 | 8.6069e-05 |   0.0 |  0.01
Output  | 0          | 0          | 0          |   0.0 |  0.00
Modify  | 0          | 0          | 0          |   0.0 |  0.00
Other   |            | 0.003273   |            |       |  0.38

Nlocal:    1103 ave 1103 max 1103 min
Histogram: 1 0 0 0 0 0 0 0 0 0
Nghost:    0 ave 0 max 0 min
Histogram: 1 0 0 0 0 0 0 0 0 0
Neighs:    93604 ave 93604 max 93604 min
Histogram: 1 0 0 0 0 0 0 0 0 0

Total # of neighbors = 93604
Ave neighs/atom = 84.8631
Ave special neighs/atom = 11.1387
Neighbor list builds = 2
Dangerous builds = 0
write_dump all custom pysimm.dump.tmp id q x y z vx vy vz
quit


################################################################################
##################################    Init    ##################################
################################################################################
units           real
atom_style      full
pair_style      lj/cut/coul/long 12.0  12.0
kspace_style    pppm 1e-4
bond_style      harmonic
angle_style     harmonic
dihedral_style  fourier
improper_style  cvff
special_bonds   amber
pair_modify     mix arithmetic
read_data       temp.lmps
  orthogonal box = (-168.696 -168.696 -168.696) to (168.696 168.696 168.696)
  1 by 1 by 1 MPI processor grid
  reading atoms ...
  1161 atoms
  reading velocities ...
  1161 velocities
  scanning bonds ...
  3 = max bonds/atom
  scanning angles ...
  6 = max angles/atom
  scanning dihedrals ...
  24 = max dihedrals/atom
  scanning impropers ...
  2 = max impropers/atom
  reading bonds ...
  1280 bonds
  reading angles ...
  2197 angles
  reading dihedrals ...
  3430 dihedrals
  reading impropers ...
  400 impropers
  4 = max # of 1-2 neighbors
  10 = max # of 1-3 neighbors
  19 = max # of 1-4 neighbors
  22 = max # of special neighbors
  special bonds CPU = 0.0010159 secs
  read_data CPU = 0.0132811 secs
################################################################################

min_style cg
minimize 1e-06 1e-06 1000000 10000000
WARNING: Using 'neigh_modify every 1 delay 0 check yes' setting during minimization (../min.cpp:190)
PPPM initialization ...
WARNING: System is not charge neutral, net charge = 6e-05 (../kspace.cpp:313)
  using 12-bit tables for long-range coulomb (../kspace.cpp:332)
  G vector (1/distance) = 0.0657953
  grid = 18 18 18
  stencil order = 5
  estimated absolute RMS force accuracy = 0.0362495
  estimated relative force accuracy = 0.000109164
  using double precision KISS FFT
  3d grid and FFT values/proc = 12167 5832
Neighbor list info ...
  update every 1 steps, delay 0 steps, check yes
  max neighbors/atom: 2000, page size: 100000
  master list distance cutoff = 14
  ghost atom cutoff = 14
  binsize = 7, bins = 49 49 49
  1 neighbor lists, perpetual/occasional/extra = 1 0 0
  (1) pair lj/cut/coul/long, perpetual
      attributes: half, newton on
      pair build: half/bin/newton
      stencil: half/bin/3d/newton
      bin: standard
Per MPI rank memory allocation (min/avg/max) = 20.91 | 20.91 | 20.91 Mbytes
Step Temp E_pair E_mol TotEng Press 
       0    1467.9126    867.78703    3956.9907    9900.4373    3.3125466 
      69    1467.9126     876.4995    3564.9286    9517.0878    5.2391644 
Loop time of 1.18072 on 1 procs for 69 steps with 1161 atoms

100.0% CPU use with 1 MPI tasks x no OpenMP threads

Minimization stats:
  Stopping criterion = linesearch alpha is zero
  Energy initial, next-to-last, final = 
         4824.77769298      4441.42810698      4441.42810698
  Force two-norm initial, final = 602.362 76.681
  Force max component initial, final = 325.76 26.3944
  Final line search alpha, max atom move = 1.86893e-12 4.93292e-11
  Iterations, force evaluations = 69 195

MPI task timing breakdown:
Section |  min time  |  avg time  |  max time  |%varavg| %total
---------------------------------------------------------------
Pair    | 0.66157    | 0.66157    | 0.66157    |   0.0 | 56.03
Bond    | 0.11281    | 0.11281    | 0.11281    |   0.0 |  9.55
Kspace  | 0.39216    | 0.39216    | 0.39216    |   0.0 | 33.21
Neigh   | 0.0093586  | 0.0093586  | 0.0093586  |   0.0 |  0.79
Comm    | 0.00013566 | 0.00013566 | 0.00013566 |   0.0 |  0.01
Output  | 0          | 0          | 0          |   0.0 |  0.00
Modify  | 0          | 0          | 0          |   0.0 |  0.00
Other   |            | 0.00469    |            |       |  0.40

Nlocal:    1161 ave 1161 max 1161 min
Histogram: 1 0 0 0 0 0 0 0 0 0
Nghost:    0 ave 0 max 0 min
Histogram: 1 0 0 0 0 0 0 0 0 0
Neighs:    100367 ave 100367 max 100367 min
Histogram: 1 0 0 0 0 0 0 0 0 0

Total # of neighbors = 100367
Ave neighs/atom = 86.4488
Ave special neighs/atom = 11.1404
Neighbor list builds = 3
Dangerous builds = 0
write_dump all custom pysimm.dump.tmp id q x y z vx vy vz
quit


################################################################################
##################################    Init    ##################################
################################################################################
units           real
atom_style      full
pair_style      lj/cut/coul/long 12.0  12.0
kspace_style    pppm 1e-4
bond_style      harmonic
angle_style     harmonic
dihedral_style  fourier
improper_style  cvff
special_bonds   amber
pair_modify     mix arithmetic
read_data       temp.lmps
  orthogonal box = (-171.605 -171.605 -171.605) to (171.605 171.605 171.605)
  1 by 1 by 1 MPI processor grid
  reading atoms ...
  1219 atoms
  reading velocities ...
  1219 velocities
  scanning bonds ...
  3 = max bonds/atom
  scanning angles ...
  6 = max angles/atom
  scanning dihedrals ...
  24 = max dihedrals/atom
  scanning impropers ...
  2 = max impropers/atom
  reading bonds ...
  1344 bonds
  reading angles ...
  2307 angles
  reading dihedrals ...
  3602 dihedrals
  reading impropers ...
  420 impropers
  4 = max # of 1-2 neighbors
  10 = max # of 1-3 neighbors
  19 = max # of 1-4 neighbors
  22 = max # of special neighbors
  special bonds CPU = 0.0010519 secs
  read_data CPU = 0.013814 secs
################################################################################

min_style cg
minimize 1e-06 1e-06 1000000 10000000
WARNING: Using 'neigh_modify every 1 delay 0 check yes' setting during minimization (../min.cpp:190)
PPPM initialization ...
WARNING: System is not charge neutral, net charge = 6.3e-05 (../kspace.cpp:313)
  using 12-bit tables for long-range coulomb (../kspace.cpp:332)
  G vector (1/distance) = 0.0648655
  grid = 18 18 18
  stencil order = 5
  estimated absolute RMS force accuracy = 0.0368437
  estimated relative force accuracy = 0.000110954
  using double precision KISS FFT
  3d grid and FFT values/proc = 12167 5832
Neighbor list info ...
  update every 1 steps, delay 0 steps, check yes
  max neighbors/atom: 2000, page size: 100000
  master list distance cutoff = 14
  ghost atom cutoff = 14
  binsize = 7, bins = 50 50 50
  1 neighbor lists, perpetual/occasional/extra = 1 0 0
  (1) pair lj/cut/coul/long, perpetual
      attributes: half, newton on
      pair build: half/bin/newton
      stencil: half/bin/3d/newton
      bin: standard
Per MPI rank memory allocation (min/avg/max) = 20.95 | 20.95 | 20.95 Mbytes
Step Temp E_pair E_mol TotEng Press 
       0    1776.2726    840.59363    4017.7184    11307.295    5.2113698 
      11    1776.2726    851.60271    3876.4449     11177.03    5.8473824 
Loop time of 0.509766 on 1 procs for 11 steps with 1219 atoms

100.0% CPU use with 1 MPI tasks x no OpenMP threads

Minimization stats:
  Stopping criterion = linesearch alpha is zero
  Energy initial, next-to-last, final = 
         4858.31200346      4728.04765123      4728.04765123
  Force two-norm initial, final = 596.262 88.6204
  Force max component initial, final = 348.493 28.2695
  Final line search alpha, max atom move = 1.61811e-12 4.57433e-11
  Iterations, force evaluations = 11 81

MPI task timing breakdown:
Section |  min time  |  avg time  |  max time  |%varavg| %total
---------------------------------------------------------------
Pair    | 0.28638    | 0.28638    | 0.28638    |   0.0 | 56.18
Bond    | 0.049474   | 0.049474   | 0.049474   |   0.0 |  9.71
Kspace  | 0.17232    | 0.17232    | 0.17232    |   0.0 | 33.80
Neigh   | 0          | 0          | 0          |   0.0 |  0.00
Comm    | 3.6478e-05 | 3.6478e-05 | 3.6478e-05 |   0.0 |  0.01
Output  | 0          | 0          | 0          |   0.0 |  0.00
Modify  | 0          | 0          | 0          |   0.0 |  0.00
Other   |            | 0.001554   |            |       |  0.30

Nlocal:    1219 ave 1219 max 1219 min
Histogram: 1 0 0 0 0 0 0 0 0 0
Nghost:    0 ave 0 max 0 min
Histogram: 1 0 0 0 0 0 0 0 0 0
Neighs:    103304 ave 103304 max 103304 min
Histogram: 1 0 0 0 0 0 0 0 0 0

Total # of neighbors = 103304
Ave neighs/atom = 84.7449
Ave special neighs/atom = 11.1419
Neighbor list builds = 0
Dangerous builds = 0
write_dump all custom pysimm.dump.tmp id q x y z vx vy vz
quit


################################################################################
##################################    Init    ##################################
################################################################################
units           real
atom_style      full
pair_style      lj/cut/coul/long 12.0  12.0
kspace_style    pppm 1e-4
bond_style      harmonic
angle_style     harmonic
dihedral_style  fourier
improper_style  cvff
special_bonds   amber
pair_modify     mix arithmetic
read_data       temp.lmps
  orthogonal box = (-174.419 -174.419 -174.419) to (174.419 174.419 174.419)
  1 by 1 by 1 MPI processor grid
  reading atoms ...
  1277 atoms
  reading velocities ...
  1277 velocities
  scanning bonds ...
  3 = max bonds/atom
  scanning angles ...
  6 = max angles/atom
  scanning dihedrals ...
  24 = max dihedrals/atom
  scanning impropers ...
  2 = max impropers/atom
  reading bonds ...
  1408 bonds
  reading angles ...
  2417 angles
  reading dihedrals ...
  3774 dihedrals
  reading impropers ...
  440 impropers
  4 = max # of 1-2 neighbors
  10 = max # of 1-3 neighbors
  19 = max # of 1-4 neighbors
  22 = max # of special neighbors
  special bonds CPU = 0.0010941 secs
  read_data CPU = 0.0144429 secs
################################################################################

min_style cg
minimize 1e-06 1e-06 1000000 10000000
WARNING: Using 'neigh_modify every 1 delay 0 check yes' setting during minimization (../min.cpp:190)
PPPM initialization ...
WARNING: System is not charge neutral, net charge = 6.6e-05 (../kspace.cpp:313)
  using 12-bit tables for long-range coulomb (../kspace.cpp:332)
  G vector (1/distance) = 0.0639903
  grid = 18 18 18
  stencil order = 5
  estimated absolute RMS force accuracy = 0.037405
  estimated relative force accuracy = 0.000112644
  using double precision KISS FFT
  3d grid and FFT values/proc = 12167 5832
Neighbor list info ...
  update every 1 steps, delay 0 steps, check yes
  max neighbors/atom: 2000, page size: 100000
  master list distance cutoff = 14
  ghost atom cutoff = 14
  binsize = 7, bins = 50 50 50
  1 neighbor lists, perpetual/occasional/extra = 1 0 0
  (1) pair lj/cut/coul/long, perpetual
      attributes: half, newton on
      pair build: half/bin/newton
      stencil: half/bin/3d/newton
      bin: standard
Per MPI rank memory allocation (min/avg/max) = 20.96 | 20.96 | 20.96 Mbytes
Step Temp E_pair E_mol TotEng Press 
       0    1302.5675    890.87855    4186.4131    10031.625    4.2124311 
      59    1302.5675    840.11034    3858.3989    9652.8427     4.997213 
Loop time of 1.09566 on 1 procs for 59 steps with 1277 atoms

100.1% CPU use with 1 MPI tasks x no OpenMP threads

Minimization stats:
  Stopping criterion = linesearch alpha is zero
  Energy initial, next-to-last, final = 
         5077.29165903      4698.50925155      4698.50925155
  Force two-norm initial, final = 611.999 90.6383
  Force max component initial, final = 397.168 26.5329
  Final line search alpha, max atom move = 8.70416e-13 2.30947e-11
  Iterations, force evaluations = 59 176

MPI task timing breakdown:
Section |  min time  |  avg time  |  max time  |%varavg| %total
---------------------------------------------------------------
Pair    | 0.60024    | 0.60024    | 0.60024    |   0.0 | 54.78
Bond    | 0.11241    | 0.11241    | 0.11241    |   0.0 | 10.26
Kspace  | 0.37174    | 0.37174    | 0.37174    |   0.0 | 33.93
Neigh   | 0.0065892  | 0.0065892  | 0.0065892  |   0.0 |  0.60
Comm    | 0.00012922 | 0.00012922 | 0.00012922 |   0.0 |  0.01
Output  | 0          | 0          | 0          |   0.0 |  0.00
Modify  | 0          | 0          | 0          |   0.0 |  0.00
Other   |            | 0.004555   |            |       |  0.42

Nlocal:    1277 ave 1277 max 1277 min
Histogram: 1 0 0 0 0 0 0 0 0 0
Nghost:    0 ave 0 max 0 min
Histogram: 1 0 0 0 0 0 0 0 0 0
Neighs:    99237 ave 99237 max 99237 min
Histogram: 1 0 0 0 0 0 0 0 0 0

Total # of neighbors = 99237
Ave neighs/atom = 77.711
Ave special neighs/atom = 11.1433
Neighbor list builds = 2
Dangerous builds = 0
write_dump all custom pysimm.dump.tmp id q x y z vx vy vz
quit


################################################################################
##################################    Init    ##################################
################################################################################
units           real
atom_style      full
pair_style      lj/cut/coul/long 12.0  12.0
kspace_style    pppm 1e-4
bond_style      harmonic
angle_style     harmonic
dihedral_style  fourier
improper_style  cvff
special_bonds   amber
pair_modify     mix arithmetic
read_data       temp.lmps
  orthogonal box = (-177.145 -177.145 -177.145) to (177.145 177.145 177.145)
  1 by 1 by 1 MPI processor grid
  reading atoms ...
  1335 atoms
  reading velocities ...
  1335 velocities
  scanning bonds ...
  3 = max bonds/atom
  scanning angles ...
  6 = max angles/atom
  scanning dihedrals ...
  24 = max dihedrals/atom
  scanning impropers ...
  2 = max impropers/atom
  reading bonds ...
  1472 bonds
  reading angles ...
  2527 angles
  reading dihedrals ...
  3946 dihedrals
  reading impropers ...
  460 impropers
  4 = max # of 1-2 neighbors
  10 = max # of 1-3 neighbors
  19 = max # of 1-4 neighbors
  22 = max # of special neighbors
  special bonds CPU = 0.00112295 secs
  read_data CPU = 0.014899 secs
################################################################################

min_style cg
minimize 1e-06 1e-06 1000000 10000000
WARNING: Using 'neigh_modify every 1 delay 0 check yes' setting during minimization (../min.cpp:190)
PPPM initialization ...
WARNING: System is not charge neutral, net charge = 6.9e-05 (../kspace.cpp:313)
  using 12-bit tables for long-range coulomb (../kspace.cpp:332)
  G vector (1/distance) = 0.0631644
  grid = 18 18 18
  stencil order = 5
  estimated absolute RMS force accuracy = 0.0379364
  estimated relative force accuracy = 0.000114244
  using double precision KISS FFT
  3d grid and FFT values/proc = 12167 5832
Neighbor list info ...
  update every 1 steps, delay 0 steps, check yes
  max neighbors/atom: 2000, page size: 100000
  master list distance cutoff = 14
  ghost atom cutoff = 14
  binsize = 7, bins = 51 51 51
  1 neighbor lists, perpetual/occasional/extra = 1 0 0
  (1) pair lj/cut/coul/long, perpetual
      attributes: half, newton on
      pair build: half/bin/newton
      stencil: half/bin/3d/newton
      bin: standard
Per MPI rank memory allocation (min/avg/max) = 21 | 21 | 21 Mbytes
Step Temp E_pair E_mol TotEng Press 
       0    924.63568     899.0074    4121.5665    8697.2957    3.3543453 
      25    924.63568    887.66248    3935.3708    8499.7552    3.8702345 
Loop time of 0.715674 on 1 procs for 25 steps with 1335 atoms

99.9% CPU use with 1 MPI tasks x no OpenMP threads

Minimization stats:
  Stopping criterion = linesearch alpha is zero
  Energy initial, next-to-last, final = 
         5020.57385676        4823.033294        4823.033294
  Force two-norm initial, final = 602.608 105.884
  Force max component initial, final = 396.318 37.739
  Final line search alpha, max atom move = 8.88778e-13 3.35416e-11
  Iterations, force evaluations = 25 108

MPI task timing breakdown:
Section |  min time  |  avg time  |  max time  |%varavg| %total
---------------------------------------------------------------
Pair    | 0.4073     | 0.4073     | 0.4073     |   0.0 | 56.91
Bond    | 0.072005   | 0.072005   | 0.072005   |   0.0 | 10.06
Kspace  | 0.2338     | 0.2338     | 0.2338     |   0.0 | 32.67
Neigh   | 0          | 0          | 0          |   0.0 |  0.00
Comm    | 5.2214e-05 | 5.2214e-05 | 5.2214e-05 |   0.0 |  0.01
Output  | 0          | 0          | 0          |   0.0 |  0.00
Modify  | 0          | 0          | 0          |   0.0 |  0.00
Other   |            | 0.002518   |            |       |  0.35

Nlocal:    1335 ave 1335 max 1335 min
Histogram: 1 0 0 0 0 0 0 0 0 0
Nghost:    0 ave 0 max 0 min
Histogram: 1 0 0 0 0 0 0 0 0 0
Neighs:    110326 ave 110326 max 110326 min
Histogram: 1 0 0 0 0 0 0 0 0 0

Total # of neighbors = 110326
Ave neighs/atom = 82.6412
Ave special neighs/atom = 11.1446
Neighbor list builds = 0
Dangerous builds = 0
write_dump all custom pysimm.dump.tmp id q x y z vx vy vz
quit


################################################################################
##################################    Init    ##################################
################################################################################
units           real
atom_style      full
pair_style      lj/cut/coul/long 12.0  12.0
kspace_style    pppm 1e-4
bond_style      harmonic
angle_style     harmonic
dihedral_style  fourier
improper_style  cvff
special_bonds   amber
pair_modify     mix arithmetic
read_data       temp.lmps
  orthogonal box = (-179.789 -179.789 -179.789) to (179.789 179.789 179.789)
  1 by 1 by 1 MPI processor grid
  reading atoms ...
  1393 atoms
  reading velocities ...
  1393 velocities
  scanning bonds ...
  3 = max bonds/atom
  scanning angles ...
  6 = max angles/atom
  scanning dihedrals ...
  24 = max dihedrals/atom
  scanning impropers ...
  2 = max impropers/atom
  reading bonds ...
  1536 bonds
  reading angles ...
  2637 angles
  reading dihedrals ...
  4118 dihedrals
  reading impropers ...
  480 impropers
  4 = max # of 1-2 neighbors
  10 = max # of 1-3 neighbors
  19 = max # of 1-4 neighbors
  22 = max # of special neighbors
  special bonds CPU = 0.00116396 secs
  read_data CPU = 0.0154469 secs
[...]
  scanning angles ...
  6 = max angles/atom
  scanning dihedrals ...
  24 = max dihedrals/atom
  scanning impropers ...
  2 = max impropers/atom
  reading bonds ...
  2944 bonds
  reading angles ...
  5057 angles
  reading dihedrals ...
  7902 dihedrals
  reading impropers ...
  920 impropers
  4 = max # of 1-2 neighbors
  10 = max # of 1-3 neighbors
  19 = max # of 1-4 neighbors
  22 = max # of special neighbors
  special bonds CPU = 0.00203419 secs
  read_data CPU = 0.0263951 secs
################################################################################

min_style cg
minimize 1e-06 1e-06 1000000 10000000
WARNING: Using 'neigh_modify every 1 delay 0 check yes' setting during minimization (../min.cpp:190)
PPPM initialization ...
WARNING: System is not charge neutral, net charge = 0.000138 (../kspace.cpp:313)
  using 12-bit tables for long-range coulomb (../kspace.cpp:332)
  G vector (1/distance) = 0.0658111
  grid = 24 24 24
  stencil order = 5
  estimated absolute RMS force accuracy = 0.0357223
  estimated relative force accuracy = 0.000107577
  using double precision KISS FFT
  3d grid and FFT values/proc = 24389 13824
Neighbor list info ...
  update every 1 steps, delay 0 steps, check yes
  max neighbors/atom: 2000, page size: 100000
  master list distance cutoff = 14
  ghost atom cutoff = 14
  binsize = 7, bins = 65 65 65
  1 neighbor lists, perpetual/occasional/extra = 1 0 0
  (1) pair lj/cut/coul/long, perpetual
      attributes: half, newton on
      pair build: half/bin/newton
      stencil: half/bin/3d/newton
      bin: standard
Per MPI rank memory allocation (min/avg/max) = 23.33 | 23.33 | 23.33 Mbytes
Step Temp E_pair E_mol TotEng Press 
       0    851.36983    1109.1662    6822.7253    14702.667    2.8085179 
      32    851.36983    1100.0942    6570.8641    14441.733      3.10355 
Loop time of 1.88054 on 1 procs for 32 steps with 2669 atoms

100.0% CPU use with 1 MPI tasks x no OpenMP threads

Minimization stats:
  Stopping criterion = linesearch alpha is zero
  Energy initial, next-to-last, final = 
         7931.89151539      7670.95836551      7670.95836551
  Force two-norm initial, final = 614.495 84.4509
  Force max component initial, final = 410.192 27.3217
  Final line search alpha, max atom move = 1.08258e-12 2.95779e-11
  Iterations, force evaluations = 32 124

MPI task timing breakdown:
Section |  min time  |  avg time  |  max time  |%varavg| %total
---------------------------------------------------------------
Pair    | 1.1132     | 1.1132     | 1.1132     |   0.0 | 59.20
Bond    | 0.16828    | 0.16828    | 0.16828    |   0.0 |  8.95
Kspace  | 0.59216    | 0.59216    | 0.59216    |   0.0 | 31.49
Neigh   | 0          | 0          | 0          |   0.0 |  0.00
Comm    | 0.00012922 | 0.00012922 | 0.00012922 |   0.0 |  0.01
Output  | 0          | 0          | 0          |   0.0 |  0.00
Modify  | 0          | 0          | 0          |   0.0 |  0.00
Other   |            | 0.006741   |            |       |  0.36

Nlocal:    2669 ave 2669 max 2669 min
Histogram: 1 0 0 0 0 0 0 0 0 0
Nghost:    0 ave 0 max 0 min
Histogram: 1 0 0 0 0 0 0 0 0 0
Neighs:    269725 ave 269725 max 269725 min
Histogram: 1 0 0 0 0 0 0 0 0 0

Total # of neighbors = 269725
Ave neighs/atom = 101.058
Ave special neighs/atom = 11.1585
Neighbor list builds = 0
Dangerous builds = 0
write_dump all custom pysimm.dump.tmp id q x y z vx vy vz
quit


################################################################################
##################################    Init    ##################################
################################################################################
units           real
atom_style      full
pair_style      lj/cut/coul/long 12.0  12.0
kspace_style    pppm 1e-4
bond_style      harmonic
angle_style     harmonic
dihedral_style  fourier
improper_style  cvff
special_bonds   amber
pair_modify     mix arithmetic
read_data       temp.lmps
  orthogonal box = (-226.52 -226.52 -226.52) to (226.52 226.52 226.52)
  1 by 1 by 1 MPI processor grid
  reading atoms ...
  2727 atoms
  reading velocities ...
  2727 velocities
  scanning bonds ...
  3 = max bonds/atom
  scanning angles ...
  6 = max angles/atom
  scanning dihedrals ...
  24 = max dihedrals/atom
  scanning impropers ...
  2 = max impropers/atom
  reading bonds ...
  3008 bonds
  reading angles ...
  5167 angles
  reading dihedrals ...
  8074 dihedrals
  reading impropers ...
  940 impropers
  4 = max # of 1-2 neighbors
  10 = max # of 1-3 neighbors
  19 = max # of 1-4 neighbors
  22 = max # of special neighbors
  special bonds CPU = 0.00216103 secs
  read_data CPU = 0.0274739 secs
################################################################################

min_style cg
minimize 1e-06 1e-06 1000000 10000000
WARNING: Using 'neigh_modify every 1 delay 0 check yes' setting during minimization (../min.cpp:190)
PPPM initialization ...
WARNING: System is not charge neutral, net charge = 0.000141 (../kspace.cpp:313)
  using 12-bit tables for long-range coulomb (../kspace.cpp:332)
  G vector (1/distance) = 0.0654111
  grid = 24 24 24
  stencil order = 5
  estimated absolute RMS force accuracy = 0.0359841
  estimated relative force accuracy = 0.000108365
  using double precision KISS FFT
  3d grid and FFT values/proc = 24389 13824
Neighbor list info ...
  update every 1 steps, delay 0 steps, check yes
  max neighbors/atom: 2000, page size: 100000
  master list distance cutoff = 14
  ghost atom cutoff = 14
  binsize = 7, bins = 65 65 65
  1 neighbor lists, perpetual/occasional/extra = 1 0 0
  (1) pair lj/cut/coul/long, perpetual
      attributes: half, newton on
      pair build: half/bin/newton
      stencil: half/bin/3d/newton
      bin: standard
Per MPI rank memory allocation (min/avg/max) = 23.33 | 23.33 | 23.33 Mbytes
Step Temp E_pair E_mol TotEng Press 
       0     587.2514    1052.1029    6884.1186    12708.043     1.803523 
       9     587.2514    1060.7029    6736.6969    12569.222    2.0654976 
Loop time of 1.27104 on 1 procs for 9 steps with 2727 atoms

100.0% CPU use with 1 MPI tasks x no OpenMP threads

Minimization stats:
  Stopping criterion = linesearch alpha is zero
  Energy initial, next-to-last, final = 
         7936.22157477       7797.3998568       7797.3998568
  Force two-norm initial, final = 619.597 106.388
  Force max component initial, final = 413.076 68.5525
  Final line search alpha, max atom move = 6.41033e-13 4.39444e-11
  Iterations, force evaluations = 9 78

MPI task timing breakdown:
Section |  min time  |  avg time  |  max time  |%varavg| %total
---------------------------------------------------------------
Pair    | 0.78965    | 0.78965    | 0.78965    |   0.0 | 62.13
Bond    | 0.10695    | 0.10695    | 0.10695    |   0.0 |  8.41
Kspace  | 0.37134    | 0.37134    | 0.37134    |   0.0 | 29.22
Neigh   | 0          | 0          | 0          |   0.0 |  0.00
Comm    | 3.4809e-05 | 3.4809e-05 | 3.4809e-05 |   0.0 |  0.00
Output  | 0          | 0          | 0          |   0.0 |  0.00
Modify  | 0          | 0          | 0          |   0.0 |  0.00
Other   |            | 0.003062   |            |       |  0.24

Nlocal:    2727 ave 2727 max 2727 min
Histogram: 1 0 0 0 0 0 0 0 0 0
Nghost:    0 ave 0 max 0 min
Histogram: 1 0 0 0 0 0 0 0 0 0
Neighs:    283314 ave 283314 max 283314 min
Histogram: 1 0 0 0 0 0 0 0 0 0

Total # of neighbors = 283314
Ave neighs/atom = 103.892
Ave special neighs/atom = 11.1588
Neighbor list builds = 0
Dangerous builds = 0
write_dump all custom pysimm.dump.tmp id q x y z vx vy vz
quit


################################################################################
##################################    Init    ##################################
################################################################################
units           real
atom_style      full
pair_style      lj/cut/coul/long 12.0  12.0
kspace_style    pppm 1e-4
bond_style      harmonic
angle_style     harmonic
dihedral_style  fourier
improper_style  cvff
special_bonds   amber
pair_modify     mix arithmetic
read_data       temp.lmps
  orthogonal box = (-228.15 -228.15 -228.15) to (228.15 228.15 228.15)
  1 by 1 by 1 MPI processor grid
  reading atoms ...
  2785 atoms
  reading velocities ...
  2785 velocities
  scanning bonds ...
  3 = max bonds/atom
  scanning angles ...
  6 = max angles/atom
  scanning dihedrals ...
  24 = max dihedrals/atom
  scanning impropers ...
  2 = max impropers/atom
  reading bonds ...
  3072 bonds
  reading angles ...
  5277 angles
  reading dihedrals ...
  8246 dihedrals
  reading impropers ...
  960 impropers
  4 = max # of 1-2 neighbors
  10 = max # of 1-3 neighbors
  19 = max # of 1-4 neighbors
  22 = max # of special neighbors
  special bonds CPU = 0.00215387 secs
  read_data CPU = 0.027868 secs
################################################################################

min_style cg
minimize 1e-06 1e-06 1000000 10000000
WARNING: Using 'neigh_modify every 1 delay 0 check yes' setting during minimization (../min.cpp:190)
PPPM initialization ...
WARNING: System is not charge neutral, net charge = 0.000144 (../kspace.cpp:313)
  using 12-bit tables for long-range coulomb (../kspace.cpp:332)
  G vector (1/distance) = 0.0650216
  grid = 24 24 24
  stencil order = 5
  estimated absolute RMS force accuracy = 0.0362397
  estimated relative force accuracy = 0.000109135
  using double precision KISS FFT
  3d grid and FFT values/proc = 24389 13824
Neighbor list info ...
  update every 1 steps, delay 0 steps, check yes
  max neighbors/atom: 2000, page size: 100000
  master list distance cutoff = 14
  ghost atom cutoff = 14
  binsize = 7, bins = 66 66 66
  1 neighbor lists, perpetual/occasional/extra = 1 0 0
  (1) pair lj/cut/coul/long, perpetual
      attributes: half, newton on
      pair build: half/bin/newton
      stencil: half/bin/3d/newton
      bin: standard
Per MPI rank memory allocation (min/avg/max) = 23.4 | 23.4 | 23.4 Mbytes
Step Temp E_pair E_mol TotEng Press 
       0    492.49319    1045.0329    7018.4348    12150.459    1.6738111 
      50    492.49319     1002.039    6721.5986    11810.629    1.8195736 
Loop time of 2.72479 on 1 procs for 50 steps with 2785 atoms

100.0% CPU use with 1 MPI tasks x no OpenMP threads

Minimization stats:
  Stopping criterion = linesearch alpha is zero
  Energy initial, next-to-last, final = 
         8063.46771761      7723.63758536      7723.63758536
  Force two-norm initial, final = 616.75 67.1884
  Force max component initial, final = 307.394 16.2119
  Final line search alpha, max atom move = 1.26529e-12 2.05128e-11
  Iterations, force evaluations = 50 165

MPI task timing breakdown:
Section |  min time  |  avg time  |  max time  |%varavg| %total
---------------------------------------------------------------
Pair    | 1.6789     | 1.6789     | 1.6789     |   0.0 | 61.61
Bond    | 0.23236    | 0.23236    | 0.23236    |   0.0 |  8.53
Kspace  | 0.79595    | 0.79595    | 0.79595    |   0.0 | 29.21
Neigh   | 0.008862   | 0.008862   | 0.008862   |   0.0 |  0.33
Comm    | 0.00013041 | 0.00013041 | 0.00013041 |   0.0 |  0.00
Output  | 0          | 0          | 0          |   0.0 |  0.00
Modify  | 0          | 0          | 0          |   0.0 |  0.00
Other   |            | 0.008621   |            |       |  0.32

Nlocal:    2785 ave 2785 max 2785 min
Histogram: 1 0 0 0 0 0 0 0 0 0
Nghost:    0 ave 0 max 0 min
Histogram: 1 0 0 0 0 0 0 0 0 0
Neighs:    290072 ave 290072 max 290072 min
Histogram: 1 0 0 0 0 0 0 0 0 0

Total # of neighbors = 290072
Ave neighs/atom = 104.155
Ave special neighs/atom = 11.1591
Neighbor list builds = 1
Dangerous builds = 0
write_dump all custom pysimm.dump.tmp id q x y z vx vy vz
quit


################################################################################
##################################    Init    ##################################
################################################################################
units           real
atom_style      full
pair_style      lj/cut/coul/long 12.0  12.0
kspace_style    pppm 1e-4
bond_style      harmonic
angle_style     harmonic
dihedral_style  fourier
improper_style  cvff
special_bonds   amber
pair_modify     mix arithmetic
read_data       temp.lmps
  orthogonal box = (-229.757 -229.757 -229.757) to (229.757 229.757 229.757)
  1 by 1 by 1 MPI processor grid
  reading atoms ...
  2843 atoms
  reading velocities ...
  2843 velocities
  scanning bonds ...
  3 = max bonds/atom
  scanning angles ...
  6 = max angles/atom
  scanning dihedrals ...
  24 = max dihedrals/atom
  scanning impropers ...
  2 = max impropers/atom
  reading bonds ...
  3136 bonds
  reading angles ...
  5387 angles
  reading dihedrals ...
  8418 dihedrals
  reading impropers ...
  980 impropers
  4 = max # of 1-2 neighbors
  10 = max # of 1-3 neighbors
  19 = max # of 1-4 neighbors
  22 = max # of special neighbors
  special bonds CPU = 0.002249 secs
  read_data CPU = 0.028415 secs
################################################################################

min_style cg
minimize 1e-06 1e-06 1000000 10000000
WARNING: Using 'neigh_modify every 1 delay 0 check yes' setting during minimization (../min.cpp:190)
PPPM initialization ...
WARNING: System is not charge neutral, net charge = 0.000147 (../kspace.cpp:313)
  using 12-bit tables for long-range coulomb (../kspace.cpp:332)
  G vector (1/distance) = 0.064642
  grid = 24 24 24
  stencil order = 5
  estimated absolute RMS force accuracy = 0.0364892
  estimated relative force accuracy = 0.000109886
  using double precision KISS FFT
  3d grid and FFT values/proc = 24389 13824
Neighbor list info ...
  update every 1 steps, delay 0 steps, check yes
  max neighbors/atom: 2000, page size: 100000
  master list distance cutoff = 14
  ghost atom cutoff = 14
  binsize = 7, bins = 66 66 66
  1 neighbor lists, perpetual/occasional/extra = 1 0 0
  (1) pair lj/cut/coul/long, perpetual
      attributes: half, newton on
      pair build: half/bin/newton
      stencil: half/bin/3d/newton
      bin: standard
Per MPI rank memory allocation (min/avg/max) = 23.79 | 23.79 | 23.79 Mbytes
Step Temp E_pair E_mol TotEng Press 
       0    422.85315    1092.7653    7080.8066    11755.756    1.6238029 
      16    422.85315     1067.925     6942.123    11592.232    1.6923038 
Loop time of 1.58186 on 1 procs for 16 steps with 2843 atoms

100.0% CPU use with 1 MPI tasks x no OpenMP threads

Minimization stats:
  Stopping criterion = linesearch alpha is zero
  Energy initial, next-to-last, final = 
         8173.57194246      8010.04796768      8010.04796768
  Force two-norm initial, final = 610.936 74.3395
  Force max component initial, final = 353.854 23.3937
  Final line search alpha, max atom move = 1.71308e-12 4.00753e-11
  Iterations, force evaluations = 16 97

MPI task timing breakdown:
Section |  min time  |  avg time  |  max time  |%varavg| %total
---------------------------------------------------------------
Pair    | 0.96764    | 0.96764    | 0.96764    |   0.0 | 61.17
Bond    | 0.14171    | 0.14171    | 0.14171    |   0.0 |  8.96
Kspace  | 0.46821    | 0.46821    | 0.46821    |   0.0 | 29.60
Neigh   | 0          | 0          | 0          |   0.0 |  0.00
Comm    | 6.1274e-05 | 6.1274e-05 | 6.1274e-05 |   0.0 |  0.00
Output  | 0          | 0          | 0          |   0.0 |  0.00
Modify  | 0          | 0          | 0          |   0.0 |  0.00
Other   |            | 0.004234   |            |       |  0.27

Nlocal:    2843 ave 2843 max 2843 min
Histogram: 1 0 0 0 0 0 0 0 0 0
Nghost:    0 ave 0 max 0 min
Histogram: 1 0 0 0 0 0 0 0 0 0
Neighs:    299374 ave 299374 max 299374 min
Histogram: 1 0 0 0 0 0 0 0 0 0

Total # of neighbors = 299374
Ave neighs/atom = 105.302
Ave special neighs/atom = 11.1593
Neighbor list builds = 0
Dangerous builds = 0
write_dump all custom pysimm.dump.tmp id q x y z vx vy vz
quit


################################################################################
##################################    Init    ##################################
################################################################################
units           real
atom_style      full
pair_style      lj/cut/coul/long 12.0  12.0
kspace_style    pppm 1e-4
bond_style      harmonic
angle_style     harmonic
dihedral_style  fourier
improper_style  cvff
special_bonds   amber
pair_modify     mix arithmetic
read_data       temp.lmps
  orthogonal box = (-231.341 -231.341 -231.341) to (231.341 231.341 231.341)
  1 by 1 by 1 MPI processor grid
  reading atoms ...
  2901 atoms
  reading velocities ...
  2901 velocities
  scanning bonds ...
  3 = max bonds/atom
  scanning angles ...
  6 = max angles/atom
  scanning dihedrals ...
  24 = max dihedrals/atom
  scanning impropers ...
  2 = max impropers/atom
  reading bonds ...
  3200 bonds
  reading angles ...
  5497 angles
  reading dihedrals ...
  8590 dihedrals
  reading impropers ...
  1000 impropers
  4 = max # of 1-2 neighbors
  10 = max # of 1-3 neighbors
  19 = max # of 1-4 neighbors
  22 = max # of special neighbors
  special bonds CPU = 0.00225902 secs
  read_data CPU = 0.028764 secs
################################################################################

min_style cg
minimize 1e-06 1e-06 1000000 10000000
WARNING: Using 'neigh_modify every 1 delay 0 check yes' setting during minimization (../min.cpp:190)
PPPM initialization ...
WARNING: System is not charge neutral, net charge = 0.00015 (../kspace.cpp:313)
  using 12-bit tables for long-range coulomb (../kspace.cpp:332)
  G vector (1/distance) = 0.0642719
  grid = 24 24 24
  stencil order = 5
  estimated absolute RMS force accuracy = 0.036733
  estimated relative force accuracy = 0.00011062
  using double precision KISS FFT
  3d grid and FFT values/proc = 24389 13824
Neighbor list info ...
  update every 1 steps, delay 0 steps, check yes
  max neighbors/atom: 2000, page size: 100000
  master list distance cutoff = 14
  ghost atom cutoff = 14
  binsize = 7, bins = 67 67 67
  1 neighbor lists, perpetual/occasional/extra = 1 0 0
  (1) pair lj/cut/coul/long, perpetual
      attributes: half, newton on
      pair build: half/bin/newton
      stencil: half/bin/3d/newton
      bin: standard
Per MPI rank memory allocation (min/avg/max) = 23.85 | 23.85 | 23.85 Mbytes
Step Temp E_pair E_mol TotEng Press 
       0    540.24981    1107.4894    7216.0207    12993.618    2.1142852 
      20    540.24981    1032.1388    7050.9975    12753.244    2.0421565 
Loop time of 1.69194 on 1 procs for 20 steps with 2901 atoms

100.0% CPU use with 1 MPI tasks x no OpenMP threads

Minimization stats:
  Stopping criterion = linesearch alpha is zero
  Energy initial, next-to-last, final = 
         8323.51007682      8083.13631031      8083.13631031
  Force two-norm initial, final = 621.87 153.605
  Force max component initial, final = 358.527 54.4659
  Final line search alpha, max atom move = 3.12433e-13 1.7017e-11
  Iterations, force evaluations = 20 101

MPI task timing breakdown:
Section |  min time  |  avg time  |  max time  |%varavg| %total
---------------------------------------------------------------
Pair    | 1.0447     | 1.0447     | 1.0447     |   0.0 | 61.75
Bond    | 0.14815    | 0.14815    | 0.14815    |   0.0 |  8.76
Kspace  | 0.49419    | 0.49419    | 0.49419    |   0.0 | 29.21
Neigh   | 0          | 0          | 0          |   0.0 |  0.00
Comm    | 6.1274e-05 | 6.1274e-05 | 6.1274e-05 |   0.0 |  0.00
Output  | 0          | 0          | 0          |   0.0 |  0.00
Modify  | 0          | 0          | 0          |   0.0 |  0.00
Other   |            | 0.004782   |            |       |  0.28

Nlocal:    2901 ave 2901 max 2901 min
Histogram: 1 0 0 0 0 0 0 0 0 0
Nghost:    0 ave 0 max 0 min
Histogram: 1 0 0 0 0 0 0 0 0 0
Neighs:    308519 ave 308519 max 308519 min
Histogram: 1 0 0 0 0 0 0 0 0 0

Total # of neighbors = 308519
Ave neighs/atom = 106.349
Ave special neighs/atom = 11.1596
Neighbor list builds = 0
Dangerous builds = 0
write_dump all custom pysimm.dump.tmp id q x y z vx vy vz
quit
