pySIMM System Object

1741 atoms
1920 bonds
3297 angles
5150 dihedrals
600 impropers

9 atom types
11 bond types
19 angle types
8 dihedral types
4 improper types

-194.231755 194.231755 xlo xhi
-194.231755 194.231755 ylo yhi
-194.231755 194.231755 zlo zhi

Masses

   1	14.01	# n
   2	12.01	# c
   3	12.01	# ca
   4	1.008	# hn
   5	16.0	# o
   6	1.008	# ha
   7	12.01	# c3
   8	19.0	# f
   9	16.0	# os

Pair Coeffs

   1	0.17	3.249998523775958	# n
   2	0.086	3.3996695084235347	# c
   3	0.086	3.3996695084235347	# ca
   4	0.0157	1.069078461768407	# hn
   5	0.21	2.959921901149463	# o
   6	0.015	2.59964245953351	# ha
   7	0.1094	3.3996695084235347	# c3
   8	0.061	3.1181455134911875	# f
   9	0.17	3.0000123434657784	# os

Bond Coeffs

   1	427.6	1.3789	# c,n
   2	461.1	1.3984	# ca,ca
   3	356.9	1.3497	# c3,f
   4	345.9	1.4906	# c,ca
   5	345.8	1.086	# ca,ha
   6	384.2	1.4121	# ca,n
   7	637.7	1.2183	# c,o
   8	321.0	1.5156	# c3,ca
   9	300.9	1.5375	# c3,c3
  10	376.6	1.3696	# ca,os
  11	403.2	1.0129	# hn,n

Angle Coeffs

   1	62.86	111.51	# c3,c3,c3
   2	63.74	127.08	# c,n,c
   3	48.18	119.88	# ca,ca,ha
   4	68.72	122.6	# ca,c,o
   5	63.15	112.07	# c3,c3,ca
   6	70.89	107.36	# f,c3,f
   7	67.87	120.19	# ca,ca,n
   8	63.56	112.24	# ca,c3,ca
   9	63.82	123.71	# c,n,ca
  10	67.68	115.25	# ca,c,n
  11	69.58	119.2	# ca,ca,os
  12	48.33	117.55	# c,n,hn
  13	74.22	123.05	# n,c,o
  14	64.28	120.33	# c,ca,ca
  15	66.11	109.24	# c3,c3,f
  16	63.48	119.89	# ca,os,ca
  17	63.53	120.77	# c3,ca,ca
  18	66.62	120.02	# ca,ca,ca
  19	49.75	116.02	# ha,ca,n

Dihedral Coeffs

   1	1	0.0	2	0	# X,c3,ca,X
   2	1	0.9	2	180	# X,ca,os,X
   3	1	2.5	2	180	# X,c,n,X
   4	1	0.45	2	180	# X,ca,n,X
   5	2	2.5	2	180	2.0	1	0	# hn,n,c,o
   6	1	3.625	2	180	# X,ca,ca,X
   7	1	1.0	2	180	# X,c,ca,X
   8	1	0.15555555555555556	3	0	# X,c3,c3,X

Improper Coeffs

   1	10.5	-1	2	# c,X,X,o
   2	1.1	-1	2	# ca,ca,ca,c3
   3	1.1	-1	2	# n,X,X,hn
   4	1.1	-1	2	# ca,X,X,ha

Atoms

   1	1	1	0.48116	-3.42329	19.7279	40.2106
   2	1	2	0.034009	-2.02242	19.619	40.2074
   3	1	3	0.028921	-1.61831	19.5914	41.636
   4	1	2	0.071556	-3.93861	19.6993	41.5147
   5	1	3	0.025276	-2.75434	19.6823	42.4073
   6	1	5	-0.381907	-1.25268	19.5884	39.2602
   7	1	5	-0.393799	-5.10583	19.6959	41.8756
   8	1	3	-0.008998	-0.341067	19.5314	42.2084
   9	1	3	-0.064503	-2.67294	19.8178	43.7926
  10	1	3	-0.16756	-1.39474	19.807	44.3863
  11	1	3	-0.085161	-0.207823	19.6073	43.6224
  12	1	6	0.158939	0.516451	19.447	41.5484
  13	1	6	0.163781	-3.57209	19.9688	44.3866
  14	1	6	0.161401	-1.35326	19.9676	45.4595
  15	1	7	-0.078003	1.19476	19.5289	44.3076
  16	1	7	0.303704	2.03942	18.3155	43.7451
  17	1	8	-0.1084	1.30188	17.1868	43.6553
  18	1	8	-0.101508	3.09203	18.0334	44.5463
  19	1	8	-0.111714	2.54849	18.515	42.5097
  20	1	7	0.380371	1.96031	20.8728	43.9966
  21	1	8	-0.124028	2.09667	21.1072	42.6779
  22	1	8	-0.119704	3.21645	20.8896	44.4972
  23	1	8	-0.115877	1.29337	21.9423	44.4846
  24	1	3	-0.024709	1.02944	19.2817	45.846
  25	1	3	-0.076489	1.57639	20.1459	46.8352
  26	1	3	-0.052344	1.39783	19.8382	48.1871
  27	1	3	-0.054202	0.312099	18.1341	46.2979
  28	1	3	-0.149083	0.132271	17.8496	47.6677
  29	1	3	-0.063027	0.695305	18.7272	48.5984
  30	1	2	0.499526	0.697613	18.7025	50.0874
  31	1	1	-0.036881	1.43137	19.815	50.4741
  32	1	2	0.443545	1.88197	20.555	49.3928
  33	1	3	0.038197	1.69596	20.165	51.8214
  34	1	3	-0.408621	3.01278	20.1305	52.3118
  35	1	3	0.252781	3.28174	20.4984	53.64
  36	1	3	-0.169778	0.651375	20.5797	52.666
  37	1	3	-0.113042	0.918668	20.9552	53.9937
  38	1	3	0.016958	2.23519	20.8946	54.4894
  39	1	6	0.167832	-0.423067	16.973	47.9965
  40	1	6	0.134138	-0.140069	17.4593	45.5765
  41	1	6	0.145229	2.1405	21.0417	46.6019
  42	1	5	-0.462312	2.50591	21.6011	49.4036
  43	1	5	-0.483102	0.147417	17.8798	50.799
  44	1	6	0.144532	0.109058	21.2951	54.6341
  45	1	6	0.226042	3.83668	19.8397	51.6675
  46	1	3	0.12103	1.70538	21.0793	56.8663
  47	1	3	-0.09864	1.69837	22.0464	57.8834
  48	1	3	-0.194398	0.869906	21.8834	59.0077
  49	1	3	-0.091961	0.052011	20.7461	59.1176
  50	1	3	-0.197799	0.0690161	19.7684	58.1084
  51	1	3	-0.102777	0.900486	19.9306	56.9864
  52	1	6	0.132074	-0.588768	20.6192	59.9871
  53	1	6	0.154044	-0.556685	18.884	58.1975
  54	1	6	0.145155	2.33459	22.9218	57.792
  55	1	6	0.14558	0.923225	19.1684	56.2126
  56	1	9	-0.24014	2.53405	21.2676	55.7825
  57	1	6	0.152938	-0.367817	20.6204	52.2903
  58	1	6	0.151751	0.863635	22.6358	59.7922
  59	1	1	0.48116	1.06063	31.5325	47.1874
  60	1	2	0.034009	0.596967	30.2511	47.5098
  61	1	3	0.028921	1.67433	29.3261	47.0879
  62	1	2	0.071556	2.32752	31.4983	46.5842
  63	1	3	0.025276	2.69203	30.0604	46.521
  64	1	5	-0.381907	-0.469423	29.9201	48.0046
  65	1	5	-0.393799	3.01168	32.4296	46.1868
  66	1	3	-0.008998	1.75849	27.9394	47.228
  67	1	3	-0.064503	3.84017	29.4387	46.0242
  68	1	3	-0.16756	3.94437	28.0368	46.1482
  69	1	3	-0.085161	2.9146	27.2646	46.7581
  70	1	6	0.158939	0.944409	27.4091	47.7151
  71	1	6	0.163781	4.63248	30.0288	45.5698
  72	1	6	0.161401	4.85003	27.5696	45.7763
  73	1	7	-0.078003	3.03475	25.733	47.004
  74	1	7	0.303704	4.08933	25.0127	46.0775
  75	1	8	-0.1084	3.9283	25.3403	44.7757
  76	1	8	-0.101508	3.96664	23.6664	46.1426
  77	1	8	-0.111714	5.37114	25.2957	46.402
  78	1	7	0.380371	3.47178	25.5688	48.5109
  79	1	8	-0.124028	4.53445	26.3508	48.8107
  80	1	8	-0.119704	3.827	24.3055	48.8313
  81	1	8	-0.115877	2.48654	25.9388	49.3611
  82	1	3	-0.024709	1.659	25.0873	46.6723
  83	1	3	-0.076489	1.01978	25.4485	45.4584
  84	1	3	-0.052344	-0.184199	24.8271	45.1123
  85	1	3	-0.054202	1.04002	24.1032	47.4961
  86	1	3	-0.149083	-0.173073	23.4874	47.1258
  87	1	3	-0.063027	-0.761223	23.8673	45.9147
  88	1	2	0.499526	-1.94394	23.3166	45.2011
  89	1	1	-0.036881	-1.98048	23.9697	43.9712
  90	1	2	0.443545	-0.986703	24.9377	43.8696
  91	1	3	0.038197	-2.83586	23.5988	42.8916
  92	1	3	-0.408621	-4.18648	23.2676	43.111
  93	1	3	0.252781	-4.98454	22.793	42.0557
  94	1	3	-0.169778	-2.31615	23.4969	41.5853
  95	1	3	-0.113042	-3.11311	23.0359	40.5265
  96	1	3	0.016958	-4.44101	22.6505	40.7667
  97	1	6	0.167832	-0.623384	22.7141	47.7444
  98	1	6	0.134138	1.49937	23.7797	48.4236
  99	1	6	0.145229	1.46506	26.1706	44.7753
 100	1	5	-0.462312	-0.767608	25.7011	42.9446
 101	1	5	-0.483102	-2.6633	22.4198	45.6113
 102	1	6	0.144532	-2.69152	22.9418	39.5308
 103	1	6	0.226042	-4.61764	23.3221	44.1066
 104	1	3	0.12103	-4.624	21.2458	38.7877
 105	1	3	-0.09864	-4.60877	21.7979	37.4963
 106	1	3	-0.194398	-4.1439	21.047	36.4087
 107	1	3	-0.091961	-3.72093	19.7293	36.6168
 108	1	3	-0.197799	-3.77298	19.1686	37.9029
 109	1	3	-0.102777	-4.22662	19.9036	39.027
 110	1	6	0.132074	-3.33834	19.1429	35.7836
 111	1	6	0.154044	-3.40244	18.1533	38.0361
 112	1	6	0.145155	-4.96285	22.8139	37.3461
 113	1	6	0.14558	-5.08705	19.3863	39.4372
 114	1	9	-0.24014	-5.17846	22.0182	39.7884
 115	1	6	0.152938	-1.2782	23.7516	41.387
 116	1	6	0.151751	-4.11428	21.4796	35.4115
 117	1	1	0.48116	-0.746277	21.6306	33.0749
 118	1	2	0.034009	-0.578965	21.1128	34.3658
 119	1	3	0.028921	0.183771	22.1439	35.1112
 120	1	2	0.071556	-0.1192	22.8749	32.9222
 121	1	3	0.025276	0.452512	23.1903	34.2555
 122	1	5	-0.381907	-0.949521	20.0354	34.805
 123	1	5	-0.393799	-0.0130631	23.5669	31.9211
 124	1	3	-0.008998	0.583447	22.1633	36.4515
 125	1	3	-0.064503	1.1459	24.3211	34.6913
 126	1	3	-0.16756	1.53646	24.3747	36.0451
 127	1	3	-0.085161	1.25243	23.3148	36.9524
 128	1	6	0.158939	0.336054	21.3032	37.067
 129	1	6	0.163781	1.3527	25.1393	34.0047
 130	1	6	0.161401	2.04526	25.2689	36.3984
 131	1	7	-0.078003	1.6434	23.4884	38.4526
 132	1	7	0.303704	1.02761	22.3852	39.387
 133	1	8	-0.1084	-0.305454	22.2887	39.2123
 134	1	8	-0.101508	1.18724	22.6901	40.6918
 135	1	8	-0.111714	1.56677	21.1605	39.194
 136	1	7	0.380371	3.21788	23.4264	38.5368
 137	1	8	-0.124028	3.708	22.4022	37.8016
 138	1	8	-0.119704	3.69213	23.2526	39.791
 139	1	8	-0.115877	3.7904	24.5537	38.0581
 140	1	3	-0.024709	1.04249	24.8266	38.9696
 141	1	3	-0.076489	1.64592	25.5701	40.0199
 142	1	3	-0.052344	0.97188	26.6856	40.5341
 143	1	3	-0.054202	-0.228812	25.2498	38.4853
 144	1	3	-0.149083	-0.881204	26.383	39.0037
 145	1	3	-0.063027	-0.254788	27.0781	40.04
 146	1	2	0.499526	-0.725219	28.2459	40.8259
 147	1	1	-0.036881	0.271393	28.4937	41.7589
 148	1	2	0.443545	1.32371	27.5911	41.6643
 149	1	3	0.038197	0.229561	29.5906	42.6578
 150	1	3	-0.408621	-0.856081	29.7474	43.5383
 151	1	3	0.252781	-0.955163	30.8929	44.3445
 152	1	3	-0.169778	1.23221	30.5754	42.6127
 153	1	3	-0.113042	1.13414	31.7249	43.4134
 154	1	3	0.016958	0.0375432	31.8884	44.2724
 155	1	6	0.167832	-1.86029	26.691	38.6422
 156	1	6	0.134138	-0.743345	24.6772	37.7184
 157	1	6	0.145229	2.58589	25.2777	40.4759
 158	1	5	-0.462312	2.33675	27.5449	42.3436
 159	1	5	-0.483102	-1.75568	28.8705	40.6339
 160	1	6	0.144532	1.90498	32.4908	43.3737
 161	1	6	0.226042	-1.6518	29.0079	43.564
 162	1	3	0.12103	-0.540905	33.0566	46.3116
 163	1	3	-0.09864	-1.83454	33.5696	46.4946
 164	1	3	-0.194398	-2.36475	33.6972	47.786
 165	1	3	-0.091961	-1.58958	33.3162	48.8889
 166	1	3	-0.197799	-0.286481	32.8282	48.697
 167	1	3	-0.102777	0.287901	32.723	47.406
 168	1	6	0.132074	-2.00175	33.3875	49.8932
 169	1	6	0.154044	0.282606	32.5084	49.5684
 170	1	6	0.145155	-2.42114	33.8661	45.6295
 171	1	6	0.14558	1.13347	33.4008	47.3752
 172	1	9	-0.24014	-0.0275842	33.0306	45.0374
 173	1	6	0.152938	2.07764	30.4604	41.9392
 174	1	6	0.151751	-3.37212	34.0804	47.9303
 175	1	1	0.48116	-2.61031	28.8301	20.2506
 176	1	2	0.034009	-3.07782	29.9652	20.9295
 177	1	3	0.028921	-4.33072	29.5387	21.6007
 178	1	2	0.071556	-3.46711	27.7318	20.4201
 179	1	3	0.025276	-4.56324	28.2156	21.2972
 180	1	5	-0.381907	-2.54476	31.0555	21.0633
 181	1	5	-0.393799	-3.31226	26.5803	20.0423
 182	1	3	-0.008998	-5.15177	30.25	22.4824
 183	1	3	-0.064503	-5.64733	27.528	21.848
 184	1	3	-0.16756	-6.48813	28.2252	22.7408
 185	1	3	-0.085161	-6.24887	29.5841	23.0942
 186	1	6	0.158939	-4.89501	31.2829	22.6902
 187	1	6	0.163781	-5.81293	26.4794	21.61
 188	1	6	0.161401	-7.32055	27.6871	23.1886
 189	1	7	-0.078003	-7.17987	30.2664	24.1452
 190	1	7	0.303704	-6.60923	31.6247	24.7064
 191	1	8	-0.1084	-5.34556	31.4828	25.1676
 192	1	8	-0.101508	-7.33311	32.0806	25.7543
 193	1	8	-0.111714	-6.59766	32.614	23.7852
 194	1	7	0.380371	-8.55485	30.5387	23.4201
 195	1	8	-0.124028	-8.36964	31.1101	22.2082
 196	1	8	-0.119704	-9.37749	31.364	24.106
 197	1	8	-0.115877	-9.24205	29.3945	23.2031
 198	1	3	-0.024709	-7.29798	29.3235	25.3788
 199	1	3	-0.076489	-6.14658	28.6184	25.8167
 200	1	3	-0.052344	-6.22907	27.8147	26.9587
 201	1	3	-0.054202	-8.4928	29.2	26.1458
 202	1	3	-0.149083	-8.5506	28.3913	27.3008
 203	1	3	-0.063027	-7.39307	27.7062	27.6857
 204	1	2	0.499526	-7.1376	26.7993	28.8379
 205	1	1	-0.036881	-5.809	26.3988	28.719
 206	1	2	0.443545	-5.19355	26.9729	27.6097
 207	1	3	0.038197	-5.16156	25.4717	29.5907
 208	1	3	-0.408621	-5.82732	24.307	30.0217
 209	1	3	0.252781	-5.16552	23.3574	30.8173
 210	1	3	-0.169778	-3.82723	25.6795	29.9963
 211	1	3	-0.113042	-3.15679	24.7256	30.7809
 212	1	3	0.016958	-3.82392	23.558	31.1815
 213	1	6	0.167832	-9.46381	28.3073	27.8871
 214	1	6	0.134138	-9.39025	29.7429	25.8719
 215	1	6	0.145229	-5.19684	28.6962	25.2923
 216	1	5	-0.462312	-4.05718	26.8044	27.2011
 217	1	5	-0.483102	-7.95586	26.4757	29.6824
 218	1	6	0.144532	-2.11339	24.8733	31.0488
 219	1	6	0.226042	-6.86007	24.1229	29.7398
 220	1	3	0.12103	-2.2423	21.7226	31.2102
 221	1	3	-0.09864	-2.22983	21.6018	29.8053
 222	1	3	-0.194398	-1.36812	20.6891	29.1815
 223	1	3	-0.091961	-0.521792	19.8922	29.9611
 224	1	3	-0.197799	-0.53842	20.0147	31.3587
 225	1	3	-0.102777	-1.40337	20.9217	32.015
 226	1	6	0.132074	0.151912	19.1842	29.4831
 227	1	6	0.154044	0.132296	19.3893	31.9468
 228	1	6	0.145155	-2.88729	22.2109	29.1922
 229	1	6	0.14558	-2.05674	20.3606	32.6739
 230	1	9	-0.24014	-3.13455	22.5685	31.8433
 231	1	6	0.152938	-3.28902	26.5677	29.6738
 232	1	6	0.151751	-1.3572	20.6018	28.0977
 233	1	1	0.48116	1.64268	32.341	3.18716
 234	1	2	0.034009	1.83569	32.0404	4.54468
 235	1	3	0.028921	2.19859	33.3247	5.19219
 236	1	2	0.071556	1.8725	33.6992	2.91857
 237	1	3	0.025276	2.22693	34.3061	4.22697
 238	1	5	-0.381907	1.71121	30.9719	5.12221
 239	1	5	-0.393799	1.7604	34.3012	1.86163
 240	1	3	-0.008998	2.4666	33.6058	6.53687
 241	1	3	-0.064503	2.5414	35.6271	4.55162
 242	1	3	-0.16756	2.8222	35.9332	5.90029
 243	1	3	-0.085161	2.77666	34.9376	6.92055
 244	1	6	0.158939	2.42816	32.798	7.26365
 245	1	6	0.163781	2.57049	36.3904	3.77675
 246	1	6	0.161401	3.07927	36.9623	6.12612
 247	1	7	-0.078003	3.0954	35.2342	8.42055
 248	1	7	0.303704	4.53371	34.6418	8.68722
 249	1	8	-0.1084	4.52275	33.2898	8.70429
 250	1	8	-0.101508	5.08026	35.0461	9.85562
 251	1	8	-0.111714	5.40468	35.0029	7.71725
 252	1	7	0.380371	3.09295	36.7701	8.77881
 253	1	8	-0.124028	4.12833	37.4465	8.23107
 254	1	8	-0.119704	3.16387	36.9764	10.1139
 255	1	8	-0.115877	1.95301	37.3739	8.37164
 256	1	3	-0.024709	1.98738	34.5852	9.30456
 257	1	3	-0.076489	2.26247	33.9995	10.5706
 258	1	3	-0.052344	1.20283	33.4751	11.3251
 259	1	3	-0.054202	0.631209	34.6415	8.8737
 260	1	3	-0.149083	-0.418721	34.102	9.6449
 261	1	3	-0.063027	-0.0983215	33.5174	10.8747
 262	1	2	0.499526	-0.97241	32.9032	11.9117
 263	1	1	-0.036881	-0.126487	32.5301	12.9529
 264	1	2	0.443545	1.20272	32.8383	12.6708
 265	1	3	0.038197	-0.568326	31.9275	14.1723
 266	1	3	-0.408621	-1.71375	32.4072	14.8387
 267	1	3	0.252781	-2.14233	31.8234	16.0434
 268	1	3	-0.169778	0.135157	30.8441	14.7368
 269	1	3	-0.113042	-0.286062	30.2615	15.9464
 270	1	3	0.016958	-1.4204	30.761	16.6123
 271	1	6	0.167832	-1.45212	34.1495	9.3066
 272	1	6	0.134138	0.381054	35.1196	7.92975
 273	1	6	0.145229	3.26291	33.9552	10.9882
 274	1	5	-0.462312	2.18349	32.6593	13.3726
 275	1	5	-0.483102	-2.18439	32.7867	11.8397
 276	1	6	0.144532	0.269803	29.4285	16.3686
 277	1	6	0.226042	-2.29244	33.2271	14.4231
 278	1	3	0.12103	-0.994454	29.8665	18.8392
 279	1	3	-0.09864	0.164077	30.627	19.0885
 280	1	3	-0.194398	1.06559	30.2343	20.0875
 281	1	3	-0.091961	0.817004	29.0675	20.8206
 282	1	3	-0.197799	-0.348838	28.3239	20.5777
 283	1	3	-0.102777	-1.31623	28.743	19.6324
 284	1	6	0.132074	1.52296	28.7433	21.5824
 285	1	6	0.154044	-0.525643	27.4229	21.1644
 286	1	6	0.145155	0.36409	31.52	18.5033
 287	1	6	0.14558	-1.58744	27.9255	18.9731
 288	1	9	-0.24014	-1.84408	30.2135	17.8076
 289	1	6	0.152938	1.02115	30.4534	14.2421
 290	1	6	0.151751	1.9589	30.8236	20.2799
 291	1	1	0.48116	8.19758	27.0648	-14.7599
 292	1	2	0.034009	8.69312	26.349	-13.6592
 293	1	3	0.028921	7.81429	26.7146	-12.5192
 294	1	2	0.071556	7.08878	27.849	-14.416
 295	1	3	0.025276	6.86757	27.6089	-12.9678
 296	1	5	-0.381907	9.65355	25.5969	-13.6048
 297	1	5	-0.393799	6.42327	28.589	-15.1237
 298	1	3	-0.008998	7.83615	26.2682	-11.1928
 299	1	3	-0.064503	5.893	28.1223	-12.1092
 300	1	3	-0.16756	5.90034	27.6918	-10.7658
 301	1	3	-0.085161	6.86277	26.7623	-10.2805
 302	1	6	0.158939	8.5883	25.5374	-10.9167
 303	1	6	0.163781	5.14398	28.8177	-12.4815
 304	1	6	0.161401	5.12619	28.0673	-10.1
 305	1	7	-0.078003	6.74233	26.2495	-8.81238
 306	1	7	0.303704	5.55556	25.209	-8.81666
 307	1	8	-0.1084	5.66524	24.3342	-9.84278
 308	1	8	-0.101508	4.3571	25.8179	-8.96531
 309	1	8	-0.111714	5.48609	24.4624	-7.69143
 310	1	7	0.380371	8.04941	25.5428	-8.28399
 311	1	8	-0.124028	8.0024	25.3309	-6.94858
 312	1	8	-0.119704	9.14617	26.3033	-8.50352
 313	1	8	-0.115877	8.27422	24.3379	-8.85498
 314	1	3	-0.024709	6.49876	27.4571	-7.8572
 315	1	3	-0.076489	5.63766	27.3698	-6.73095
 316	1	3	-0.052344	5.54944	28.4561	-5.85261
 317	1	3	-0.054202	7.24022	28.6591	-8.03984
 318	1	3	-0.149083	7.13555	29.7436	-7.14157
 319	1	3	-0.063027	6.27904	29.6089	-6.04221
 320	1	2	0.499526	6.01436	30.5194	-4.89094
 321	1	1	-0.036881	5.1285	29.8351	-4.06319
 322	1	2	0.443545	4.78954	28.5899	-4.58361
 323	1	3	0.038197	4.66069	30.3074	-2.80036
 324	1	3	-0.408621	5.55423	30.8365	-1.84882
 325	1	3	0.252781	5.10105	31.2059	-0.569033
 326	1	3	-0.169778	3.29901	30.1936	-2.46065
 327	1	3	-0.113042	2.84238	30.5614	-1.18377
 328	1	3	0.016958	3.74881	31.0429	-0.220053
 329	1	6	0.167832	7.72448	30.6489	-7.27665
 330	1	6	0.134138	7.93187	28.7444	-8.87448
 331	1	6	0.145229	5.06791	26.4775	-6.49617
 332	1	5	-0.462312	4.05385	27.7444	-4.10332
 333	1	5	-0.483102	6.52448	31.6127	-4.71348
 334	1	6	0.144532	1.79043	30.4459	-0.938368
 335	1	6	0.226042	6.60706	30.9567	-2.08754
 336	1	3	0.12103	2.30782	30.6477	1.68517
 337	1	3	-0.09864	2.32432	29.2411	1.67953
 338	1	3	-0.194398	1.22423	28.5206	2.16335
 339	1	3	-0.091961	0.101604	29.2129	2.63366
 340	1	3	-0.197799	0.0968753	30.6172	2.64399
 341	1	3	-0.102777	1.21772	31.3703	2.21476
 342	1	6	0.132074	-0.76066	28.6623	3.00319
 343	1	6	0.154044	-0.777	31.1308	3.0406
 344	1	6	0.145155	3.18343	28.7131	1.27447
 345	1	6	0.14558	0.894955	32.0984	1.48001
 346	1	9	-0.24014	3.3319	31.3336	1.06642
 347	1	6	0.152938	2.59114	29.7866	-3.17881
 348	1	6	0.151751	1.23516	27.4331	2.15546
 349	1	1	0.48116	11.7888	13.0514	-25.131
 350	1	2	0.034009	11.1592	12.6736	-23.9364
 351	1	3	0.028921	11.701	13.5881	-22.8996
 352	1	2	0.071556	12.5816	14.1942	-24.9632
 353	1	3	0.025276	12.5263	14.505	-23.5136
 354	1	5	-0.381907	10.3253	11.8029	-23.7463
 355	1	5	-0.393799	13.222	14.806	-25.8047
 356	1	3	-0.008998	11.5542	13.5458	-21.5085
 357	1	3	-0.064503	13.2157	15.4691	-22.7752
 358	1	3	-0.16756	13.0744	15.4517	-21.3723
 359	1	3	-0.085161	12.2637	14.4856	-20.7119
 360	1	6	0.158939	10.9477	12.7534	-21.0837
 361	1	6	0.163781	13.8764	16.1759	-23.2729
 362	1	6	0.161401	13.652	16.1671	-20.7909
 363	1	7	-0.078003	12.3109	14.3961	-19.1586
 364	1	7	0.303704	13.622	13.5842	-18.8187
 365	1	8	-0.1084	14.7397	14.2692	-19.1533
 366	1	8	-0.101508	13.6873	12.4206	-19.5053
 367	1	8	-0.111714	13.7225	13.2638	-17.5085
 368	1	7	0.380371	11.071	13.6496	-18.5257
 369	1	8	-0.124028	11.0895	12.3107	-18.7115
 370	1	8	-0.119704	11.0051	13.8476	-17.1888
 371	1	8	-0.115877	9.9	14.0949	-19.0338
 372	1	3	-0.024709	12.2954	15.8402	-18.5697
 373	1	3	-0.076489	11.2747	16.7378	-18.9824
 374	1	3	-0.052344	11.1983	18.008	-18.3934
 375	1	3	-0.054202	13.2193	16.2851	-17.5788
 376	1	3	-0.149083	13.1398	17.5747	-17.0172
 377	1	3	-0.063027	12.1092	18.4165	-17.4429
 378	1	2	0.499526	11.734	19.7809	-16.9882
 379	1	1	-0.036881	10.5783	20.1029	-17.6859
 380	1	2	0.443545	10.1957	19.0963	-18.5662
 381	1	3	0.038197	9.85037	21.3026	-17.4591
 382	1	3	-0.408621	8.54949	21.2532	-16.9277
 383	1	3	0.252781	7.8705	22.4402	-16.6036
 384	1	3	-0.169778	10.4535	22.5539	-17.683
 385	1	3	-0.113042	9.77093	23.7443	-17.3739
 386	1	3	0.016958	8.4744	23.6903	-16.8249
 387	1	6	0.167832	13.8393	17.901	-16.2496
 388	1	6	0.134138	14.0066	15.6391	-17.2083
 389	1	6	0.145229	10.5342	16.4487	-19.7246
 390	1	5	-0.462312	9.22567	19.068	-19.3037
 391	1	5	-0.483102	12.3237	20.4474	-16.1552
 392	1	6	0.144532	10.2641	24.6986	-17.5328
 393	1	6	0.226042	8.06587	20.2991	-16.7415
 394	1	3	0.12103	8.08664	26.0888	-16.9196
 395	1	3	-0.09864	7.7418	26.398	-18.2452
 396	1	3	-0.194398	8.03615	27.663	-18.7719
 397	1	3	-0.091961	8.68059	28.6111	-17.9669
 398	1	3	-0.197799	9.02741	28.2906	-16.6439
 399	1	3	-0.102777	8.74657	27.0185	-16.0868
 400	1	6	0.132074	8.89554	29.6018	-18.3617
 401	1	6	0.154044	9.49979	29.0558	-16.0305
 402	1	6	0.145155	7.23651	25.6545	-18.8557
 403	1	6	0.14558	9.69027	26.5756	-15.7919
 404	1	9	-0.24014	7.79766	24.8317	-16.4416
 405	1	6	0.152938	11.4681	22.6041	-18.0701
 406	1	6	0.151751	7.75464	27.9111	-19.7925
 407	1	1	0.48116	19.95	-1.83543	-22.1658
 408	1	2	0.034009	19.9924	-1.60858	-23.5444
 409	1	3	0.028921	20.3031	-0.171479	-23.6985
 410	1	2	0.071556	20.2004	-0.665417	-21.4301
 411	1	3	0.025276	20.4101	0.397662	-22.4489
 412	1	5	-0.381907	19.8125	-2.39861	-24.4574
 413	1	5	-0.393799	20.2887	-0.522971	-20.2196
 414	1	3	-0.008998	20.524	0.556067	-24.8683
 415	1	3	-0.064503	20.709	1.75553	-22.3025
 416	1	3	-0.16756	20.9208	2.51661	-23.4732
 417	1	3	-0.085161	20.8474	1.93392	-24.7704
 418	1	6	0.158939	20.4708	0.0235444	-25.8111
 419	1	6	0.163781	20.7944	2.19883	-21.3133
 420	1	6	0.161401	21.1803	3.56767	-23.366
 421	1	7	-0.078003	21.2332	2.78441	-26.0146
 422	1	7	0.303704	22.8102	2.85578	-26.0124
 423	1	8	-0.1084	23.2812	3.60483	-24.9891
 424	1	8	-0.101508	23.3232	3.36896	-27.1534
 425	1	8	-0.111714	23.3651	1.63098	-25.8619
 426	1	7	0.380371	20.7504	2.16021	-27.3831
 427	1	8	-0.124028	20.8708	3.0408	-28.4026
 428	1	8	-0.119704	19.4452	1.80766	-27.3439
 429	1	8	-0.115877	21.4459	1.05886	-27.7466
 430	1	3	-0.024709	20.5388	4.17339	-25.9072
 431	1	3	-0.076489	19.1511	4.22642	-25.6084
 432	1	3	-0.052344	18.4991	5.46709	-25.6074
 433	1	3	-0.054202	21.2163	5.39653	-26.1834
 434	1	3	-0.149083	20.5462	6.63523	-26.1602
 435	1	3	-0.063027	19.1789	6.63761	-25.873
 436	1	2	0.499526	18.2074	7.76161	-25.843
 437	1	1	-0.036881	16.9772	7.17942	-25.5819
 438	1	2	0.443545	17.0618	5.80451	-25.4077
 439	1	3	0.038197	15.7735	7.92338	-25.527
 440	1	3	-0.408621	14.9637	8.05244	-26.6701
 441	1	3	0.252781	13.8085	8.85295	-26.6301
 442	1	3	-0.169778	15.4162	8.59151	-24.3445
 443	1	3	-0.113042	14.2592	9.38536	-24.3043
 444	1	3	0.016958	13.4564	9.52345	-25.4445
 445	1	6	0.167832	21.0652	7.5646	-26.388
 446	1	6	0.134138	22.2684	5.41183	-26.4423
 447	1	6	0.145229	18.5774	3.32279	-25.4127
 448	1	5	-0.462312	16.1599	5.01997	-25.1697
 449	1	5	-0.483102	18.4614	8.9389	-26.0314
 450	1	6	0.144532	13.9784	9.89688	-23.3872
 451	1	6	0.226042	15.2268	7.54778	-27.594
 452	1	3	0.12103	11.6865	10.9619	-26.3701
 453	1	3	-0.09864	11.071	10.2072	-27.3836
 454	1	3	-0.194398	10.3183	10.8461	-28.3793
 455	1	3	-0.091961	10.1448	12.2351	-28.3265
 456	1	3	-0.197799	10.762	12.9789	-27.3079
 457	1	3	-0.102777	11.6539	12.3748	-26.3904
 458	1	6	0.132074	9.51324	12.7324	-29.0595
 459	1	6	0.154044	10.5968	14.0547	-27.2724
 460	1	6	0.145155	11.1371	9.12372	-27.3685
 461	1	6	0.14558	12.6367	12.6213	-26.7779
 462	1	9	-0.24014	12.3475	10.3312	-25.3406
 463	1	6	0.152938	16.0348	8.50517	-23.4552
 464	1	6	0.151751	9.82507	10.2612	-29.1522
 465	1	1	0.48116	2.22242	-2.59479	-21.1064
 466	1	2	0.034009	2.34399	-1.36721	-21.7752
 467	1	3	0.028921	3.78454	-1.24578	-22.1496
 468	1	2	0.071556	3.46843	-3.21635	-20.9414
 469	1	3	0.025276	4.44245	-2.34067	-21.6335
 470	1	5	-0.381907	1.45995	-0.568178	-22.0363
 471	1	5	-0.393799	3.73921	-4.2816	-20.4086
 472	1	3	-0.008998	4.46344	-0.283261	-22.919
 473	1	3	-0.064503	5.81321	-2.51735	-21.8114
 474	1	3	-0.16756	6.51717	-1.54912	-22.5515
 475	1	3	-0.085161	5.86177	-0.43568	-23.1553
 476	1	6	0.158939	3.90467	0.560404	-23.3088
 477	1	6	0.163781	6.31373	-3.38201	-21.3816
 478	1	6	0.161401	7.59028	-1.68752	-22.6427
 479	1	7	-0.078003	6.68073	0.604434	-23.9914
 480	1	7	0.303704	5.94391	1.01005	-25.3319
 481	1	8	-0.1084	6.79427	1.58332	-26.214
 482	1	8	-0.101508	4.94033	1.89085	-25.1684
 483	1	8	-0.111714	5.38312	-0.049169	-25.9549
 484	1	7	0.380371	6.85261	1.89667	-23.1014
 485	1	8	-0.124028	5.67581	2.42818	-22.7187
 486	1	8	-0.119704	7.54255	2.86639	-23.7422
 487	1	8	-0.115877	7.48259	1.63952	-21.9401
 488	1	3	-0.024709	8.05577	-0.0288676	-24.4036
 489	1	3	-0.076489	9.3047	0.415579	-23.8841
 490	1	3	-0.052344	10.4657	-0.309734	-24.1751
 491	1	3	-0.054202	8.06921	-1.17546	-25.2532
 492	1	3	-0.149083	9.25475	-1.87651	-25.5549
 493	1	3	-0.063027	10.4469	-1.42732	-24.9809
 494	1	2	0.499526	11.7951	-2.05892	-24.9371
 495	1	1	-0.036881	12.5275	-1.29495	-24.037
 496	1	2	0.443545	11.8231	-0.184862	-23.5849
 497	1	3	0.038197	13.7535	-1.70935	-23.45
 498	1	3	-0.408621	13.8145	-1.84514	-22.0524
 499	1	3	0.252781	15.0185	-2.17755	-21.4223
 500	1	3	-0.169778	14.9052	-1.96744	-24.2191
 501	1	3	-0.113042	16.1177	-2.31552	-23.5887
 502	1	3	0.016958	16.1697	-2.41684	-22.1846
 503	1	6	0.167832	9.23708	-2.78111	-26.1601
 504	1	6	0.134138	7.14051	-1.58268	-25.6373
 505	1	6	0.145229	9.40752	1.26324	-23.215
 506	1	5	-0.462312	12.1606	0.6175	-22.7303
 507	1	5	-0.483102	12.1101	-3.11438	-25.4607
 508	1	6	0.144532	17.0153	-2.47416	-24.1826
 509	1	6	0.226042	12.9436	-1.63581	-21.4382
 510	1	3	0.12103	18.3352	-3.50866	-21.8628
 511	1	3	-0.09864	18.0004	-4.78195	-22.3541
 512	1	3	-0.194398	19.0123	-5.70953	-22.6367
 513	1	3	-0.091961	20.3515	-5.35921	-22.4171
 514	1	3	-0.197799	20.6733	-4.0877	-21.9137
 515	1	3	-0.102777	19.6713	-3.13172	-21.6203
 516	1	6	0.132074	21.1422	-6.07092	-22.6433
 517	1	6	0.154044	21.7213	-3.83386	-21.7647
 518	1	6	0.145155	16.9585	-5.04916	-22.5071
 519	1	6	0.14558	19.7602	-2.83845	-20.5809
 520	1	9	-0.24014	17.35	-2.62061	-21.5091
 521	1	6	0.152938	14.8675	-1.87612	-25.3022
 522	1	6	0.151751	18.7594	-6.69323	-23.0245
 523	1	1	0.48116	-7.70281	-2.97393	-30.0432
 524	1	2	0.034009	-8.3446	-1.87215	-29.4627
 525	1	3	0.028921	-8.63572	-2.27555	-28.0638
 526	1	2	0.071556	-7.54054	-4.02856	-29.1391
 527	1	3	0.025276	-8.14643	-3.54971	-27.8695
 528	1	5	-0.381907	-8.65271	-0.809573	-29.9802
 529	1	5	-0.393799	-7.0792	-5.14117	-29.3392
 530	1	3	-0.008998	-9.34699	-1.5961	-27.0667
 531	1	3	-0.064503	-8.31027	-4.20596	-26.6481
 532	1	3	-0.16756	-9.01436	-3.53602	-25.6254
 533	1	3	-0.085161	-9.56031	-2.23431	-25.8139
 534	1	6	0.158939	-9.74255	-0.614391	-27.3023
 535	1	6	0.163781	-7.926	-5.2145	-26.5114
 536	1	6	0.161401	-9.16425	-4.05539	-24.6815
 537	1	7	-0.078003	-10.4492	-1.62014	-24.6869
 538	1	7	0.303704	-10.7042	-0.0724971	-24.8503
 539	1	8	-0.1084	-11.2812	0.456138	-23.7468
 540	1	8	-0.101508	-11.5164	0.228654	-25.8887
 541	1	8	-0.111714	-9.55155	0.609733	-25.0338
 542	1	7	0.380371	-11.8304	-2.37976	-24.7661
 543	1	8	-0.124028	-12.3058	-2.41885	-26.0323
 544	1	8	-0.119704	-12.801	-1.81497	-24.0125
 545	1	8	-0.115877	-11.7215	-3.66787	-24.3675
 546	1	3	-0.024709	-9.71919	-1.7974	-23.3222
 547	1	3	-0.076489	-8.334	-1.5076	-23.2539
 548	1	3	-0.052344	-7.66682	-1.64946	-22.0325
 549	1	3	-0.054202	-10.3799	-2.19841	-22.123
 550	1	3	-0.149083	-9.68258	-2.34621	-20.9034
 551	1	3	-0.063027	-8.3123	-2.0641	-20.8869
 552	1	2	0.499526	-7.30019	-2.17659	-19.7945
 553	1	1	-0.036881	-6.0936	-1.82728	-20.381
 554	1	2	0.443545	-6.2308	-1.47682	-21.7149
 555	1	3	0.038197	-4.81796	-1.95243	-19.7817
 556	1	3	-0.408621	-4.06021	-0.557622	-18.9687
 557	1	3	0.252781	-2.26411	-0.581893	-18.587
 558	1	3	-0.169778	-3.83763	-3.4042	-20.1678
 559	1	3	-0.113042	-2.09596	-3.46172	-19.7415
 560	1	3	0.016958	-1.29912	-2.03853	-18.9891
 561	1	6	0.167832	-10.1889	-2.67585	-19.9979
 562	1	6	0.134138	-11.443	-2.40926	-22.114
 563	1	6	0.145229	-7.77736	-1.18682	-24.132
 564	1	5	-0.462312	-5.34818	-1.20154	-22.5078
 565	1	5	-0.483102	-7.48431	-2.63083	-18.6787
 566	1	6	0.144532	-1.52748	-4.34797	-20.0068
 567	1	6	0.226042	-4.63151	0.348047	-18.7786
 568	1	3	0.12103	0.75835	-3.14423	-19.3543
 569	1	3	-0.09864	0.817379	-4.2991	-18.5544
 570	1	3	-0.194398	0.943165	-5.56196	-19.152
 571	1	3	-0.091961	0.932798	-5.66304	-20.5496
 572	1	3	-0.197799	0.900149	-4.49797	-21.3333
 573	1	3	-0.102777	0.968081	-3.20745	-20.7518
 574	1	6	0.132074	0.94382	-6.64056	-21.0268
 575	1	6	0.154044	0.87066	-4.59647	-22.4169
 576	1	6	0.145155	0.646958	-4.22076	-17.4845
 577	1	6	0.14558	0.317759	-2.52051	-21.2777
 578	1	9	-0.24014	0.0731817	-2.06657	-18.8363
 579	1	6	0.152938	-4.28202	-4.23109	-20.7165
 580	1	6	0.151751	0.957373	-6.46	-18.5398
 581	1	1	0.48116	6.0339	7.87461	-26.8819
 582	1	2	0.034009	5.22781	8.48477	-27.8563
 583	1	3	0.028921	4.84003	7.39931	-28.7882
 584	1	2	0.071556	6.30432	6.53398	-27.2021
 585	1	3	0.025276	5.45991	6.23805	-28.3864
 586	1	5	-0.381907	4.82789	9.63717	-27.9185
 587	1	5	-0.393799	7.03276	5.73503	-26.6328
 588	1	3	-0.008998	3.91627	7.42281	-29.8388
 589	1	3	-0.064503	5.14511	5.01376	-28.9775
 590	1	3	-0.16756	4.17488	5.00438	-30.0012
 591	1	3	-0.085161	3.55754	6.20035	-30.4693
 592	1	6	0.158939	3.47827	8.37859	-30.1028
 593	1	6	0.163781	5.60359	4.0969	-28.6143
 594	1	6	0.161401	3.89663	4.04401	-30.4253
 595	1	7	-0.078003	2.4952	6.10509	-31.6077
 596	1	7	0.303704	1.78709	7.48025	-31.9555
 597	1	8	-0.1084	2.63176	8.3863	-32.4962
 598	1	8	-0.101508	0.772533	7.31205	-32.8337
 599	1	8	-0.111714	1.22321	8.07748	-30.8815
 600	1	7	0.380371	3.24185	5.60519	-32.9121
 601	1	8	-0.124028	4.31774	6.37558	-33.1902
 602	1	8	-0.119704	2.45936	5.61399	-34.0147
 603	1	8	-0.115877	3.71522	4.34421	-32.8009
 604	1	3	-0.024709	1.37354	5.15089	-31.1045
 605	1	3	-0.076489	0.895353	4.03907	-31.8505
 606	1	3	-0.052344	-0.182554	3.29861	-31.3443
 607	1	3	-0.054202	0.75789	5.43494	-29.8519
 608	1	3	-0.149083	-0.354306	4.70934	-29.3862
 609	1	3	-0.063027	-0.816444	3.65258	-30.1726
 610	1	2	0.499526	-1.95367	2.72488	-29.955
 611	1	1	-0.036881	-1.87267	1.78914	-30.9775
 612	1	2	0.443545	-0.851967	2.07952	-31.8764
 613	1	3	0.038197	-2.6807	0.621	-31.0235
 614	1	3	-0.408621	-2.07978	-0.65088	-31.0543
 615	1	3	0.252781	-2.86808	-1.80974	-30.9765
 616	1	3	-0.169778	-4.08249	0.718065	-30.9439
 617	1	3	-0.113042	-4.8766	-0.439587	-30.8841
 618	1	3	0.016958	-4.26621	-1.70517	-30.8961
 619	1	6	0.167832	-0.845795	4.96164	-28.448
 620	1	6	0.134138	1.12204	6.2562	-29.2398
 621	1	6	0.145229	1.31678	3.74671	-32.807
 622	1	5	-0.462312	-0.503303	1.44103	-32.8546
 623	1	5	-0.483102	-2.77047	2.79935	-29.0532
 624	1	6	0.144532	-5.95483	-0.349724	-30.7881
 625	1	6	0.226042	-1.00066	-0.752218	-31.1174
 626	1	3	0.12103	-5.94848	-3.23859	-31.6755
 627	1	3	-0.09864	-5.50143	-3.76564	-32.8986
 628	1	3	-0.194398	-6.4291	-4.24775	-33.8341
 629	1	3	-0.091961	-7.79223	-4.25579	-33.5065
 630	1	3	-0.197799	-8.22094	-3.71863	-32.2806
 631	1	3	-0.102777	-7.32189	-3.04099	-31.423
 632	1	6	0.132074	-8.51209	-4.70389	-34.1882
 633	1	6	0.154044	-9.2777	-3.77231	-32.0244
 634	1	6	0.145155	-4.43591	-3.8329	-33.0991
 635	1	6	0.14558	-7.45993	-2.00246	-31.6975
 636	1	9	-0.24014	-5.0204	-2.84222	-30.7443
 637	1	6	0.152938	-4.55871	1.69413	-30.8921
 638	1	6	0.151751	-6.08869	-4.67293	-34.7754
 639	1	1	0.48116	18.8401	3.45737	-14.3915
 640	1	2	0.034009	17.5851	3.67724	-14.9793
 641	1	3	0.028921	17.6671	3.07378	-16.3347
 642	1	2	0.071556	19.7273	2.82595	-15.2673
 643	1	3	0.025276	18.9447	2.58571	-16.5045
 644	1	5	-0.381907	16.6242	4.27057	-14.5164
 645	1	5	-0.393799	20.8976	2.52599	-15.0879
 646	1	3	-0.008998	16.6866	2.94157	-17.33
 647	1	3	-0.064503	19.3256	1.96689	-17.6922