pySIMM System Object

1103 atoms
1216 bonds
2087 angles
3258 dihedrals
380 impropers

9 atom types
11 bond types
19 angle types
8 dihedral types
4 improper types

-165.683173 165.683173 xlo xhi
-165.683173 165.683173 ylo yhi
-165.683173 165.683173 zlo zhi

Masses

   1	14.01	# n
   2	12.01	# c
   3	12.01	# ca
   4	1.008	# hn
   5	16.0	# o
   6	1.008	# ha
   7	12.01	# c3
   8	19.0	# f
   9	16.0	# os

Pair Coeffs

   1	0.17	3.249998523775958	# n
   2	0.086	3.3996695084235347	# c
   3	0.086	3.3996695084235347	# ca
   4	0.0157	1.069078461768407	# hn
   5	0.21	2.959921901149463	# o
   6	0.015	2.59964245953351	# ha
   7	0.1094	3.3996695084235347	# c3
   8	0.061	3.1181455134911875	# f
   9	0.17	3.0000123434657784	# os

Bond Coeffs

   1	427.6	1.3789	# c,n
   2	461.1	1.3984	# ca,ca
   3	356.9	1.3497	# c3,f
   4	345.9	1.4906	# c,ca
   5	345.8	1.086	# ca,ha
   6	384.2	1.4121	# ca,n
   7	637.7	1.2183	# c,o
   8	321.0	1.5156	# c3,ca
   9	300.9	1.5375	# c3,c3
  10	376.6	1.3696	# ca,os
  11	403.2	1.0129	# hn,n

Angle Coeffs

   1	62.86	111.51	# c3,c3,c3
   2	63.74	127.08	# c,n,c
   3	48.18	119.88	# ca,ca,ha
   4	68.72	122.6	# ca,c,o
   5	63.15	112.07	# c3,c3,ca
   6	70.89	107.36	# f,c3,f
   7	67.87	120.19	# ca,ca,n
   8	63.56	112.24	# ca,c3,ca
   9	63.82	123.71	# c,n,ca
  10	67.68	115.25	# ca,c,n
  11	69.58	119.2	# ca,ca,os
  12	48.33	117.55	# c,n,hn
  13	74.22	123.05	# n,c,o
  14	64.28	120.33	# c,ca,ca
  15	66.11	109.24	# c3,c3,f
  16	63.48	119.89	# ca,os,ca
  17	63.53	120.77	# c3,ca,ca
  18	66.62	120.02	# ca,ca,ca
  19	49.75	116.02	# ha,ca,n

Dihedral Coeffs

   1	1	0.0	2	0	# X,c3,ca,X
   2	1	0.9	2	180	# X,ca,os,X
   3	1	2.5	2	180	# X,c,n,X
   4	1	0.45	2	180	# X,ca,n,X
   5	2	2.5	2	180	2.0	1	0	# hn,n,c,o
   6	1	3.625	2	180	# X,ca,ca,X
   7	1	1.0	2	180	# X,c,ca,X
   8	1	0.15555555555555556	3	0	# X,c3,c3,X

Improper Coeffs

   1	10.5	-1	2	# c,X,X,o
   2	1.1	-1	2	# ca,ca,ca,c3
   3	1.1	-1	2	# n,X,X,hn
   4	1.1	-1	2	# ca,X,X,ha

Atoms

   1	1	1	0.48116	-8.20758	-39.9004	19.0972
   2	1	2	0.034009	-9.05111	-39.4286	18.0831
   3	1	3	0.028921	-9.76467	-40.624	17.5732
   4	1	2	0.071556	-8.34484	-41.2839	19.2922
   5	1	3	0.025276	-9.33585	-41.727	18.2778
   6	1	5	-0.381907	-9.15768	-38.2954	17.6404
   7	1	5	-0.393799	-7.76928	-42.005	20.0931
   8	1	3	-0.008998	-10.6842	-40.728	16.5258
   9	1	3	-0.064503	-9.78693	-43.0086	17.9527
  10	1	3	-0.16756	-10.7158	-43.1382	16.8981
  11	1	3	-0.085161	-11.1978	-42.0069	16.1812
  12	1	6	0.158939	-10.955	-39.822	15.9954
  13	1	6	0.163781	-9.40005	-43.8788	18.4791
  14	1	6	0.161401	-11.0402	-44.1397	16.6237
  15	1	7	-0.078003	-12.1696	-42.2097	14.9825
  16	1	7	0.303704	-13.0422	-40.9321	14.6674
  17	1	8	-0.1084	-13.5853	-40.4087	15.7901
  18	1	8	-0.101508	-14.0768	-41.2261	13.8465
  19	1	8	-0.111714	-12.3521	-39.9395	14.0629
  20	1	7	0.380371	-11.2601	-42.541	13.7379
  21	1	8	-0.124028	-10.2451	-41.6568	13.6046
  22	1	8	-0.119704	-11.9347	-42.5277	12.5659
  23	1	8	-0.115877	-10.6762	-43.7548	13.8581
  24	1	3	-0.024709	-13.1884	-43.3386	15.3257
  25	1	3	-0.076489	-13.5358	-44.3582	14.4012
  26	1	3	-0.052344	-14.5346	-45.2744	14.7426
  27	1	3	-0.054202	-13.8753	-43.3051	16.5732
  28	1	3	-0.149083	-14.8877	-44.2358	16.8941
  29	1	3	-0.063027	-15.2061	-45.2135	15.9446
  30	1	2	0.499526	-16.2435	-46.2851	15.9491
  31	1	1	-0.036881	-16.1126	-46.9311	14.7258
  32	1	2	0.443545	-15.1003	-46.3903	13.947
  33	1	3	0.038197	-16.9125	-48.0185	14.2894
  34	1	3	-0.408621	-18.2979	-47.8654	14.1018
  35	1	3	0.252781	-19.0592	-48.9205	13.5689
  36	1	3	-0.169778	-16.3027	-49.2428	13.9655
  37	1	3	-0.113042	-17.0604	-50.2994	13.4376
  38	1	3	0.016958	-18.4409	-50.1331	13.2156
  39	1	6	0.167832	-15.4239	-44.1861	17.84
  40	1	6	0.134138	-13.6387	-42.5286	17.2966
  41	1	6	0.145229	-13.0827	-44.4467	13.4201
  42	1	5	-0.462312	-14.7281	-46.7432	12.841
  43	1	5	-0.483102	-17.0431	-46.5131	16.8405
  44	1	6	0.144532	-16.5693	-51.2356	13.1866
  45	1	6	0.226042	-18.7892	-46.9295	14.3496
  46	1	3	0.12103	-18.6502	-52.1432	11.8923
  47	1	3	-0.09864	-17.9837	-51.8358	10.6931
  48	1	3	-0.194398	-17.3656	-52.8578	9.95117
  49	1	3	-0.091961	-17.4157	-54.1857	10.409
  50	1	3	-0.197799	-18.0909	-54.493	11.603
  51	1	3	-0.102777	-18.7115	-53.4707	12.3427
  52	1	6	0.132074	-16.9317	-54.9759	9.83961
  53	1	6	0.154044	-18.1269	-55.5196	11.9584
  54	1	6	0.145155	-17.9382	-50.8055	10.3516
  55	1	6	0.14558	-19.2227	-53.6961	13.274
  56	1	9	-0.24014	-19.1996	-51.1429	12.6601
  57	1	6	0.152938	-15.2313	-49.3685	14.0984
  58	1	6	0.151751	-16.8426	-52.6194	9.02826
  59	1	1	0.48116	-1.74943	-44.3354	10.0719
  60	1	2	0.034009	-2.51773	-45.2681	10.7793
  61	1	3	0.028921	-3.68428	-45.5504	9.91303
  62	1	2	0.071556	-2.27762	-44.0759	8.79782
  63	1	3	0.025276	-3.54491	-44.8487	8.7368
  64	1	5	-0.381907	-2.33655	-45.7249	11.8974
  65	1	5	-0.393799	-1.84884	-43.3349	7.92627
  66	1	3	-0.008998	-4.84092	-46.2739	10.2045
  67	1	3	-0.064503	-4.54922	-44.8648	7.76508
  68	1	3	-0.16756	-5.73542	-45.5789	8.04381
  69	1	3	-0.085161	-5.92024	-46.2596	9.28211
  70	1	6	0.158939	-4.92256	-46.7589	11.174
  71	1	6	0.163781	-4.43117	-44.2968	6.84479
  72	1	6	0.161401	-6.52024	-45.5508	7.29496
  73	1	7	-0.078003	-7.27132	-46.906	9.71947
  74	1	7	0.303704	-8.50037	-46.4983	8.82328
  75	1	8	-0.1084	-8.60843	-45.1561	8.69835
  76	1	8	-0.101508	-9.66891	-46.9144	9.36237
  77	1	8	-0.111714	-8.44096	-47.0176	7.57633
  78	1	7	0.380371	-7.0646	-48.4685	9.64785
  79	1	8	-0.124028	-6.53163	-48.8428	8.46269
  80	1	8	-0.119704	-8.20952	-49.1723	9.79407
  81	1	8	-0.115877	-6.21251	-48.9078	10.6016
  82	1	3	-0.024709	-7.57765	-46.3747	11.1526
  83	1	3	-0.076489	-7.28566	-45.0171	11.45
  84	1	3	-0.052344	-7.40112	-44.5656	12.7669
  85	1	3	-0.054202	-8.09151	-47.195	12.1979
  86	1	3	-0.149083	-8.22607	-46.7098	13.5169
  87	1	3	-0.063027	-7.8453	-45.3882	13.7771
  88	1	2	0.499526	-7.73033	-44.6436	15.0606
  89	1	1	-0.036881	-7.15652	-43.4172	14.7347
  90	1	2	0.443545	-6.97751	-43.2744	13.3636
  91	1	3	0.038197	-6.68454	-42.4734	15.692
  92	1	3	-0.408621	-5.95921	-42.914	16.8155
  93	1	3	0.252781	-5.46836	-41.9957	17.7555
  94	1	3	-0.169778	-6.87648	-41.0902	15.5041
  95	1	3	-0.113042	-6.38019	-40.1652	16.4391
  96	1	3	0.016958	-5.69815	-40.6226	17.5798
  97	1	6	0.167832	-8.56889	-47.3551	14.3231
  98	1	6	0.134138	-8.35952	-48.2297	12.0147
  99	1	6	0.145229	-6.89986	-44.337	10.6934
 100	1	5	-0.462312	-6.48904	-42.3371	12.7561
 101	1	5	-0.483102	-8.02483	-45.0755	16.1634
 102	1	6	0.144532	-6.54263	-39.0994	16.2934
 103	1	6	0.226042	-5.77837	-43.9716	16.9828
 104	1	3	0.12103	-6.12238	-38.7462	19.0634
 105	1	3	-0.09864	-5.63434	-37.4344	18.9661
 106	1	3	-0.194398	-6.32224	-36.3772	19.5772
 107	1	3	-0.091961	-7.48043	-36.6445	20.3166
 108	1	3	-0.197799	-7.94887	-37.9625	20.4347
 109	1	3	-0.102777	-7.29196	-39.0481	19.8049
 110	1	6	0.132074	-8.02001	-35.8296	20.7939
 111	1	6	0.154044	-8.86312	-38.14	20.9981
 112	1	6	0.145155	-4.71424	-37.25	18.4179
 113	1	6	0.14558	-7.02462	-39.7798	20.5576
 114	1	9	-0.24014	-5.31668	-39.7506	18.5723
 115	1	6	0.152938	-7.40889	-40.7258	14.6289
 116	1	6	0.151751	-5.95684	-35.3591	19.4888
 117	1	1	0.48116	-3.06515	-26.2331	18.2393
 118	1	2	0.034009	-2.40451	-27.2575	18.928
 119	1	3	0.028921	-2.63177	-28.4782	18.121
 120	1	2	0.071556	-3.61959	-26.6799	17.0324
 121	1	3	0.025276	-3.35744	-28.1434	16.9994
 122	1	5	-0.381907	-1.86439	-27.2224	20.0227
 123	1	5	-0.393799	-4.28212	-26.0539	16.2198
 124	1	3	-0.008998	-2.33673	-29.8036	18.4425
 125	1	3	-0.064503	-3.83254	-29.1311	16.1302
 126	1	3	-0.16756	-3.55904	-30.4813	16.4446
 127	1	3	-0.085161	-2.80424	-30.8437	17.5969
 128	1	6	0.158939	-1.81103	-29.9897	19.3715
 129	1	6	0.163781	-4.44302	-28.8601	15.2714
 130	1	6	0.161401	-3.97736	-31.2542	15.803
 131	1	7	-0.078003	-2.64071	-32.3429	17.9885
 132	1	7	0.303704	-1.36198	-32.6106	18.8739
 133	1	8	-0.1084	-0.269863	-32.0014	18.3589
 134	1	8	-0.101508	-1.06542	-33.9287	18.9425
 135	1	8	-0.111714	-1.4905	-32.1915	20.1526
 136	1	7	0.380371	-3.93399	-32.7209	18.8069
 137	1	8	-0.124028	-4.22487	-31.7962	19.7504
 138	1	8	-0.119704	-3.82495	-33.8988	19.4611
 139	1	8	-0.115877	-5.02119	-32.7961	18.0058
 140	1	3	-0.024709	-2.44621	-33.2131	16.7122
 141	1	3	-0.076489	-3.01021	-34.5114	16.5881
 142	1	3	-0.052344	-2.66582	-35.3016	15.4865
 143	1	3	-0.054202	-1.55845	-32.766	15.6932
 144	1	3	-0.149083	-1.23172	-33.5753	14.5856
 145	1	3	-0.063027	-1.79798	-34.8528	14.5162
 146	1	2	0.499526	-1.55574	-35.9677	13.562
 147	1	1	-0.036881	-2.28767	-37.0484	14.0468
 148	1	2	0.443545	-3.01106	-36.7162	15.188
 149	1	3	0.038197	-2.22943	-38.3617	13.4947
 150	1	3	-0.408621	-0.988157	-38.9228	13.1383
 151	1	3	0.252781	-0.917322	-40.2174	12.6033
 152	1	3	-0.169778	-3.39859	-39.1276	13.3146
 153	1	3	-0.113042	-3.32862	-40.4302	12.7869
 154	1	3	0.016958	-2.08556	-40.9827	12.4398
 155	1	6	0.167832	-0.523723	-33.2414	13.8292
 156	1	6	0.134138	-1.08244	-31.792	15.78
 157	1	6	0.145229	-3.65735	-34.9462	17.3408
 158	1	5	-0.462312	-3.73074	-37.4289	15.8671
 159	1	5	-0.483102	-0.800682	-35.9294	12.605
 160	1	6	0.144532	-4.2357	-41.0144	12.6524
 161	1	6	0.226042	-0.0692048	-38.3561	13.2535
 162	1	3	0.12103	-0.908506	-43.0385	11.8527
 163	1	3	-0.09864	-0.131726	-43.2346	13.0087
 164	1	3	-0.194398	1.00767	-44.0506	12.9602
 165	1	3	-0.091961	1.35835	-44.6771	11.7569
 166	1	3	-0.197799	0.559385	-44.5021	10.6149
 167	1	3	-0.102777	-0.599924	-43.6912	10.6395
 168	1	6	0.132074	2.23935	-45.3137	11.7134
 169	1	6	0.154044	0.84142	-45.0109	9.69457
 170	1	6	0.145155	-0.425577	-42.7653	13.9435
 171	1	6	0.14558	-0.510537	-42.9332	9.87049
 172	1	9	-0.24014	-2.04225	-42.2534	11.9063
 173	1	6	0.152938	-4.36793	-38.7199	13.5911
 174	1	6	0.151751	1.60815	-44.2064	13.8533
 175	1	1	0.48116	0.650636	-12.1331	8.00778
 176	1	2	0.034009	1.80962	-12.0041	8.78673
 177	1	3	0.028921	2.09288	-13.3621	9.30818
 178	1	2	0.071556	0.204164	-13.4622	7.95019
 179	1	3	0.025276	1.1497	-14.2282	8.79986
 180	1	5	-0.381907	2.3997	-10.9835	9.10513
 181	1	5	-0.393799	-0.819385	-13.9128	7.45962
 182	1	3	-0.008998	3.03184	-13.7673	10.2631
 183	1	3	-0.064503	1.11876	-15.5697	9.18413
 184	1	3	-0.16756	2.05678	-16.0016	10.1433
 185	1	3	-0.085161	2.99813	-15.1079	10.7306
 186	1	6	0.158939	3.72094	-13.025	10.6509
 187	1	6	0.163781	0.362948	-16.2407	8.78131
 188	1	6	0.161401	2.01762	-17.0397	10.4665
 189	1	7	-0.078003	3.91212	-15.6271	11.8812
 190	1	7	0.303704	5.05361	-16.4726	11.1987
 191	1	8	-0.1084	4.57441	-17.6042	10.6346
 192	1	8	-0.101508	6.03311	-16.8374	12.0562
 193	1	8	-0.111714	5.65075	-15.7812	10.2016
 194	1	7	0.380371	4.56202	-14.4824	12.7519
 195	1	8	-0.124028	5.51967	-13.7896	12.0959
 196	1	8	-0.119704	5.1383	-14.9755	13.8717
 197	1	8	-0.115877	3.64241	-13.5837	13.1719
 198	1	3	-0.024709	3.00976	-16.4463	12.8505
 199	1	3	-0.076489	3.37672	-17.7186	13.3665
 200	1	3	-0.052344	2.46727	-18.4049	14.183
 201	1	3	-0.054202	1.74898	-15.9015	13.2293
 202	1	3	-0.149083	0.849742	-16.6062	14.0506
 203	1	3	-0.063027	1.23742	-17.8682	14.5055
 204	1	2	0.499526	0.485065	-18.8677	15.3031
 205	1	1	-0.036881	1.31916	-19.9708	15.395
 206	1	2	0.443545	2.54448	-19.77	14.7755
 207	1	3	0.038197	0.885268	-21.1878	15.973
 208	1	3	-0.408621	1.26874	-21.5431	17.2778
 209	1	3	0.252781	0.652759	-22.633	17.9167
 210	1	3	-0.169778	-0.0611376	-21.9684	15.286
 211	1	3	-0.113042	-0.673774	-23.0604	15.9183
 212	1	3	0.016958	-0.337337	-23.3727	17.2445
 213	1	6	0.167832	-0.126315	-16.1976	14.3064
 214	1	6	0.134138	1.44386	-14.9267	12.8567
 215	1	6	0.145229	4.32249	-18.1959	13.1312
 216	1	5	-0.462312	3.47014	-20.5547	14.6684
 217	1	5	-0.483102	-0.658618	-18.7523	15.7108
 218	1	6	0.144532	-1.46626	-23.6106	15.4166
 219	1	6	0.226042	1.99237	-20.9462	17.8241
 220	1	3	0.12103	-2.44548	-23.91	18.2774
 221	1	3	-0.09864	-2.87679	-22.5649	18.2552
 222	1	3	-0.194398	-4.19512	-22.2357	18.5978
 223	1	3	-0.091961	-5.0948	-23.2546	18.9292
 224	1	3	-0.197799	-4.65383	-24.5859	18.968
 225	1	3	-0.102777	-3.29173	-24.9229	18.7741
 226	1	6	0.132074	-6.13653	-23.0165	19.133
 227	1	6	0.154044	-5.37982	-25.368	19.1832
 228	1	6	0.145155	-2.20075	-21.7684	17.9566
 229	1	6	0.14558	-2.91046	-25.0913	19.7741
 230	1	9	-0.24014	-1.14242	-24.2382	17.9458
 231	1	6	0.152938	-0.376761	-21.6852	14.2853
 232	1	6	0.151751	-4.52688	-21.2005	18.5625
 233	1	1	0.48116	2.5824	-1.38065	-5.96915
 234	1	2	0.034009	2.31161	-2.22474	-4.88028
 235	1	3	0.028921	3.35945	-3.27186	-4.92011
 236	1	2	0.071556	3.66113	-1.84877	-6.73473
 237	1	3	0.025276	4.14733	-3.05919	-6.0294
 238	1	5	-0.381907	1.4475	-2.1309	-4.02273
 239	1	5	-0.393799	4.18732	-1.336	-7.71054
 240	1	3	-0.008998	3.6661	-4.25942	-3.97829
 241	1	3	-0.064503	5.2663	-3.85237	-6.28543
 242	1	3	-0.16756	5.59262	-4.85803	-5.35344
 243	1	3	-0.085161	4.81481	-5.0684	-4.17833
 244	1	6	0.158939	3.05735	-4.34146	-3.08062
 245	1	6	0.163781	5.89097	-3.65718	-7.15449
 246	1	6	0.161401	6.49521	-5.42928	-5.54121
 247	1	7	-0.078003	5.27194	-6.02223	-3.03817
 248	1	7	0.303704	6.26958	-7.14769	-3.51083
 249	1	8	-0.1084	5.82097	-7.77557	-4.62151
 250	1	8	-0.101508	6.42134	-8.10694	-2.5687
 251	1	8	-0.111714	7.51129	-6.68502	-3.78069
 252	1	7	0.380371	5.99317	-5.09861	-1.97836
 253	1	8	-0.124028	6.88047	-4.26103	-2.56215
 254	1	8	-0.119704	6.687	-5.78695	-1.04325
 255	1	8	-0.115877	5.11238	-4.30835	-1.32228
 256	1	3	-0.024709	4.03445	-6.76832	-2.46284
 257	1	3	-0.076489	3.88623	-6.99896	-1.07267
 258	1	3	-0.052344	2.81422	-7.76836	-0.622831
 259	1	3	-0.054202	3.07117	-7.33833	-3.34435
 260	1	3	-0.149083	1.99687	-8.12304	-2.86661
 261	1	3	-0.063027	1.8981	-8.33078	-1.48496
 262	1	2	0.499526	0.963584	-9.16734	-0.675572
 263	1	1	-0.036881	1.40671	-9.04508	0.635714
 264	1	2	0.443545	2.49853	-8.2024	0.75553
 265	1	3	0.038197	0.890296	-9.76111	1.74129
 266	1	3	-0.408621	0.137706	-9.09497	2.7226
 267	1	3	0.252781	-0.233154	-9.76702	3.89731
 268	1	3	-0.169778	1.24741	-11.1078	1.9307
 269	1	3	-0.113042	0.868366	-11.7841	3.10242
 270	1	3	0.016958	0.133775	-11.1133	4.09155
 271	1	6	0.167832	1.28299	-8.58199	-3.54854
 272	1	6	0.134138	3.175	-7.20073	-4.41818
 273	1	6	0.145229	4.59125	-6.63841	-0.33309
 274	1	5	-0.462312	3.12471	-7.91159	1.76042
 275	1	5	-0.483102	0.0530414	-9.85743	-1.10015
 276	1	6	0.144532	1.16743	-12.8168	3.26133
 277	1	6	0.226042	-0.113227	-8.04504	2.60893
 278	1	3	0.12103	-0.799223	-11.2066	6.32856
 279	1	3	-0.09864	-2.13914	-10.8066	6.18548
 280	1	3	-0.194398	-2.79794	-10.1619	7.24204
 281	1	3	-0.091961	-2.11078	-9.92238	8.43875
 282	1	3	-0.197799	-0.776994	-10.3379	8.57628
 283	1	3	-0.102777	-0.0885094	-10.9989	7.52983
 284	1	6	0.132074	-2.61294	-9.42237	9.26428
 285	1	6	0.154044	-0.265771	-10.1448	9.51912
 286	1	6	0.145155	-2.66041	-10.9975	5.25153
 287	1	6	0.14558	0.806256	-10.4383	7.27839
 288	1	9	-0.24014	-0.146969	-11.7817	5.26298
 289	1	6	0.152938	1.8496	-11.6206	1.18515
 290	1	6	0.151751	-3.83376	-9.84981	7.13346
 291	1	1	0.48116	2.20392	3.51927	-21.7805
 292	1	2	0.034009	1.28883	2.45515	-21.8101
 293	1	3	0.028921	0.251148	2.79965	-20.8042
 294	1	2	0.071556	1.83956	4.50168	-20.8521
 295	1	3	0.025276	0.587693	4.00822	-20.2322
 296	1	5	-0.381907	1.31472	1.44048	-22.4895
 297	1	5	-0.393799	2.39682	5.55679	-20.5881
 298	1	3	-0.008998	-0.899236	2.09783	-20.421
 299	1	3	-0.064503	-0.197721	4.58418	-19.2341
 300	1	3	-0.16756	-1.34908	3.88764	-18.8204
 301	1	3	-0.085161	-1.72223	2.63978	-19.3958
 302	1	6	0.158939	-1.11709	1.15817	-20.9177
 303	1	6	0.163781	0.0816741	5.53855	-18.793
 304	1	6	0.161401	-1.95833	4.33011	-18.0354
 305	1	7	-0.078003	-3.00695	1.93762	-18.8643
 306	1	7	0.303704	-4.23849	2.75325	-19.4225
 307	1	8	-0.1084	-4.14427	2.93525	-20.7591
 308	1	8	-0.101508	-4.32233	3.98966	-18.8816
 309	1	8	-0.111714	-5.42746	2.14864	-19.1999
 310	1	7	0.380371	-3.15074	0.42899	-19.307
 311	1	8	-0.124028	-4.14945	-0.192965	-18.6384
 312	1	8	-0.119704	-2.03318	-0.286621	-19.0471
 313	1	8	-0.115877	-3.41285	0.284556	-20.6252
 314	1	3	-0.024709	-2.90617	1.92407	-17.3128
 315	1	3	-0.076489	-1.68313	1.51217	-16.7211
 316	1	3	-0.052344	-1.58649	1.44157	-15.3282
 317	1	3	-0.054202	-3.99489	2.25544	-16.4558
 318	1	3	-0.149083	-3.87374	2.18751	-15.0529
 319	1	3	-0.063027	-2.65044	1.77237	-14.5172
 320	1	2	0.499526	-2.24863	1.53147	-13.108
 321	1	1	-0.036881	-0.952076	1.0397	-13.1674
 322	1	2	0.443545	-0.468593	0.970264	-14.4668
 323	1	3	0.038197	-0.264853	0.569267	-12.02
 324	1	3	-0.408621	0.0493107	1.45435	-10.9746
 325	1	3	0.252781	0.552995	0.959501	-9.76205
 326	1	3	-0.169778	-0.0114441	-0.806015	-11.8643
 327	1	3	-0.113042	0.491839	-1.30327	-10.6489
 328	1	3	0.016958	0.739326	-0.425113	-9.58264
 329	1	6	0.167832	-4.71279	2.42266	-14.4006
 330	1	6	0.134138	-4.95604	2.55558	-16.8582
 331	1	6	0.145229	-0.826262	1.22703	-17.3271
 332	1	5	-0.462312	0.613021	0.558684	-14.8491
 333	1	5	-0.483102	-2.95116	1.69075	-12.1241
 334	1	6	0.144532	0.645984	-2.37017	-10.5145
 335	1	6	0.226042	-0.161242	2.51536	-11.0654
 336	1	3	0.12103	0.838165	-0.319349	-7.16249
 337	1	3	-0.09864	-0.456703	0.173744	-6.91571
 338	1	3	-0.194398	-0.730609	0.879375	-5.73606
 339	1	3	-0.091961	0.295924	1.09707	-4.80945
 340	1	3	-0.197799	1.58264	0.595141	-5.05912
 341	1	3	-0.102777	1.87871	-0.153402	-6.22537
 342	1	6	0.132074	0.0912929	1.63713	-3.88761
 343	1	6	0.154044	2.35181	0.741545	-4.30245
 344	1	6	0.145155	-1.24625	0.0113543	-7.64465
 345	1	6	0.14558	2.71318	0.320686	-6.72978
 346	1	9	-0.24014	1.11251	-0.944895	-8.3604
 347	1	6	0.152938	-0.248361	-1.49718	-12.6694
 348	1	6	0.151751	-1.73194	1.25713	-5.54226
 349	1	1	0.48116	1.90054	15.8899	-24.0084
 350	1	2	0.034009	0.831609	15.0036	-24.2214
 351	1	3	0.028921	0.225324	15.4193	-25.5123
 352	1	2	0.071556	1.95423	16.8856	-24.9953
 353	1	3	0.025276	0.895133	16.5308	-25.9711
 354	1	5	-0.381907	0.54421	13.9847	-23.6138
 355	1	5	-0.393799	2.81275	17.7382	-25.1631
 356	1	3	-0.008998	-0.733027	14.7637	-26.2953
 357	1	3	-0.064503	0.640339	17.0552	-27.2396
 358	1	3	-0.16756	-0.299448	16.3928	-28.056
 359	1	3	-0.085161	-0.980916	15.2202	-27.6202
 360	1	6	0.158939	-1.21964	13.8846	-25.8829
 361	1	6	0.163781	1.19279	17.9216	-27.5974
 362	1	6	0.161401	-0.475731	16.8027	-29.0448
 363	1	7	-0.078003	-1.98289	14.4724	-28.5576
 364	1	7	0.303704	-1.4789	14.4121	-30.0558
 365	1	8	-0.1084	-0.171567	14.0763	-30.133
 366	1	8	-0.101508	-1.61495	15.5727	-30.7347
 367	1	8	-0.111714	-2.15871	13.4843	-30.7682
 368	1	7	0.380371	-3.33769	15.2762	-28.4981
 369	1	8	-0.124028	-3.17493	16.5892	-28.7794
 370	1	8	-0.119704	-4.25924	14.8135	-29.3737
 371	1	8	-0.115877	-3.87972	15.2327	-27.2599
 372	1	3	-0.024709	-2.12117	12.9835	-28.0959
 373	1	3	-0.076489	-0.943072	12.2043	-27.9381
 374	1	3	-0.052344	-1.04603	10.8806	-27.4936
 375	1	3	-0.054202	-3.3743	12.3534	-27.8312
 376	1	3	-0.149083	-3.45646	11.0162	-27.3899
 377	1	3	-0.063027	-2.26695	10.3014	-27.2217
 378	1	2	0.499526	-2.02686	8.92569	-26.7055
 379	1	1	-0.036881	-0.647862	8.77912	-26.6756
 380	1	2	0.443545	0.0178619	9.89613	-27.1604
 381	1	3	0.038197	0.00985054	7.6563	-26.1144
 382	1	3	-0.408621	0.288163	7.63379	-24.7365
 383	1	3	0.252781	0.954213	6.53747	-24.1666
 384	1	3	-0.169778	0.391013	6.56767	-26.9192
 385	1	3	-0.113042	1.04966	5.46303	-26.3497
 386	1	3	0.016958	1.34093	5.45437	-24.9766
 387	1	6	0.167832	-4.4162	10.5539	-27.1649
 388	1	6	0.134138	-4.31167	12.8849	-27.9453
 389	1	6	0.145229	0.0436501	12.6266	-28.1136
 390	1	5	-0.462312	1.21992	10.0705	-27.2605
 391	1	5	-0.483102	-2.87711	8.12688	-26.3525
 392	1	6	0.144532	1.34881	4.62145	-26.9689
 393	1	6	0.226042	-0.00451644	8.46332	-24.1004
 394	1	3	0.12103	3.15998	4.52369	-23.6835
 395	1	3	-0.09864	4.12338	5.4849	-24.0416
 396	1	3	-0.194398	5.31189	5.59759	-23.3076
 397	1	3	-0.091961	5.53534	4.74287	-22.2207
 398	1	3	-0.197799	4.5743	3.77785	-21.8773
 399	1	3	-0.102777	3.36948	3.63554	-22.6085
 400	1	6	0.132074	6.4494	4.83388	-21.6381
 401	1	6	0.154044	4.76201	3.13864	-21.0164
 402	1	6	0.145155	3.95054	6.13864	-24.8924
 403	1	6	0.14558	3.33119	2.62662	-23.0017
 404	1	9	-0.24014	2.0163	4.38369	-24.4392
 405	1	6	0.152938	0.179791	6.57835	-27.9853
 406	1	6	0.151751	6.05416	6.34398	-23.5798
 407	1	1	0.48116	-11.3545	22.8263	-21.9969
 408	1	2	0.034009	-10.602	23.4745	-21.0083
 409	1	3	0.028921	-9.1868	23.2972	-21.4101
 410	1	2	0.071556	-10.5406	22.1852	-22.9429
 411	1	3	0.025276	-9.14853	22.5203	-22.5475
 412	1	5	-0.381907	-10.992	24.1671	-20.0809
 413	1	5	-0.393799	-10.8689	21.6276	-23.9793
 414	1	3	-0.008998	-8.04879	23.9465	-20.9205
 415	1	3	-0.064503	-7.95235	22.309	-23.2362
 416	1	3	-0.16756	-6.794	22.9633	-22.7674
 417	1	3	-0.085161	-6.82152	23.8101	-21.6222
 418	1	6	0.158939	-8.16978	24.6206	-20.0799
 419	1	6	0.163781	-7.94317	21.7239	-24.1531
 420	1	6	0.161401	-5.88546	22.868	-23.3567
 421	1	7	-0.078003	-5.5978	24.7216	-21.3101
 422	1	7	0.303704	-5.82435	26.029	-22.1671
 423	1	8	-0.1084	-5.76558	25.7727	-23.4942
 424	1	8	-0.101508	-4.92512	27.0021	-21.8957
 425	1	8	-0.111714	-7.04534	26.5734	-21.9583
 426	1	7	0.380371	-5.47695	25.1226	-19.7874
 427	1	8	-0.124028	-4.25892	25.6432	-19.5119
 428	1	8	-0.119704	-5.63538	24.0555	-18.9735
 429	1	8	-0.115877	-6.37782	26.0492	-19.3901
 430	1	3	-0.024709	-4.28389	23.9599	-21.6707
 431	1	3	-0.076489	-4.06555	22.6649	-21.1277
 432	1	3	-0.052344	-2.87482	21.9871	-21.4283
 433	1	3	-0.054202	-3.26705	24.5176	-22.5009
 434	1	3	-0.149083	-2.08538	23.8133	-22.8027
 435	1	3	-0.063027	-1.9172	22.5422	-22.2492
 436	1	2	0.499526	-0.789563	21.5827	-22.3755
 437	1	1	-0.036881	-1.14258	20.4853	-21.6011
 438	1	2	0.443545	-2.38126	20.6528	-20.988
 439	1	3	0.038197	-0.328197	19.3268	-21.455
 440	1	3	-0.408621	1.04211	19.4494	-21.1527
 441	1	3	0.252781	1.83976	18.3054	-20.9872
 442	1	3	-0.169778	-0.885366	18.042	-21.6065
 443	1	3	-0.113042	-0.089224	16.8957	-21.4509
 444	1	3	0.016958	1.27335	17.0299	-21.151
 445	1	6	0.167832	-1.31629	24.2461	-23.4398
 446	1	6	0.134138	-3.36529	25.5073	-22.9303
 447	1	6	0.145229	-4.80247	22.1893	-20.484
 448	1	5	-0.462312	-2.95284	19.8924	-20.2253
 449	1	5	-0.483102	0.225143	21.7553	-23.0294
 450	1	6	0.144532	-0.526565	15.9032	-21.5346
 451	1	6	0.226042	1.50029	20.4289	-21.0458
 452	1	3	0.12103	2.6402	15.1233	-21.8522
 453	1	3	-0.09864	3.05736	13.8518	-21.4261
 454	1	3	-0.194398	3.87831	13.0619	-22.2416
 455	1	3	-0.091961	4.34819	13.5855	-23.4512
 456	1	3	-0.197799	3.95757	14.872	-23.8531
 457	1	3	-0.102777	3.00555	15.6281	-23.1253
 458	1	6	0.132074	5.02424	13.0015	-24.0715
 459	1	6	0.154044	4.34682	15.2627	-24.7929
 460	1	6	0.145155	2.75974	13.4935	-20.4438
 461	1	6	0.14558	3.30642	16.6655	-23.0292
 462	1	9	-0.24014	2.0141	15.9022	-20.9033
 463	1	6	0.152938	-1.94529	17.9278	-21.8203
 464	1	6	0.151751	4.18682	12.0728	-21.9123
 465	1	1	0.48116	-4.24418	16.6378	-9.36971
 466	1	2	0.034009	-4.63316	17.1805	-10.6072
 467	1	3	0.028921	-4.63022	16.0454	-11.5681
 468	1	2	0.071556	-3.88752	15.2888	-9.49403
 469	1	3	0.025276	-4.17803	14.9308	-10.8997
 470	1	5	-0.381907	-5.0799	18.292	-10.8345
 471	1	5	-0.393799	-3.57677	14.4886	-8.6295
 472	1	3	-0.008998	-5.11167	15.9647	-12.8848
 473	1	3	-0.064503	-4.16882	13.675	-11.5011
 474	1	3	-0.16756	-4.65027	13.5692	-12.819
 475	1	3	-0.085161	-5.13857	14.6998	-13.5354
 476	1	6	0.158939	-5.47346	16.8644	-13.3769
 477	1	6	0.163781	-3.81877	12.8078	-10.9461
 478	1	6	0.161401	-4.6366	12.584	-13.2641
 479	1	7	-0.078003	-5.60259	14.5955	-15.0225
 480	1	7	0.303704	-4.36794	15.0576	-15.8833
 481	1	8	-0.1084	-4.50372	14.7936	-17.2024
 482	1	8	-0.101508	-3.23246	14.4379	-15.4881
 483	1	8	-0.111714	-4.15704	16.3869	-15.7561
 484	1	7	0.380371	-6.01817	13.1346	-15.4588
 485	1	8	-0.124028	-4.97323	12.2948	-15.6171
 486	1	8	-0.119704	-6.67566	13.132	-16.641
 487	1	8	-0.115877	-6.85448	12.5591	-14.5643
 488	1	3	-0.024709	-6.87446	15.467	-15.2495
 489	1	3	-0.076489	-7.0524	16.2748	-16.4064
 490	1	3	-0.052344	-8.27889	16.92	-16.6088
 491	1	3	-0.054202	-7.96184	15.3529	-14.3392
 492	1	3	-0.149083	-9.19351	16.0037	-14.5648
 493	1	3	-0.063027	-9.32365	16.7854	-15.7194
 494	1	2	0.499526	-10.4848	17.5529	-16.2515
 495	1	1	-0.036881	-10.0513	18.1108	-17.4477
 496	1	2	0.443545	-8.73585	17.7754	-17.739
 497	1	3	0.038197	-10.8733	18.9024	-18.2955
 498	1	3	-0.408621	-11.527	18.3118	-19.3899
 499	1	3	0.252781	-12.3722	19.0805	-20.2063
 500	1	3	-0.169778	-11.0585	20.2756	-18.0426
 501	1	3	-0.113042	-11.8972	21.0522	-18.867
 502	1	3	0.016958	-12.5601	20.4506	-19.9535
 503	1	6	0.167832	-10.0286	15.8867	-13.8765
 504	1	6	0.134138	-7.86311	14.7216	-13.4607
 505	1	6	0.145229	-6.2863	16.3916	-17.1651
 506	1	5	-0.462312	-8.08541	18.0792	-18.7239
 507	1	5	-0.483102	-11.5891	17.6305	-15.7413
 508	1	6	0.144532	-12.0476	22.1063	-18.6457
 509	1	6	0.226042	-11.3977	17.2561	-19.6066
 510	1	3	0.12103	-13.4549	22.4966	-20.9844
 511	1	3	-0.09864	-14.3326	23.3054	-20.2425
 512	1	3	-0.194398	-14.5463	24.6413	-20.6161
 513	1	3	-0.091961	-13.9283	25.1424	-21.7692
 514	1	3	-0.197799	-13.0798	24.3157	-22.5228
 515	1	3	-0.102777	-12.7747	22.9938	-22.1154
 516	1	6	0.132074	-14.1118	26.1676	-22.0844
 517	1	6	0.154044	-12.6154	24.7227	-23.4199
 518	1	6	0.145155	-14.8664	22.8834	-19.3961
 519	1	6	0.14558	-12.9074	22.3026	-22.9395
 520	1	9	-0.24014	-13.4462	21.1397	-20.7553
 521	1	6	0.152938	-10.5635	20.741	-17.1943
 522	1	6	0.151751	-15.2161	25.2733	-20.0382
 523	1	1	0.48116	1.01917	29.3185	-8.69791
 524	1	2	0.034009	0.405417	28.5591	-7.69792
 525	1	3	0.028921	-0.92955	29.163	-7.51585
 526	1	2	0.071556	0.191868	30.3423	-9.17635
 527	1	3	0.025276	-1.06005	30.227	-8.37948
 528	1	5	-0.381907	0.868406	27.6371	-7.04372
 529	1	5	-0.393799	0.433522	31.1931	-10.0185
 530	1	3	-0.008998	-1.91962	28.8219	-6.59629
 531	1	3	-0.064503	-2.2087	31.0222	-8.35986
 532	1	3	-0.16756	-3.21024	30.7194	-7.4092
 533	1	3	-0.085161	-3.08876	29.6218	-6.50566
 534	1	6	0.158939	-1.72921	27.9658	-5.95993
 535	1	6	0.163781	-2.30243	31.869	-9.03659
 536	1	6	0.161401	-4.07612	31.3728	-7.37219
 537	1	7	-0.078003	-4.16656	29.3491	-5.41053
 538	1	7	0.303704	-4.15944	30.5584	-4.38671
 539	1	8	-0.1084	-4.84806	30.2554	-3.26368
 540	1	8	-0.101508	-4.68303	31.7079	-4.86507
 541	1	8	-0.111714	-2.90762	30.9114	-4.01907
 542	1	7	0.380371	-5.60061	29.2527	-6.08679
 543	1	8	-0.124028	-6.11108	30.4201	-6.53496
 544	1	8	-0.119704	-6.52278	28.7597	-5.22914
 545	1	8	-0.115877	-5.58189	28.464	-7.18503
 546	1	3	-0.024709	-3.82484	28.004	-4.65238
 547	1	3	-0.076489	-4.39828	26.7584	-5.03773
 548	1	3	-0.052344	-3.97837	25.573	-4.42336
 549	1	3	-0.054202	-2.8244	27.9512	-3.62917
 550	1	3	-0.149083	-2.39811	26.7405	-3.0402
 551	1	3	-0.063027	-2.99405	25.5512	-3.46524
 552	1	2	0.499526	-2.64957	24.1278	-3.17795
 553	1	1	-0.036881	-3.45532	23.3732	-4.02468
 554	1	2	0.443545	-4.31809	24.1726	-4.76635
 555	1	3	0.038197	-3.25413	22.0012	-4.34378
 556	1	3	-0.408621	-1.59101	21.425	-4.6631
 557	1	3	0.252781	-1.32377	19.8267	-5.4877
 558	1	3	-0.169778	-4.6548	21.0145	-4.84864
 559	1	3	-0.113042	-4.38657	19.4138	-5.67298
 560	1	3	0.016958	-2.72609	18.859	-6.04953
 561	1	6	0.167832	-1.58719	26.7211	-2.31419
 562	1	6	0.134138	-2.29545	28.8402	-3.3147
 563	1	6	0.145229	-5.12658	26.6601	-5.83287
 564	1	5	-0.462312	-5.07395	23.8378	-5.66026
 565	1	5	-0.483102	-1.74339	23.7493	-2.4557
 566	1	6	0.144532	-5.2518	18.8481	-6.00443
 567	1	6	0.226042	-0.733381	22.0462	-4.41054
 568	1	3	0.12103	-3.64666	16.945	-7.07016
 569	1	3	-0.09864	-4.02313	16.1122	-6.00248
 570	1	3	-0.194398	-5.34477	15.6627	-5.89204
 571	1	3	-0.091961	-6.29976	16.132	-6.80221
 572	1	3	-0.197799	-5.90994	16.9759	-7.85597
 573	1	3	-0.102777	-4.54847	17.273	-8.11534
 574	1	6	0.132074	-7.34678	15.867	-6.67518
 575	1	6	0.154044	-6.67583	17.3587	-8.53101
 576	1	6	0.145155	-3.30429	15.8933	-5.21664
 577	1	6	0.14558	-4.40111	18.2954	-8.45316
 578	1	9	-0.24014	-2.55529	17.7432	-6.84028
 579	1	6	0.152938	-5.66604	21.395	-4.7211
 580	1	6	0.151751	-5.64227	15.0389	-5.05313
 581	1	1	0.48116	3.94897	11.8784	-14.9056
 582	1	2	0.034009	4.07527	12.8524	-15.9014
 583	1	3	0.028921	4.26459	14.1282	-15.1752
 584	1	2	0.071556	3.98971	12.4267	-13.6147
 585	1	3	0.025276	4.21415	13.8766	-13.8212
 586	1	5	-0.381907	4.06037	12.7165	-17.1152
 587	1	5	-0.393799	3.90058	11.8648	-12.5331
 588	1	3	-0.008998	4.56127	15.3952	-15.6809
 589	1	3	-0.064503	4.45098	14.8852	-12.8882
 590	1	3	-0.16756	4.78504	16.1644	-13.3743
 591	1	3	-0.085161	4.84893	16.4447	-14.7722
 592	1	6	0.158939	4.63722	15.5192	-16.7566
 593	1	6	0.163781	4.43321	14.6664	-11.8227
 594	1	6	0.161401	5.04236	16.9185	-12.6363
 595	1	7	-0.078003	5.37872	17.8092	-15.2915
 596	1	7	0.303704	6.87924	17.5666	-15.729
 597	1	8	-0.1084	7.01273	16.6547	-16.7183
 598	1	8	-0.101508	7.47197	18.6996	-16.1695
 599	1	8	-0.111714	7.62197	17.0685	-14.7134
 600	1	7	0.380371	4.55966	18.3461	-16.5387
 601	1	8	-0.124028	4.86944	17.7562	-17.7138
 602	1	8	-0.119704	4.76339	19.6704	-16.7241
 603	1	8	-0.115877	3.22861	18.165	-16.3942
 604	1	3	-0.024709	5.24117	18.8623	-14.1428
 605	1	3	-0.076489	3.9449	19.259	-13.709
 606	1	3	-0.052344	3.82027	20.2076	-12.6867
 607	1	3	-0.054202	6.36645	19.4301	-13.4734
 608	1	3	-0.149083	6.21963	20.3552	-12.4252
 609	1	3	-0.063027	4.92768	20.7289	-12.0569
 610	1	2	0.499526	4.48569	21.8015	-11.1382
 611	1	1	-0.036881	3.11698	21.9209	-11.3398
 612	1	2	0.443545	2.62072	20.9474	-12.2025
 613	1	3	0.038197	2.42704	23.1062	-10.972
 614	1	3	-0.408621	2.50867	23.6012	-9.65741
 615	1	3	0.252781	2.13466	24.9253	-9.37565
 616	1	3	-0.169778	1.86956	23.914	-11.9809
 617	1	3	-0.113042	1.47075	25.23	-11.6993
 618	1	3	0.016958	1.64682	25.7461	-10.4076
 619	1	6	0.167832	7.08551	20.8089	-11.9465
 620	1	6	0.134138	7.38311	19.1883	-13.754
 621	1	6	0.145229	3.04038	18.8677	-14.1627
 622	1	5	-0.462312	1.49135	20.8467	-12.6521
 623	1	5	-0.483102	5.22752	22.5394	-10.5109
 624	1	6	0.144532	1.10167	25.8742	-12.4929
 625	1	6	0.226042	2.96795	23.0075	-8.87136
 626	1	3	0.12103	2.47267	27.9963	-10.0741
 627	1	3	-0.09864	3.66927	27.8263	-10.799
 628	1	3	-0.194398	4.66665	28.8131	-10.7464
 629	1	3	-0.091961	4.4223	30.0019	-10.0446
 630	1	3	-0.197799	3.22535	30.1504	-9.32549
 631	1	3	-0.102777	2.34998	29.0527	-9.1471
 632	1	6	0.132074	5.14134	30.8175	-10.0855
 633	1	6	0.154044	3.01828	31.101	-8.83598
 634	1	6	0.145155	3.81054	26.9543	-11.4311
 635	1	6	0.14558	2.76641	28.595	-8.25611
 636	1	9	-0.24014	1.43929	27.085	-10.1888