pySIMM System Object

813 atoms
896 bonds
1537 angles
2398 dihedrals
280 impropers

9 atom types
11 bond types
19 angle types
8 dihedral types
4 improper types

-148.651291 148.651291 xlo xhi
-148.651291 148.651291 ylo yhi
-148.651291 148.651291 zlo zhi

Masses

   1	14.01	# n
   2	12.01	# c
   3	12.01	# ca
   4	1.008	# hn
   5	16.0	# o
   6	1.008	# ha
   7	12.01	# c3
   8	19.0	# f
   9	16.0	# os

Pair Coeffs

   1	0.17	3.249998523775958	# n
   2	0.086	3.3996695084235347	# c
   3	0.086	3.3996695084235347	# ca
   4	0.0157	1.069078461768407	# hn
   5	0.21	2.959921901149463	# o
   6	0.015	2.59964245953351	# ha
   7	0.1094	3.3996695084235347	# c3
   8	0.061	3.1181455134911875	# f
   9	0.17	3.0000123434657784	# os

Bond Coeffs

   1	427.6	1.3789	# c,n
   2	461.1	1.3984	# ca,ca
   3	356.9	1.3497	# c3,f
   4	345.9	1.4906	# c,ca
   5	345.8	1.086	# ca,ha
   6	384.2	1.4121	# ca,n
   7	637.7	1.2183	# c,o
   8	321.0	1.5156	# c3,ca
   9	300.9	1.5375	# c3,c3
  10	376.6	1.3696	# ca,os
  11	403.2	1.0129	# hn,n

Angle Coeffs

   1	62.86	111.51	# c3,c3,c3
   2	63.74	127.08	# c,n,c
   3	48.18	119.88	# ca,ca,ha
   4	68.72	122.6	# ca,c,o
   5	63.15	112.07	# c3,c3,ca
   6	70.89	107.36	# f,c3,f
   7	67.87	120.19	# ca,ca,n
   8	63.56	112.24	# ca,c3,ca
   9	63.82	123.71	# c,n,ca
  10	67.68	115.25	# ca,c,n
  11	69.58	119.2	# ca,ca,os
  12	48.33	117.55	# c,n,hn
  13	74.22	123.05	# n,c,o
  14	64.28	120.33	# c,ca,ca
  15	66.11	109.24	# c3,c3,f
  16	63.48	119.89	# ca,os,ca
  17	63.53	120.77	# c3,ca,ca
  18	66.62	120.02	# ca,ca,ca
  19	49.75	116.02	# ha,ca,n

Dihedral Coeffs

   1	1	0.0	2	0	# X,c3,ca,X
   2	1	0.9	2	180	# X,ca,os,X
   3	1	2.5	2	180	# X,c,n,X
   4	1	0.45	2	180	# X,ca,n,X
   5	2	2.5	2	180	2.0	1	0	# hn,n,c,o
   6	1	3.625	2	180	# X,ca,ca,X
   7	1	1.0	2	180	# X,c,ca,X
   8	1	0.15555555555555556	3	0	# X,c3,c3,X

Improper Coeffs

   1	10.5	-1	2	# c,X,X,o
   2	1.1	-1	2	# ca,ca,ca,c3
   3	1.1	-1	2	# n,X,X,hn
   4	1.1	-1	2	# ca,X,X,ha

Atoms

   1	1	1	0.48116	1.32099	-24.4637	-10.0516
   2	1	2	0.034009	0.743042	-23.9561	-8.8817
   3	1	3	0.028921	-0.717735	-24.0396	-9.1003
   4	1	2	0.071556	0.357171	-24.9215	-10.9629
   5	1	3	0.025276	-0.949839	-24.5865	-10.3428
   6	1	5	-0.381907	1.28434	-23.4078	-7.93412
   7	1	5	-0.393799	0.522143	-25.3979	-12.0757
   8	1	3	-0.008998	-1.74994	-23.5363	-8.30699
   9	1	3	-0.064503	-2.23808	-24.624	-10.8795
  10	1	3	-0.16756	-3.29363	-24.0958	-10.1067
  11	1	3	-0.085161	-3.07838	-23.5619	-8.80224
  12	1	6	0.158939	-1.49019	-23.0778	-7.35923
  13	1	6	0.163781	-2.40501	-24.9885	-11.8913
  14	1	6	0.161401	-4.27863	-24.0705	-10.5659
  15	1	7	-0.078003	-4.23547	-22.8957	-8.00102
  16	1	7	0.303704	-4.15072	-23.204	-6.45341
  17	1	8	-0.1084	-3.86939	-24.5041	-6.21421
  18	1	8	-0.101508	-5.32319	-22.9382	-5.83359
  19	1	8	-0.111714	-3.21101	-22.4877	-5.79769
  20	1	7	0.380371	-4.09904	-21.3403	-8.22507
  21	1	8	-0.124028	-2.86965	-20.8686	-7.91767
  22	1	8	-0.119704	-4.97811	-20.6267	-7.48606
  23	1	8	-0.115877	-4.28962	-21.0154	-9.52106
  24	1	3	-0.024709	-5.60169	-23.4675	-8.49523
  25	1	3	-0.076489	-6.66017	-22.6452	-8.96769
  26	1	3	-0.052344	-7.84298	-23.2448	-9.40857
  27	1	3	-0.054202	-5.81118	-24.8772	-8.47664
  28	1	3	-0.149083	-7.01745	-25.4605	-8.91702
  29	1	3	-0.063027	-8.02334	-24.609	-9.3844
  30	1	2	0.499526	-9.38217	-24.9051	-9.91315
  31	1	1	-0.036881	-9.94284	-23.6699	-10.2291
  32	1	2	0.443545	-9.07225	-22.6202	-9.95569
  33	1	3	0.038197	-11.2561	-23.4933	-10.7561
  34	1	3	-0.408621	-12.336	-24.2371	-10.2429
  35	1	3	0.252781	-13.6323	-24.0607	-10.7528
  36	1	3	-0.169778	-11.4997	-22.5634	-11.7877
  37	1	3	-0.113042	-12.7982	-22.371	-12.2894
  38	1	3	0.016958	-13.8661	-23.1166	-11.765
  39	1	6	0.167832	-7.16454	-26.5389	-8.90136
  40	1	6	0.134138	-5.01851	-25.537	-8.13399
  41	1	6	0.145229	-6.60343	-21.5634	-9.00941
  42	1	5	-0.462312	-9.24005	-21.4267	-10.1397
  43	1	5	-0.483102	-9.87035	-26.0157	-10.0376
  44	1	6	0.144532	-12.9802	-21.6465	-13.079
  45	1	6	0.226042	-12.1816	-24.972	-9.45804
  46	1	3	0.12103	-15.8468	-21.7553	-12.1303
  47	1	3	-0.09864	-15.4734	-20.7455	-11.221
  48	1	3	-0.194398	-16.2385	-19.5702	-11.1203
  49	1	3	-0.091961	-17.3801	-19.4028	-11.9216
  50	1	3	-0.197799	-17.758	-20.4114	-12.8235
  51	1	3	-0.102777	-16.992	-21.5862	-12.9245
  52	1	6	0.132074	-17.9732	-18.4949	-11.8403
  53	1	6	0.154044	-18.6444	-20.2855	-13.4401
  54	1	6	0.145155	-14.6003	-20.872	-10.5881
  55	1	6	0.14558	-17.282	-22.372	-13.6157
  56	1	9	-0.24014	-15.142	-22.9345	-12.244
  57	1	6	0.152938	-10.6831	-21.9766	-12.1997
  58	1	6	0.151751	-15.9487	-18.7928	-10.4177
  59	1	1	0.48116	-3.47045	-13.9098	-15.1013
  60	1	2	0.034009	-4.2708	-14.9974	-15.473
  61	1	3	0.028921	-5.36446	-15.0292	-14.4758
  62	1	2	0.071556	-4.04687	-13.1585	-14.0678
  63	1	3	0.025276	-5.24613	-13.9295	-13.6553
  64	1	5	-0.381907	-4.06883	-15.8415	-16.3321
  65	1	5	-0.393799	-3.60098	-12.1737	-13.4993
  66	1	3	-0.008998	-6.26103	-16.0617	-14.1935
  67	1	3	-0.064503	-6.0728	-13.7675	-12.542
  68	1	3	-0.16756	-6.9922	-14.7945	-12.2414
  69	1	3	-0.085161	-7.06509	-15.9827	-13.0257
  70	1	6	0.158939	-6.24065	-16.9535	-14.8147
  71	1	6	0.163781	-5.9548	-12.9033	-11.8919
  72	1	6	0.161401	-7.59479	-14.6696	-11.3483
  73	1	7	-0.078003	-7.88319	-17.2438	-12.6031
  74	1	7	0.303704	-8.49079	-17.1536	-11.1528
  75	1	8	-0.1084	-7.54015	-16.8873	-10.2279
  76	1	8	-0.101508	-9.0561	-18.319	-10.7679
  77	1	8	-0.111714	-9.44789	-16.2043	-11.0443
  78	1	7	0.380371	-9.05429	-17.3976	-13.6522
  79	1	8	-0.124028	-9.68835	-16.2206	-13.8564
  80	1	8	-0.119704	-10.0083	-18.2835	-13.2876
  81	1	8	-0.115877	-8.59841	-17.8013	-14.8594
  82	1	3	-0.024709	-6.89621	-18.4517	-12.5869
  83	1	3	-0.076489	-5.54435	-18.2463	-12.1961
  84	1	3	-0.052344	-4.64277	-19.3146	-12.254
  85	1	3	-0.054202	-7.29912	-19.7744	-12.9277
  86	1	3	-0.149083	-6.37921	-20.844	-12.9565
  87	1	3	-0.063027	-5.04405	-20.5764	-12.6337
  88	1	2	0.499526	-3.85098	-21.4657	-12.6176
  89	1	1	-0.036881	-2.78438	-20.6616	-12.2273
  90	1	2	0.443545	-3.18088	-19.3519	-11.9793
  91	1	3	0.038197	-1.4395	-21.1181	-12.1233
  92	1	3	-0.408621	-0.848043	-21.812	-13.194
  93	1	3	0.252781	0.47947	-22.2598	-13.1071
  94	1	3	-0.169778	-0.677139	-20.8702	-10.9647
  95	1	3	-0.113042	0.652919	-21.3217	-10.8705
  96	1	3	0.016958	1.23004	-22.0283	-11.9422
  97	1	6	0.167832	-6.69112	-21.8476	-13.2373
  98	1	6	0.134138	-8.3307	-19.9929	-13.1793
  99	1	6	0.145229	-5.18056	-17.2717	-11.879
 100	1	5	-0.462312	-2.49387	-18.4101	-11.6237
 101	1	5	-0.483102	-3.84333	-22.6538	-12.8972
 102	1	6	0.144532	1.22923	-21.1283	-9.96881
 103	1	6	0.226042	-1.41358	-22.0204	-14.0974
 104	1	3	0.12103	3.0912	-23.0748	-10.7483
 105	1	3	-0.09864	4.15226	-22.3733	-10.1546
 106	1	3	-0.194398	4.86649	-22.94	-9.08991
 107	1	3	-0.091961	4.54328	-24.231	-8.65374
 108	1	3	-0.197799	3.50618	-24.9441	-9.27711
 109	1	3	-0.102777	2.72823	-24.3732	-10.3145
 110	1	6	0.132074	5.09398	-24.6794	-7.82937
 111	1	6	0.154044	3.2668	-25.9402	-8.90882
 112	1	6	0.145155	4.42204	-21.3915	-10.5328
 113	1	6	0.14558	2.71908	-25.0422	-11.1673
 114	1	9	-0.24014	2.51521	-22.5247	-11.8739
 115	1	6	0.152938	-1.11516	-20.3185	-10.1358
 116	1	6	0.151751	5.67774	-22.3912	-8.61806
 117	1	1	0.48116	5.89226	-21.6449	-2.13259
 118	1	2	0.034009	6.21876	-20.2928	-1.95171
 119	1	3	0.028921	5.66364	-19.5894	-3.13603
 120	1	2	0.071556	5.16615	-21.8586	-3.31117
 121	1	3	0.025276	5.04008	-20.5225	-3.93736
 122	1	5	-0.381907	6.89906	-19.7892	-1.07072
 123	1	5	-0.393799	4.77882	-22.9082	-3.80119
 124	1	3	-0.008998	5.77111	-18.2452	-3.51577
 125	1	3	-0.064503	4.48728	-20.1715	-5.16823
 126	1	3	-0.16756	4.5927	-18.8278	-5.57451
 127	1	3	-0.085161	5.22183	-17.84	-4.76226
 128	1	6	0.158939	6.29439	-17.5622	-2.8555
 129	1	6	0.163781	4.01887	-20.9258	-5.79805
 130	1	6	0.161401	4.18695	-18.5579	-6.54675
 131	1	7	-0.078003	5.34309	-16.3868	-5.31202
 132	1	7	0.303704	5.6181	-15.2982	-4.2082
 133	1	8	-0.1084	4.75342	-15.4018	-3.17496
 134	1	8	-0.101508	5.47113	-14.0468	-4.70122
 135	1	8	-0.111714	6.86659	-15.3623	-3.69326
 136	1	7	0.380371	6.54926	-16.413	-6.33232
 137	1	8	-0.124028	7.65316	-16.9734	-5.78717
 138	1	8	-0.119704	6.91677	-15.1848	-6.76248
 139	1	8	-0.115877	6.26557	-17.1509	-7.43088
 140	1	3	-0.024709	3.97946	-16.0192	-5.96629
 141	1	3	-0.076489	3.88857	-15.4098	-7.24307
 142	1	3	-0.052344	2.63124	-15.2751	-7.83774
 143	1	3	-0.054202	2.76982	-16.3677	-5.29872
 144	1	3	-0.149083	1.51192	-16.2312	-5.92294
 145	1	3	-0.063027	1.47843	-15.7032	-7.21863
 146	1	2	0.499526	0.366442	-15.6198	-8.20653
 147	1	1	-0.036881	0.952027	-15.1853	-9.3953
 148	1	2	0.443545	2.29719	-14.8722	-9.22264
 149	1	3	0.038197	0.319908	-15.2406	-10.6749
 150	1	3	-0.408621	-1.0354	-14.8962	-10.8451
 151	1	3	0.252781	-1.65779	-15.056	-12.0959
 152	1	3	-0.169778	1.03944	-15.7254	-11.7876
 153	1	3	-0.113042	0.431077	-15.854	-13.0438
 154	1	3	0.016958	-0.91817	-15.5167	-13.1998
 155	1	6	0.167832	0.601034	-16.5809	-5.44081
 156	1	6	0.134138	2.81038	-16.8186	-4.3089
 157	1	6	0.145229	4.75894	-15.1083	-7.81577
 158	1	5	-0.462312	3.09788	-14.4598	-10.0448
 159	1	5	-0.483102	-0.780322	-15.9874	-8.01194
 160	1	6	0.144532	0.994373	-16.2448	-13.8856
 161	1	6	0.226042	-1.63192	-14.5596	-10.0026
 162	1	3	0.12103	-1.33943	-14.8839	-15.4835
 163	1	3	-0.09864	-0.40779	-15.2342	-16.4724
 164	1	3	-0.194398	-0.26027	-14.4306	-17.6122
 165	1	3	-0.091961	-1.07982	-13.3045	-17.7739
 166	1	3	-0.197799	-2.03253	-12.9804	-16.793
 167	1	3	-0.102777	-2.13648	-13.7235	-15.5941
 168	1	6	0.132074	-0.993468	-12.6962	-18.6715
 169	1	6	0.154044	-2.67489	-12.1155	-16.9497
 170	1	6	0.145155	0.179395	-16.1409	-16.3595
 171	1	6	0.14558	-1.79642	-13.0637	-14.8045
 172	1	9	-0.24014	-1.52392	-15.7282	-14.4126
 173	1	6	0.152938	2.07765	-16.0277	-11.685
 174	1	6	0.151751	0.45933	-14.6996	-18.3817
 175	1	1	0.48116	-1.78362	-10.6425	-1.38337
 176	1	2	0.034009	-1.51581	-11.4339	-0.257709
 177	1	3	0.028921	-0.0476351	-11.392	-0.0777608
 178	1	2	0.071556	-0.604818	-10.0931	-1.92131
 179	1	3	0.025276	0.492807	-10.5767	-1.0449
 180	1	5	-0.381907	-2.29889	-12.0711	0.429528
 181	1	5	-0.393799	-0.444367	-9.4298	-2.93379
 182	1	3	-0.008998	0.749544	-12.046	0.862121
 183	1	3	-0.064503	1.86791	-10.3282	-1.09311
 184	1	3	-0.16756	2.69123	-10.948	-0.127869
 185	1	3	-0.085161	2.15228	-11.8386	0.843449
 186	1	6	0.158939	0.273238	-12.6889	1.59771
 187	1	6	0.163781	2.28021	-9.66584	-1.85135
 188	1	6	0.161401	3.75287	-10.7205	-0.151266
 189	1	7	-0.078003	3.01457	-12.5421	1.9236
 190	1	7	0.303704	4.56436	-12.5973	1.58565
 191	1	8	-0.1084	4.81871	-12.9634	0.309728
 192	1	8	-0.101508	5.20126	-13.4965	2.37001
 193	1	8	-0.111714	5.20717	-11.4211	1.75691
 194	1	7	0.380371	2.83054	-11.7106	3.25612
 195	1	8	-0.124028	3.19115	-10.4159	3.10735
 196	1	8	-0.119704	3.55887	-12.2125	4.27947
 197	1	8	-0.115877	1.54223	-11.6602	3.66564
 198	1	3	-0.024709	2.50889	-14.0192	2.02225
 199	1	3	-0.076489	2.67091	-14.8826	0.903267
 200	1	3	-0.052344	2.33175	-16.2365	1.02242
 201	1	3	-0.054202	1.91155	-14.5631	3.19859
 202	1	3	-0.149083	1.52983	-15.9162	3.28095
 203	1	3	-0.063027	1.77903	-16.7387	2.1807
 204	1	2	0.499526	1.69323	-18.2163	2.05989
 205	1	1	-0.036881	2.27347	-18.5172	0.836074
 206	1	2	0.443545	2.62048	-17.3822	0.114387
 207	1	3	0.038197	2.68418	-19.8253	0.476264
 208	1	3	-0.408621	3.6586	-20.4724	1.25697
 209	1	3	0.252781	4.12301	-21.7454	0.900553
 210	1	3	-0.169778	2.16745	-20.468	-0.66272
 211	1	3	-0.113042	2.63778	-21.7422	-1.02813
 212	1	3	0.016958	3.6326	-22.3682	-0.259617
 213	1	6	0.167832	1.11438	-16.3309	4.1977
 214	1	6	0.134138	1.75995	-13.9667	4.08975
 215	1	6	0.145229	3.10894	-14.5388	-0.0286175
 216	1	5	-0.462312	3.17008	-17.3257	-0.973761
 217	1	5	-0.483102	1.33727	-18.986	2.93584
 218	1	6	0.144532	2.25969	-22.2348	-1.92105
 219	1	6	0.226042	4.06509	-19.9939	2.14318
 220	1	3	0.12103	5.47074	-23.7668	-1.08448
 221	1	3	-0.09864	5.85938	-25.0973	-1.31107
 222	1	3	-0.194398	7.16937	-25.4015	-1.70866
 223	1	3	-0.091961	8.10064	-24.368	-1.86256
 224	1	3	-0.197799	7.71092	-23.0391	-1.6399
 225	1	3	-0.102777	6.383	-22.698	-1.28861
 226	1	6	0.132074	9.12268	-24.594	-2.15923
 227	1	6	0.154044	8.45139	-22.2491	-1.76562
 228	1	6	0.145155	5.13145	-25.8931	-1.1813
 229	1	6	0.14558	6.40409	-22.0883	-0.393961
 230	1	9	-0.24014	4.1586	-23.5647	-0.690944
 231	1	6	0.152938	1.41538	-19.9741	-1.27242
 232	1	6	0.151751	7.46192	-26.4328	-1.88958
 233	1	1	0.48116	-16.2649	-4.88752	6.68087
 234	1	2	0.034009	-15.4279	-4.89166	5.55548
 235	1	3	0.028921	-14.183	-4.20107	5.98578
 236	1	2	0.071556	-15.6693	-4.2576	7.77891
 237	1	3	0.025276	-14.3263	-3.85069	7.31071
 238	1	5	-0.381907	-15.6058	-5.42873	4.47394
 239	1	5	-0.393799	-16.1101	-4.1132	8.90936
 240	1	3	-0.008998	-12.9963	-3.94456	5.28204
 241	1	3	-0.064503	-13.287	-3.25589	8.01914
 242	1	3	-0.16756	-12.0704	-3.03964	7.34618
 243	1	3	-0.085161	-11.884	-3.38982	5.97392
 244	1	6	0.158939	-12.9417	-4.19724	4.22662
 245	1	6	0.163781	-13.4171	-2.98448	9.06458
 246	1	6	0.161401	-11.2869	-2.57114	7.92601
 247	1	7	-0.078003	-10.5466	-3.07462	5.21678
 248	1	7	0.303704	-10.7686	-1.66858	4.54066
 249	1	8	-0.1084	-11.5519	-1.77676	3.44385
 250	1	8	-0.101508	-9.62528	-1.05543	4.16192
 251	1	8	-0.111714	-11.3819	-0.80124	5.37593
 252	1	7	0.380371	-9.3067	-3.0053	6.19439
 253	1	8	-0.124028	-9.29832	-1.90998	6.98721
 254	1	8	-0.119704	-8.12468	-2.97479	5.53831
 255	1	8	-0.115877	-9.26115	-4.09525	6.99444
 256	1	3	-0.024709	-10.1808	-4.17873	4.16662
 257	1	3	-0.076489	-9.30419	-3.89536	3.08036
 258	1	3	-0.052344	-8.83901	-4.94056	2.27031
 259	1	3	-0.054202	-10.5608	-5.53756	4.36591
 260	1	3	-0.149083	-10.1168	-6.57162	3.51261
 261	1	3	-0.063027	-9.23382	-6.244	2.47701
 262	1	2	0.499526	-8.44278	-7.1197	1.56542
 263	1	1	-0.036881	-7.57049	-6.27198	0.892571
 264	1	2	0.443545	-7.77941	-4.93819	1.22178
 265	1	3	0.038197	-6.48273	-6.73268	0.0959977
 266	1	3	-0.408621	-5.48351	-7.53019	0.684107
 267	1	3	0.252781	-4.39924	-7.99293	-0.0774495
 268	1	3	-0.169778	-6.37123	-6.39124	-1.26597
 269	1	3	-0.113042	-5.28847	-6.86354	-2.0353
 270	1	3	0.016958	-4.30556	-7.675	-1.44233
 271	1	6	0.167832	-10.3917	-7.60913	3.69388
 272	1	6	0.134138	-11.1698	-5.81534	5.22117
 273	1	6	0.145229	-8.89897	-2.90471	2.90823
 274	1	5	-0.462312	-7.15771	-3.96561	0.831166
 275	1	5	-0.483102	-8.48174	-8.33805	1.52832
 276	1	6	0.144532	-5.21007	-6.60448	-3.08768
 277	1	6	0.226042	-5.54659	-7.80668	1.73196
 278	1	3	0.12103	-3.3065	-9.41431	-2.7578
 279	1	3	-0.09864	-3.58399	-9.52521	-4.13013
 280	1	3	-0.194398	-3.79114	-10.7873	-4.7072
 281	1	3	-0.091961	-3.76426	-11.9274	-3.89455
 282	1	3	-0.197799	-3.44992	-11.8054	-2.53305
 283	1	3	-0.102777	-3.1014	-10.5605	-1.95624
 284	1	6	0.132074	-3.98842	-12.9052	-4.31574
 285	1	6	0.154044	-3.44538	-12.7037	-1.91606
 286	1	6	0.145155	-3.66404	-8.62664	-4.73454
 287	1	6	0.14558	-3.58618	-10.433	-0.995044
 288	1	9	-0.24014	-3.25785	-8.15799	-2.1959
 289	1	6	0.152938	-7.12518	-5.75983	-1.7292
 290	1	6	0.151751	-4.01933	-10.8765	-5.76625
 291	1	1	0.48116	-14.1391	7.65997	2.04528
 292	1	2	0.034009	-15.0272	7.00567	2.90828
 293	1	3	0.028921	-14.5523	7.32475	4.27671
 294	1	2	0.071556	-13.161	8.3797	2.74304
 295	1	3	0.025276	-13.4535	8.14863	4.18126
 296	1	5	-0.381907	-15.9632	6.27241	2.63041
 297	1	5	-0.393799	-12.2214	9.02091	2.29872
 298	1	3	-0.008998	-15.0001	6.84139	5.50831
 299	1	3	-0.064503	-12.7707	8.5758	5.32346
 300	1	3	-0.16756	-13.2104	8.10535	6.58039
 301	1	3	-0.085161	-14.3061	7.20204	6.6947
 302	1	6	0.158939	-15.8345	6.14538	5.52172
 303	1	6	0.163781	-11.9031	9.22529	5.23182
 304	1	6	0.161401	-12.6548	8.42841	7.45388
 305	1	7	-0.078003	-14.705	6.49527	8.0265
 306	1	7	0.303704	-13.6854	6.71816	9.21578
 307	1	8	-0.1084	-13.9764	5.92985	10.2748
 308	1	8	-0.101508	-13.6689	7.99201	9.66976
 309	1	8	-0.111714	-12.4106	6.41604	8.88295
 310	1	7	0.380371	-16.1127	7.06279	8.46598
 311	1	8	-0.124028	-16.0982	8.41182	8.55418
 312	1	8	-0.119704	-16.5208	6.59326	9.66668
 313	1	8	-0.115877	-17.0929	6.76635	7.58391
 314	1	3	-0.024709	-14.7009	4.9741	7.68518
 315	1	3	-0.076489	-15.8181	4.11363	7.87543
 316	1	3	-0.052344	-15.7609	2.80787	7.35963
 317	1	3	-0.054202	-13.5488	4.44526	7.03494
 318	1	3	-0.149083	-13.4984	3.12392	6.55902
 319	1	3	-0.063027	-14.6344	2.33118	6.72372
 320	1	2	0.499526	-14.9159	0.964085	6.22335
 321	1	1	-0.036881	-16.2393	0.701809	6.55349
 322	1	2	0.443545	-16.8119	1.75283	7.26834
 323	1	3	0.038197	-16.9139	-0.494455	6.16227
 324	1	3	-0.408621	-17.7446	-1.18758	7.06294
 325	1	3	0.252781	-18.3584	-2.39387	6.68531
 326	1	3	-0.169778	-16.7295	-1.02235	4.86724
 327	1	3	-0.113042	-17.319	-2.24129	4.49517
 328	1	3	0.016958	-18.1145	-2.94149	5.41211
 329	1	6	0.167832	-12.6253	2.74415	6.031
 330	1	6	0.134138	-12.69	5.08303	6.84438
 331	1	6	0.145229	-16.736	4.44188	8.35331
 332	1	5	-0.462312	-17.9502	1.84091	7.69556
 333	1	5	-0.483102	-14.1338	0.253249	5.61602
 334	1	6	0.144532	-17.1377	-2.66091	3.50819
 335	1	6	0.226042	-17.9243	-0.797618	8.06104
 336	1	3	0.12103	-18.411	-5.3871	5.65997
 337	1	3	-0.09864	-19.1788	-6.46212	5.18144
 338	1	3	-0.194398	-19.0655	-7.73716	5.75394
 339	1	3	-0.091961	-18.169	-7.94089	6.80846
 340	1	3	-0.197799	-17.4038	-6.86789	7.2887
 341	1	3	-0.102777	-17.5308	-5.56022	6.75933
 342	1	6	0.132074	-18.058	-8.93067	7.24672
 343	1	6	0.154044	-16.7059	-7.05319	8.10477
 344	1	6	0.145155	-19.8628	-6.29883	4.35345
 345	1	6	0.14558	-17.9345	-4.93945	7.55012
 346	1	9	-0.24014	-18.6224	-4.16746	5.03779
 347	1	6	0.152938	-16.1019	-0.502723	4.14682
 348	1	6	0.151751	-19.6587	-8.56481	5.37231
 349	1	1	0.48116	-7.87208	15.9762	9.60899
 350	1	2	0.034009	-8.96329	15.3002	9.04212
 351	1	3	0.028921	-10.1548	16.0492	9.49172
 352	1	2	0.071556	-8.27768	17.0607	10.3991
 353	1	3	0.025276	-9.75248	17.1079	10.2723
 354	1	5	-0.381907	-8.98019	14.3503	8.275
 355	1	5	-0.393799	-7.59493	17.8291	11.0585
 356	1	3	-0.008998	-11.497	15.8192	9.20191
 357	1	3	-0.064503	-10.6749	18.0249	10.7806
 358	1	3	-0.16756	-12.0406	17.8236	10.4859
 359	1	3	-0.085161	-12.4737	16.7201	9.69637
 360	1	6	0.158939	-11.761	14.9548	8.59748
 361	1	6	0.163781	-10.3368	18.8684	11.3791
 362	1	6	0.161401	-12.75	18.5389	10.8885
 363	1	7	-0.078003	-13.9627	16.4326	9.36852
 364	1	7	0.303704	-14.9203	17.6735	9.54362
 365	1	8	-0.1084	-14.4548	18.7715	8.90726
 366	1	8	-0.101508	-15.1159	18.0259	10.8338
 367	1	8	-0.111714	-16.1436	17.4261	9.02283
 368	1	7	0.380371	-14.4241	15.2879	10.3559
 369	1	8	-0.124028	-14.1972	15.6165	11.6476
 370	1	8	-0.119704	-15.7412	14.9977	10.2561
 371	1	8	-0.115877	-13.7457	14.135	10.1514
 372	1	3	-0.024709	-14.0198	16.0346	7.86476
 373	1	3	-0.076489	-14.6461	14.8459	7.41799
 374	1	3	-0.052344	-14.6332	14.5484	6.05559
 375	1	3	-0.054202	-13.3993	16.8726	6.89135
 376	1	3	-0.149083	-13.4084	16.5559	5.51526
 377	1	3	-0.063027	-14.0452	15.3733	5.122
 378	1	2	0.499526	-14.2152	14.7421	3.7812
 379	1	1	-0.036881	-14.8944	13.5511	4.01877
 380	1	2	0.443545	-15.1774	13.3626	5.36253
 381	1	3	0.038197	-15.2035	12.5686	3.04337
 382	1	3	-0.408621	-14.1992	12.0673	2.19917
 383	1	3	0.252781	-14.471	10.9847	1.35167
 384	1	3	-0.169778	-16.489	11.9941	3.00627
 385	1	3	-0.113042	-16.7563	10.8936	2.1763
 386	1	3	0.016958	-15.7405	10.3742	1.3629
 387	1	6	0.167832	-12.9305	17.2021	4.78052
 388	1	6	0.134138	-12.892	17.7816	7.20561
 389	1	6	0.145229	-15.1314	14.1415	8.08411
 390	1	5	-0.462312	-15.6872	12.3955	5.9022
 391	1	5	-0.483102	-13.8058	15.1805	2.71974
 392	1	6	0.144532	-17.7333	10.418	2.19299
 393	1	6	0.226042	-13.1952	12.4831	2.21603
 394	1	3	0.12103	-14.9853	8.57044	-0.0268462
 395	1	3	-0.09864	-14.8043	8.88212	-1.38294
 396	1	3	-0.194398	-13.7259	8.33194	-2.08847
 397	1	3	-0.091961	-12.8041	7.52449	-1.40861
 398	1	3	-0.197799	-13.0137	7.20753	-0.0554266
 399	1	3	-0.102777	-14.206	7.57967	0.613412
 400	1	6	0.132074	-11.9112	7.17173	-1.9206
 401	1	6	0.154044	-12.254	6.63014	0.469584
 402	1	6	0.145155	-15.4771	9.58517	-1.86718
 403	1	6	0.14558	-14.8279	6.69633	0.518202
 404	1	9	-0.24014	-15.9863	9.22167	0.650867
 405	1	6	0.152938	-17.2691	12.363	3.66799
 406	1	6	0.151751	-13.5664	8.5894	-3.13289
 407	1	1	0.48116	2.04158	20.8762	-2.88202
 408	1	2	0.034009	1.38996	21.4019	-1.7607
 409	1	3	0.028921	0.0334191	21.7618	-2.23013
 410	1	2	0.071556	1.23213	20.8842	-4.02188
 411	1	3	0.025276	-0.0622408	21.4597	-3.57141
 412	1	5	-0.381907	1.82574	21.5792	-0.633346
 413	1	5	-0.393799	1.51587	20.5503	-5.16129
 414	1	3	-0.008998	-1.00818	22.3771	-1.53086
 415	1	3	-0.064503	-1.22118	21.7554	-4.29165
 416	1	3	-0.16756	-2.28062	22.3929	-3.60996
 417	1	3	-0.085161	-2.19831	22.7166	-2.22286
 418	1	6	0.158939	-0.852012	22.6296	-0.487344
 419	1	6	0.163781	-1.28004	21.5314	-5.3549
 420	1	6	0.161401	-3.1527	22.6634	-4.19557
 421	1	7	-0.078003	-3.28969	23.5672	-1.50996
 422	1	7	0.303704	-2.92701	25.077	-1.80968
 423	1	8	-0.1084	-3.73258	25.9277	-1.13507
 424	1	8	-0.101508	-3.00518	25.4031	-3.11892
 425	1	8	-0.111714	-1.64657	25.3733	-1.49
 426	1	7	0.380371	-4.74601	23.2736	-2.08066
 427	1	8	-0.124028	-4.96198	21.9529	-2.27648
 428	1	8	-0.119704	-5.02436	23.8418	-3.27412
 429	1	8	-0.115877	-5.70686	23.7207	-1.24024
 430	1	3	-0.024709	-3.29468	23.2625	0.0392533
 431	1	3	-0.076489	-4.00107	22.137	0.548853
 432	1	3	-0.052344	-4.08026	21.9289	1.92978
 433	1	3	-0.054202	-2.62231	24.0834	1.00122
 434	1	3	-0.149083	-2.66927	23.8237	2.38805
 435	1	3	-0.063027	-3.42606	22.7374	2.83014
 436	1	2	0.499526	-3.67295	22.2074	4.20065
 437	1	1	-0.036881	-4.49145	21.0993	4.02363
 438	1	2	0.443545	-4.79928	20.8764	2.68912
 439	1	3	0.038197	-4.92434	20.2421	5.06809
 440	1	3	-0.408621	-6.29109	19.9654	5.23078
 441	1	3	0.252781	-6.7122	19.0636	6.21666
 442	1	3	-0.169778	-3.98656	19.5866	5.88671
 443	1	3	-0.113042	-4.40542	18.6505	6.85032
 444	1	3	0.016958	-5.78149	18.4105	7.04182
 445	1	6	0.167832	-2.14426	24.4574	3.10098
 446	1	6	0.134138	-2.04347	24.9478	0.707977
 447	1	6	0.145229	-4.51306	21.4262	-0.0877455
 448	1	5	-0.462312	-5.51001	20.0072	2.21499
 449	1	5	-0.483102	-3.20348	22.6398	5.23961
 450	1	6	0.144532	-3.65416	18.1147	7.41686
 451	1	6	0.226042	-7.03087	20.4147	4.57418
 452	1	3	0.12103	-5.74891	16.7738	8.96993
 453	1	3	-0.09864	-4.61185	17.1915	9.68932
 454	1	3	-0.194398	-4.10257	16.3944	10.7262
 455	1	3	-0.091961	-4.76276	15.2124	11.0809
 456	1	3	-0.197799	-5.95797	14.8669	10.4381
 457	1	3	-0.102777	-6.49311	15.6502	9.39029
 458	1	6	0.132074	-4.38035	14.59	11.8871
 459	1	6	0.154044	-6.49331	13.9817	10.776
 460	1	6	0.145155	-4.13786	18.1418	9.47467
 461	1	6	0.14558	-6.69703	15.0264	8.5291
 462	1	9	-0.24014	-6.30854	17.5024	7.93799
 463	1	6	0.152938	-2.92524	19.7832	5.75489
 464	1	6	0.151751	-3.21604	16.7049	11.2735
 465	1	1	0.48116	-5.91565	10.272	8.69217
 466	1	2	0.034009	-4.71484	9.77876	8.13335
 467	1	3	0.028921	-3.91059	10.9723	7.78515
 468	1	2	0.071556	-5.96839	11.6692	8.57379
 469	1	3	0.025276	-4.67787	12.0913	7.98997
 470	1	5	-0.381907	-4.37101	8.63939	7.85988
 471	1	5	-0.393799	-6.84086	12.431	8.94654
 472	1	3	-0.008998	-2.59929	11.0536	7.30925
 473	1	3	-0.064503	-4.20148	13.3645	7.67834
 474	1	3	-0.16756	-2.89371	13.4739	7.18105
 475	1	3	-0.085161	-2.07257	12.3298	6.97828
 476	1	6	0.158939	-2.04489	10.1309	7.18554
 477	1	6	0.163781	-4.82566	14.2408	7.79144
 478	1	6	0.161401	-2.53437	14.4629	6.90383
 479	1	7	-0.078003	-0.696636	12.5333	6.28716
 480	1	7	0.303704	0.271368	13.1787	7.35123
 481	1	8	-0.1084	0.275689	12.4671	8.50117
 482	1	8	-0.101508	-0.104508	14.435	7.6789
 483	1	8	-0.111714	1.55828	13.2499	6.94388
 484	1	7	0.380371	-0.0573382	11.2077	5.7419
 485	1	8	-0.124028	1.0385	11.4457	4.99302
 486	1	8	-0.119704	-0.926041	10.5679	4.93655
 487	1	8	-0.115877	0.313105	10.3419	6.71161
 488	1	3	-0.024709	-0.975441	13.4238	5.04385
 489	1	3	-0.076489	-0.0678759	14.414	4.59893
 490	1	3	-0.052344	-0.407912	15.1735	3.47512
 491	1	3	-0.054202	-2.17111	13.2171	4.29156
 492	1	3	-0.149083	-2.50711	14.0177	3.18555
 493	1	3	-0.063027	-1.59798	15.004	2.80284
 494	1	2	0.499526	-1.58325	15.8674	1.59611
 495	1	1	-0.036881	-0.311017	16.4324	1.56234
 496	1	2	0.443545	0.424978	16.1218	2.70512
 497	1	3	0.038197	0.278097	17.0155	0.401817
 498	1	3	-0.408621	-0.0129546	16.5011	-0.877363
 499	1	3	0.252781	0.716054	16.92	-1.99901
 500	1	3	-0.169778	1.29454	17.9817	0.523774
 501	1	3	-0.113042	2.06012	18.3632	-0.587112
 502	1	3	0.016958	1.76822	17.8373	-1.85907
 503	1	6	0.167832	-3.4192	13.8471	2.61611
 504	1	6	0.134138	-2.86207	12.424	4.56673
 505	1	6	0.145229	0.896396	14.5795	5.06828
 506	1	5	-0.462312	1.58108	16.4021	2.97219
 507	1	5	-0.483102	-2.47064	15.927	0.761432
 508	1	6	0.144532	2.89222	19.0384	-0.43094
 509	1	6	0.226042	-0.775146	15.7406	-1.01895
 510	1	3	0.12103	3.56349	19.0131	-3.07813
 511	1	3	-0.09864	4.81609	18.4943	-3.44057
 512	1	3	-0.194398	5.87482	19.3632	-3.74191
 513	1	3	-0.091961	5.63783	20.7447	-3.77527
 514	1	3	-0.197799	4.37259	21.2456	-3.42352
 515	1	3	-0.102777	3.38982	20.3992	-2.8592
 516	1	6	0.132074	6.4208	21.4218	-4.10938
 517	1	6	0.154044	4.1884	22.3156	-3.50351
 518	1	6	0.145155	4.94476	17.4191	-3.53248
 519	1	6	0.14558	3.63034	20.4976	-1.8097
 520	1	9	-0.24014	2.5161	18.1246	-2.98059
 521	1	6	0.152938	1.55168	18.3915	1.49755
 522	1	6	0.151751	6.843	18.9651	-4.03609
 523	1	1	0.48116	3.28355	-0.320176	17.1763
 524	1	2	0.034009	1.98929	-0.598355	17.6629
 525	1	3	0.028921	1.24352	-1.18412	16.5207
 526	1	2	0.071556	3.38279	-0.619663	15.8092
 527	1	3	0.025276	2.05085	-1.13816	15.413
 528	1	5	-0.381907	1.51851	-0.431734	18.7778
 529	1	5	-0.393799	4.3799	-0.636342	15.1046
 530	1	3	-0.008998	-0.0560491	-1.70344	16.4675
 531	1	3	-0.064503	1.57776	-1.54831	14.1701
 532	1	3	-0.16756	0.234963	-1.96541	14.0746
 533	1	3	-0.085161	-0.627052	-2.06391	15.2113
 534	1	6	0.158939	-0.613373	-1.72252	17.3948
 535	1	6	0.163781	2.21619	-1.48255	13.2918
 536	1	6	0.161401	-0.106489	-2.15978	13.071
 537	1	7	-0.078003	-2.18288	-2.26657	15.0585
 538	1	7	0.303704	-2.56182	-3.28003	13.8808
 539	1	8	-0.1084	-2.11326	-2.95458	12.6523
 540	1	8	-0.101508	-3.89612	-3.40175	13.6936
 541	1	8	-0.111714	-2.07949	-4.51877	14.1215
 542	1	7	0.380371	-2.85087	-2.88534	16.3744
 543	1	8	-0.124028	-2.90722	-2.05963	17.439
 544	1	8	-0.119704	-2.17609	-3.97765	16.7972
 545	1	8	-0.115877	-4.13985	-3.25763	16.2164
 546	1	3	-0.024709	-2.66653	-0.803752	14.8076
 547	1	3	-0.076489	-3.17402	-0.35402	13.5546
 548	1	3	-0.052344	-3.32006	1.0236	13.3382
 549	1	3	-0.054202	-2.39598	0.186472	15.8017
 550	1	3	-0.149083	-2.58604	1.55408	15.5814
 551	1	3	-0.063027	-3.0303	1.93932	14.326
 552	1	2	0.499526	-3.2721	3.29572	13.8136
 553	1	1	-0.036881	-3.73227	3.11729	12.5198
 554	1	2	0.443545	-3.75093	1.78425	12.1307
 555	1	3	0.038197	-4.24863	4.20702	11.788
 556	1	3	-0.408621	-3.71603	4.59602	10.5459
 557	1	3	0.252781	-4.11543	5.81821	9.97514
 558	1	3	-0.169778	-5.21222	5.00614	12.4253
 559	1	3	-0.113042	-5.58752	6.23094	11.8784
 560	1	3	0.016958	-5.03977	6.63259	10.6567
 561	1	6	0.167832	-2.35108	2.2955	16.3433
 562	1	6	0.134138	-1.97519	-0.0689683	16.7629
 563	1	6	0.145229	-3.41325	-1.02073	12.735
 564	1	5	-0.462312	-4.06291	1.31779	11.049
 565	1	5	-0.483102	-3.16993	4.32768	14.4565
 566	1	6	0.144532	-6.28512	6.87697	12.4033
 567	1	6	0.226042	-2.96472	3.98982	10.047
 568	1	3	0.12103	-6.67252	8.18038	9.7417
 569	1	3	-0.09864	-7.71158	7.22841	9.83243
 570	1	3	-0.194398	-9.04403	7.60731	9.64777
 571	1	3	-0.091961	-9.33283	8.92725	9.2988
 572	1	3	-0.197799	-8.28926	9.84739	9.11772
 573	1	3	-0.102777	-6.93347	9.53338	9.41946
 574	1	6	0.132074	-10.3652	9.2364	9.15161
 575	1	6	0.154044	-8.57755	10.8532	8.822
 576	1	6	0.145155	-7.49829	6.19581	10.0898
 577	1	6	0.14558	-6.70294	10.0692	10.3354
 578	1	9	-0.24014	-5.40268	7.85116	10.1587
 579	1	6	0.152938	-5.61315	4.71655	13.393
 580	1	6	0.151751	-9.84292	6.88134	9.77647
 581	1	1	0.48116	17.1499	7.99503	7.09973
 582	1	2	0.034009	15.936	7.52505	7.64921
 583	1	3	0.028921	16.029	7.75654	9.13033
 584	1	2	0.071556	17.9922	8.49813	8.09533
 585	1	3	0.025276	17.2476	8.3562	9.36262
 586	1	5	-0.381907	14.9543	7.09284	7.06766
 587	1	5	-0.393799	19.0954	9.00919	7.97458
 588	1	3	-0.008998	15.1597	7.4282	10.2008
 589	1	3	-0.064503	17.6477	8.72273	10.6387
 590	1	3	-0.16756	16.7735	8.459	11.7023
 591	1	3	-0.085161	15.5209	7.7861	11.5398
 592	1	6	0.158939	14.264	6.85478	9.98496
 593	1	6	0.163781	18.6284	9.16476	10.8035
 594	1	6	0.161401	17.1617	8.70507	12.6813
 595	1	7	-0.078003	14.7985	7.24688	12.8443
 596	1	7	0.303704	15.5989	5.90937	13.14
 597	1	8	-0.1084	16.9419	6.05387	13.0764
 598	1	8	-0.101508	15.3881	5.37048	14.3574
 599	1	8	-0.111714	15.2796	4.97149	12.2189
 600	1	7	0.380371	14.9494	8.29344	14.035
 601	1	8	-0.124028	14.7954	9.56065	13.586
 602	1	8	-0.119704	16.1391	8.22683	14.6743
 603	1	8	-0.115877	14.0354	8.15636	15.0203
 604	1	3	-0.024709	13.2577	6.90448	12.7625
 605	1	3	-0.076489	12.6624	6.11186	13.7917
 606	1	3	-0.052344	11.3027	5.79825	13.7689
 607	1	3	-0.054202	12.3703	7.42022	11.7733
 608	1	3	-0.149083	10.9916	7.07317	11.7504
 609	1	3	-0.063027	10.482	6.24066	12.7622
 610	1	2	0.499526	9.11155	5.69577	13.0299
 611	1	1	-0.036881	9.21275	4.9508	14.2047
 612	1	2	0.443545	10.4991	4.98675	14.7253
 613	1	3	0.038197	8.15145	4.1868	14.7832
 614	1	3	-0.408621	7.72037	2.99471	14.171
 615	1	3	0.252781	6.70808	2.20864	14.7557
 616	1	3	-0.169778	7.53637	4.58694	15.9865
 617	1	3	-0.113042	6.50182	3.8165	16.5595
 618	1	3	0.016958	6.10623	2.60048	15.9654
 619	1	6	0.167832	10.3285	7.45088	10.9738
 620	1	6	0.134138	12.7364	8.10801	11.0177
 621	1	6	0.145229	13.2102	5.76592	14.6576
 622	1	5	-0.462312	10.9133	4.45771	15.7426
 623	1	5	-0.483102	8.12345	5.86608	12.3375
 624	1	6	0.144532	6.02929	4.14383	17.482
 625	1	6	0.226042	8.16908	2.6636	13.2402
 626	1	3	0.12103	5.24845	1.09387	17.7321
 627	1	3	-0.09864	6.2975	1.41084	18.6246
 628	1	3	-0.194398	6.37245	0.807734	19.8861
 629	1	3	-0.091961	5.36729	-0.0788898	20.2779
 630	1	3	-0.197799	4.38162	-0.454661	19.356
 631	1	3	-0.102777	4.44416	-0.0545867	17.9938
 632	1	6	0.132074	5.35063	-0.477526	21.2899
 633	1	6	0.154044	3.62565	-1.15913	19.6971
 634	1	6	0.145155	7.04847	2.14805	18.3684
 635	1	6	0.14558	5.09375	-0.821397	17.5854
 636	1	9	-0.24014	5.1304	1.79106	16.5357
 637	1	6	0.152938	7.86324	5.4979	16.4817
 638	1	6	0.151751	7.16532	1.08075	20.5782
 639	1	1	0.48116	22.7088	5.18803	-9.89645