pySIMM System Object

2843 atoms
3136 bonds
5387 angles
8418 dihedrals
980 impropers

9 atom types
11 bond types
19 angle types
8 dihedral types
4 improper types

-229.756592 229.756592 xlo xhi
-229.756592 229.756592 ylo yhi
-229.756592 229.756592 zlo zhi

Masses

   1	14.01	# n
   2	12.01	# c
   3	12.01	# ca
   4	1.008	# hn
   5	16.0	# o
   6	1.008	# ha
   7	12.01	# c3
   8	19.0	# f
   9	16.0	# os

Pair Coeffs

   1	0.17	3.249998523775958	# n
   2	0.086	3.3996695084235347	# c
   3	0.086	3.3996695084235347	# ca
   4	0.0157	1.069078461768407	# hn
   5	0.21	2.959921901149463	# o
   6	0.015	2.59964245953351	# ha
   7	0.1094	3.3996695084235347	# c3
   8	0.061	3.1181455134911875	# f
   9	0.17	3.0000123434657784	# os

Bond Coeffs

   1	427.6	1.3789	# c,n
   2	461.1	1.3984	# ca,ca
   3	356.9	1.3497	# c3,f
   4	345.9	1.4906	# c,ca
   5	345.8	1.086	# ca,ha
   6	384.2	1.4121	# ca,n
   7	637.7	1.2183	# c,o
   8	321.0	1.5156	# c3,ca
   9	300.9	1.5375	# c3,c3
  10	376.6	1.3696	# ca,os
  11	403.2	1.0129	# hn,n

Angle Coeffs

   1	62.86	111.51	# c3,c3,c3
   2	63.74	127.08	# c,n,c
   3	48.18	119.88	# ca,ca,ha
   4	68.72	122.6	# ca,c,o
   5	63.15	112.07	# c3,c3,ca
   6	70.89	107.36	# f,c3,f
   7	67.87	120.19	# ca,ca,n
   8	63.56	112.24	# ca,c3,ca
   9	63.82	123.71	# c,n,ca
  10	67.68	115.25	# ca,c,n
  11	69.58	119.2	# ca,ca,os
  12	48.33	117.55	# c,n,hn
  13	74.22	123.05	# n,c,o
  14	64.28	120.33	# c,ca,ca
  15	66.11	109.24	# c3,c3,f
  16	63.48	119.89	# ca,os,ca
  17	63.53	120.77	# c3,ca,ca
  18	66.62	120.02	# ca,ca,ca
  19	49.75	116.02	# ha,ca,n

Dihedral Coeffs

   1	1	0.0	2	0	# X,c3,ca,X
   2	1	0.9	2	180	# X,ca,os,X
   3	1	2.5	2	180	# X,c,n,X
   4	1	0.45	2	180	# X,ca,n,X
   5	2	2.5	2	180	2.0	1	0	# hn,n,c,o
   6	1	3.625	2	180	# X,ca,ca,X
   7	1	1.0	2	180	# X,c,ca,X
   8	1	0.15555555555555556	3	0	# X,c3,c3,X

Improper Coeffs

   1	10.5	-1	2	# c,X,X,o
   2	1.1	-1	2	# ca,ca,ca,c3
   3	1.1	-1	2	# n,X,X,hn
   4	1.1	-1	2	# ca,X,X,ha

Atoms

   1	1	1	0.48116	-15.7364	42.0517	-9.07938
   2	1	2	0.034009	-14.777	42.9135	-9.62636
   3	1	3	0.028921	-15.5457	43.9374	-10.3763
   4	1	2	0.071556	-17.0439	42.47	-9.36685
   5	1	3	0.025276	-16.8888	43.6613	-10.2387
   6	1	5	-0.381907	-13.5614	42.8022	-9.61912
   7	1	5	-0.393799	-18.1011	41.9395	-9.06157
   8	1	3	-0.008998	-15.0844	44.9678	-11.203
   9	1	3	-0.064503	-17.8484	44.38	-10.9531
  10	1	3	-0.16756	-17.4052	45.4136	-11.8033
  11	1	3	-0.085161	-16.0255	45.7464	-11.928
  12	1	6	0.158939	-14.0134	45.1097	-11.3
  13	1	6	0.163781	-18.9009	44.1086	-10.8923
  14	1	6	0.161401	-18.157	45.931	-12.3944
  15	1	7	-0.078003	-15.5717	46.8458	-12.9344
  16	1	7	0.303704	-14.2825	47.6231	-12.4561
  17	1	8	-0.1084	-14.3564	47.9662	-11.1509
  18	1	8	-0.101508	-14.1148	48.7715	-13.1507
  19	1	8	-0.111714	-13.1343	46.925	-12.6018
  20	1	7	0.380371	-15.2476	46.1037	-14.2841
  21	1	8	-0.124028	-14.3812	45.0819	-14.1171
  22	1	8	-0.119704	-14.7179	46.9184	-15.2242
  23	1	8	-0.115877	-16.3541	45.5409	-14.8038
  24	1	3	-0.024709	-16.7088	47.9074	-13.0754
  25	1	3	-0.076489	-17.2846	48.2704	-14.324
  26	1	3	-0.052344	-18.3068	49.2253	-14.3504
  27	1	3	-0.054202	-17.2026	48.549	-11.9031
  28	1	3	-0.149083	-18.2181	49.5263	-11.9556
  29	1	3	-0.063027	-18.7537	49.8487	-13.2064
  30	1	2	0.499526	-19.8157	50.8192	-13.5905
  31	1	1	-0.036881	-19.9521	50.6991	-14.9697
  32	1	2	0.443545	-19.0831	49.7528	-15.5006
  33	1	3	0.038197	-20.8662	51.4571	-15.7551
  34	1	3	-0.408621	-20.9524	52.8532	-15.6015
  35	1	3	0.252781	-21.8308	53.6045	-16.3998
  36	1	3	-0.169778	-21.6855	50.823	-16.709
  37	1	3	-0.113042	-22.5647	51.5712	-17.5102
  38	1	3	0.016958	-22.6214	52.9697	-17.3721
  39	1	6	0.167832	-18.5815	50.0141	-11.0529
  40	1	6	0.134138	-16.7992	48.2814	-10.9302
  41	1	6	0.145229	-16.971	47.843	-15.2704
  42	1	5	-0.462312	-18.9973	49.3669	-16.6543
  43	1	5	-0.483102	-20.4243	51.5536	-12.8307
  44	1	6	0.144532	-23.1952	51.0695	-18.2394
  45	1	6	0.226042	-20.3523	53.3676	-14.8562
  46	1	3	0.12103	-23.7269	53.5021	-19.484
  47	1	3	-0.09864	-22.7441	52.9823	-20.3484
  48	1	3	-0.194398	-23.0398	52.7735	-21.7071
  49	1	3	-0.091961	-24.3125	53.0962	-22.2075
  50	1	3	-0.197799	-25.288	53.6324	-21.3502
  51	1	3	-0.102777	-24.9924	53.8375	-19.9908
  52	1	6	0.132074	-24.5398	52.9384	-23.2593
  53	1	6	0.154044	-26.2699	53.8912	-21.7384
  54	1	6	0.145155	-21.7546	52.7468	-19.9681
  55	1	6	0.14558	-25.7408	54.2544	-19.3233
  56	1	9	-0.24014	-23.4697	53.7298	-18.1489
  57	1	6	0.152938	-21.6366	49.7451	-16.8382
  58	1	6	0.151751	-22.2812	52.3677	-22.3717
  59	1	1	0.48116	-18.9593	40.9054	-22.9705
  60	1	2	0.034009	-19.414	41.5515	-21.8149
  61	1	3	0.028921	-18.5607	42.7539	-21.6756
  62	1	2	0.071556	-17.893	41.5896	-23.5733
  63	1	3	0.025276	-17.6489	42.7712	-22.7076
  64	1	5	-0.381907	-20.2872	41.2054	-21.0346
  65	1	5	-0.393799	-17.2783	41.3067	-24.5906
  66	1	3	-0.008998	-18.5965	43.7596	-20.7077
  67	1	3	-0.064503	-16.7023	43.7929	-22.8159
  68	1	3	-0.16756	-16.7081	44.8117	-21.8387
  69	1	3	-0.085161	-17.6455	44.8116	-20.7661
  70	1	6	0.158939	-19.3581	43.7147	-19.9335
  71	1	6	0.163781	-15.9882	43.7955	-23.6363
  72	1	6	0.161401	-15.9785	45.6081	-21.9427
  73	1	7	-0.078003	-17.718	45.9552	-19.7126
  74	1	7	0.303704	-16.3474	46.7043	-19.4906
  75	1	8	-0.1084	-15.32	45.8384	-19.3406
  76	1	8	-0.101508	-16.3735	47.4603	-18.3685
  77	1	8	-0.111714	-16.0151	47.5366	-20.503
  78	1	7	0.380371	-18.7889	46.976	-20.2582
  79	1	8	-0.124028	-18.5459	47.3236	-21.5429
  80	1	8	-0.119704	-18.8361	48.1282	-19.5538
  81	1	8	-0.115877	-20.0323	46.4425	-20.2495
  82	1	3	-0.024709	-18.0961	45.3229	-18.3393
  83	1	3	-0.076489	-17.3767	44.1826	-17.8915
  84	1	3	-0.052344	-17.7048	43.6079	-16.6576
  85	1	3	-0.054202	-19.1085	45.8575	-17.4905
  86	1	3	-0.149083	-19.4263	45.2613	-16.2544
  87	1	3	-0.063027	-18.7079	44.1268	-15.866
  88	1	2	0.499526	-18.7273	43.3753	-14.5845
  89	1	1	-0.036881	-17.6922	42.453	-14.6766
  90	1	2	0.443545	-17.0462	42.5053	-15.9061
  91	1	3	0.038197	-17.286	41.6228	-13.5971
  92	1	3	-0.408621	-18.226	40.8256	-12.9208
  93	1	3	0.252781	-17.8401	40.0617	-11.8079
  94	1	3	-0.169778	-15.9492	41.6324	-13.1568
  95	1	3	-0.113042	-15.5609	40.8725	-12.0404
  96	1	3	0.016958	-16.5097	40.0929	-11.3569
  97	1	6	0.167832	-20.186	45.6875	-15.6024
  98	1	6	0.134138	-19.6566	46.7534	-17.7609
  99	1	6	0.145229	-16.5644	43.7578	-18.4784
 100	1	5	-0.462312	-16.0907	41.8463	-16.2798
 101	1	5	-0.483102	-19.4538	43.6092	-13.6323
 102	1	6	0.144532	-14.5334	40.9096	-11.6922
 103	1	6	0.226042	-19.2683	40.8183	-13.226
 104	1	3	0.12103	-15.2009	39.7403	-9.31366
 105	1	3	-0.09864	-14.1291	38.8461	-9.16345
 106	1	3	-0.194398	-13.1839	39.0364	-8.14803
 107	1	3	-0.091961	-13.3343	40.1111	-7.26275
 108	1	3	-0.197799	-14.4212	40.9882	-7.40035
 109	1	3	-0.102777	-15.3923	40.8232	-8.41868
 110	1	6	0.132074	-12.6082	40.274	-6.47015
 111	1	6	0.154044	-14.4932	41.8329	-6.71705
 112	1	6	0.145155	-14.0497	37.989	-9.82659
 113	1	6	0.14558	-16.3591	40.6901	-7.94703
 114	1	9	-0.24014	-16.1788	39.3883	-10.2197
 115	1	6	0.152938	-15.2106	42.243	-13.6716
 116	1	6	0.151751	-12.3532	38.3438	-8.04059
 117	1	1	0.48116	-9.62297	39.9906	-7.49741
 118	1	2	0.034009	-10.1983	41.0669	-8.18568
 119	1	3	0.028921	-10.2904	40.6292	-9.60299
 120	1	2	0.071556	-9.3313	38.9175	-8.34728
 121	1	3	0.025276	-9.77972	39.3525	-9.69448
 122	1	5	-0.381907	-10.5072	42.1648	-7.7494
 123	1	5	-0.393799	-8.75494	37.8719	-8.08987
 124	1	3	-0.008998	-10.7292	41.3313	-10.7328
 125	1	3	-0.064503	-9.6989	38.6937	-10.9222
 126	1	3	-0.16756	-10.1322	39.3831	-12.0735
 127	1	3	-0.085161	-10.6369	40.7142	-12.0137
 128	1	6	0.158939	-11.0996	42.3395	-10.5822
 129	1	6	0.163781	-9.28608	37.6889	-10.9809
 130	1	6	0.161401	-10.0558	38.8743	-13.0313
 131	1	7	-0.078003	-10.9841	41.448	-13.3534
 132	1	7	0.303704	-11.6491	42.8603	-13.1331
 133	1	8	-0.1084	-12.7801	42.758	-12.4056
 134	1	8	-0.101508	-12.0221	43.4491	-14.2905
 135	1	8	-0.111714	-10.8303	43.7392	-12.5125
 136	1	7	0.380371	-9.61448	41.6419	-14.1207
 137	1	8	-0.124028	-8.635	42.0574	-13.2848
 138	1	8	-0.119704	-9.65736	42.5495	-15.1209
 139	1	8	-0.115877	-9.18526	40.4887	-14.6806
 140	1	3	-0.024709	-12.0084	40.6086	-14.1767
 141	1	3	-0.076489	-12.1897	40.8334	-15.5678
 142	1	3	-0.052344	-13.2101	40.1543	-16.2447
 143	1	3	-0.054202	-12.8752	39.6778	-13.5342
 144	1	3	-0.149083	-13.8866	38.9915	-14.2378
 145	1	3	-0.063027	-14.0394	39.2631	-15.6006
 146	1	2	0.499526	-15.0438	38.7687	-16.5818
 147	1	1	-0.036881	-14.7434	39.4033	-17.783
 148	1	2	0.443545	-13.6525	40.258	-17.661
 149	1	3	0.038197	-15.4641	39.1968	-18.9956
 150	1	3	-0.408621	-16.872	39.2133	-19.0031
 151	1	3	0.252781	-17.5833	38.9854	-20.1928
 152	1	3	-0.169778	-14.7795	38.9666	-20.2048
 153	1	3	-0.113042	-15.4875	38.7458	-21.3985
 154	1	3	0.016958	-16.8898	38.7448	-21.3948
 155	1	6	0.167832	-14.5636	38.3055	-13.732
 156	1	6	0.134138	-12.801	39.5021	-12.4654
 157	1	6	0.145229	-11.5996	41.5572	-16.1199
 158	1	5	-0.462312	-13.121	40.9323	-18.5281
 159	1	5	-0.483102	-15.9156	37.9437	-16.359
 160	1	6	0.144532	-14.9521	38.5741	-22.3287
 161	1	6	0.226042	-17.4231	39.3802	-18.0818
 162	1	3	0.12103	-18.9098	38.563	-22.7351
 163	1	3	-0.09864	-19.6762	37.478	-22.28
 164	1	3	-0.194398	-21.0667	37.4773	-22.4596
 165	1	3	-0.091961	-21.68	38.5628	-23.0993
 166	1	3	-0.197799	-20.9017	39.6353	-23.5658
 167	1	3	-0.102777	-19.4934	39.6514	-23.4157
 168	1	6	0.132074	-22.7606	38.58	-23.2234
 169	1	6	0.154044	-21.4043	40.4797	-24.0342
 170	1	6	0.145155	-19.1863	36.6424	-21.7878
 171	1	6	0.14558	-19.0559	39.6927	-24.4065
 172	1	9	-0.24014	-17.5431	38.5257	-22.5886
 173	1	6	0.152938	-13.6923	38.9614	-20.2237
 174	1	6	0.151751	-21.6658	36.6452	-22.0977
 175	1	1	0.48116	-10.4693	24.0147	-1.73516
 176	1	2	0.034009	-10.1797	24.0138	-3.10557
 177	1	3	0.028921	-11.089	25.0234	-3.70425
 178	1	2	0.071556	-11.4725	24.9409	-1.41257
 179	1	3	0.025276	-11.8623	25.5671	-2.70267
 180	1	5	-0.381907	-9.34654	23.3578	-3.71106
 181	1	5	-0.393799	-11.9231	25.2264	-0.313503
 182	1	3	-0.008998	-11.2254	25.4216	-5.03808
 183	1	3	-0.064503	-12.8343	26.5313	-2.98434
 184	1	3	-0.16756	-13.0	26.9368	-4.32691
 185	1	3	-0.085161	-12.1906	26.4109	-5.37378
 186	1	6	0.158939	-10.5984	24.9371	-5.7777
 187	1	6	0.163781	-13.4523	26.9362	-2.1859
 188	1	6	0.161401	-13.7804	27.6602	-4.5523
 189	1	7	-0.078003	-12.4561	26.8326	-6.85191
 190	1	7	0.303704	-11.1739	26.7081	-7.76405
 191	1	8	-0.1084	-10.0893	27.2568	-7.17123
 192	1	8	-0.101508	-11.3339	27.3559	-8.94115
 193	1	8	-0.111714	-10.8523	25.4339	-8.08036
 194	1	7	0.380371	-13.5735	25.8556	-7.38455
 195	1	8	-0.124028	-13.292	24.5623	-7.1047
 196	1	8	-0.119704	-13.7469	25.9211	-8.7245
 197	1	8	-0.115877	-14.7682	26.1136	-6.8051
 198	1	3	-0.024709	-12.8642	28.3388	-6.91959
 199	1	3	-0.076489	-12.101	29.2965	-6.19963
 200	1	3	-0.052344	-12.3805	30.6615	-6.36413
 201	1	3	-0.054202	-13.8988	28.8176	-7.77724
 202	1	3	-0.149083	-14.1624	30.1932	-7.92923
 203	1	3	-0.063027	-13.3747	31.0977	-7.21295
 204	1	2	0.499526	-13.3638	32.5848	-7.22789
 205	1	1	-0.036881	-12.3421	32.9626	-6.36329
 206	1	2	0.443545	-11.7076	31.8611	-5.7946
 207	1	3	0.038197	-11.9709	34.3184	-6.12061
 208	1	3	-0.408621	-12.9538	35.2998	-5.89249
 209	1	3	0.252781	-12.5899	36.6411	-5.69504
 210	1	3	-0.169778	-10.617	34.7065	-6.14142
 211	1	3	-0.113042	-10.2494	36.05	-5.94862
 212	1	3	0.016958	-11.2386	37.0249	-5.71602
 213	1	6	0.167832	-14.9341	30.5485	-8.60995
 214	1	6	0.134138	-14.4985	28.1392	-8.37168
 215	1	6	0.145229	-11.2804	28.9926	-5.5533
 216	1	5	-0.462312	-10.781	31.8514	-5.00277
 217	1	5	-0.483102	-14.0871	33.2969	-7.90513
 218	1	6	0.144532	-9.2004	36.3284	-6.00762
 219	1	6	0.226042	-14.0083	35.0393	-5.89907
 220	1	3	0.12103	-9.69156	38.8994	-5.35268
 221	1	3	-0.09864	-8.94476	38.4463	-4.25009
 222	1	3	-0.194398	-7.70663	39.0324	-3.94943
 223	1	3	-0.091961	-7.21724	40.0645	-4.76046
 224	1	3	-0.197799	-7.98267	40.5271	-5.84312
 225	1	3	-0.102777	-9.27819	40.021	-6.10473
 226	1	6	0.132074	-6.24254	40.5024	-4.55477
 227	1	6	0.154044	-7.57889	41.3238	-6.46674
 228	1	6	0.145155	-9.32786	37.6378	-3.63328
 229	1	6	0.14558	-9.97286	40.8049	-5.8253
 230	1	9	-0.24014	-10.9395	38.368	-5.59505
 231	1	6	0.152938	-9.84068	33.9679	-6.32693
 232	1	6	0.151751	-7.12196	38.6764	-3.10423
 233	1	1	0.48116	-15.0551	8.70253	-9.78173
 234	1	2	0.034009	-14.3514	9.47727	-8.8445
 235	1	3	0.028921	-13.3128	10.1982	-9.63169
 236	1	2	0.071556	-14.5299	8.83984	-11.0751
 237	1	3	0.025276	-13.4292	9.82343	-10.9514
 238	1	5	-0.381907	-14.5755	9.63342	-7.65288
 239	1	5	-0.393799	-14.938	8.35594	-12.1205
 240	1	3	-0.008998	-12.3941	11.1794	-9.23527
 241	1	3	-0.064503	-12.6365	10.4036	-11.9421
 242	1	3	-0.16756	-11.7372	11.4211	-11.5643
 243	1	3	-0.085161	-11.6211	11.8591	-10.2125
 244	1	6	0.158939	-12.3173	11.443	-8.19174
 245	1	6	0.163781	-12.7365	10.091	-12.9786
 246	1	6	0.161401	-11.1353	11.8558	-12.3527
 247	1	7	-0.078003	-10.6377	12.9987	-9.77975
 248	1	7	0.303704	-9.32478	12.2697	-9.30699
 249	1	8	-0.1084	-9.50793	11.6571	-8.11589
 250	1	8	-0.101508	-8.26853	13.0969	-9.18155
 251	1	8	-0.111714	-8.92912	11.3173	-10.1789
 252	1	7	0.380371	-10.3005	13.9903	-10.9593
 253	1	8	-0.124028	-9.4885	13.4578	-11.9006
 254	1	8	-0.119704	-9.67468	15.1102	-10.5307
 255	1	8	-0.115877	-11.4297	14.4065	-11.5764
 256	1	3	-0.024709	-11.2584	13.8984	-8.65785
 257	1	3	-0.076489	-10.4368	14.6348	-7.75823
 258	1	3	-0.052344	-11.0298	15.516	-6.84614
 259	1	3	-0.054202	-12.6655	14.122	-8.59572
 260	1	3	-0.149083	-13.2473	14.9762	-7.63369
 261	1	3	-0.063027	-12.396	15.6685	-6.7664
 262	1	2	0.499526	-12.6904	16.6611	-5.69493
 263	1	1	-0.036881	-11.4526	17.0799	-5.21698
 264	1	2	0.443545	-10.4031	16.4168	-5.84271
 265	1	3	0.038197	-11.2753	18.1039	-4.24045
 266	1	3	-0.408621	-10.3909	19.1722	-4.48819
 267	1	3	0.252781	-10.2358	20.2076	-3.55098
 268	1	3	-0.169778	-11.9978	18.0849	-3.03173
 269	1	3	-0.113042	-11.8422	19.1171	-2.08818
 270	1	3	0.016958	-10.9592	20.1785	-2.34453
 271	1	6	0.167832	-14.3245	15.1245	-7.58327
 272	1	6	0.134138	-13.3273	13.6414	-9.31033
 273	1	6	0.145229	-9.35399	14.5786	-7.77032
 274	1	5	-0.462312	-9.2098	16.5092	-5.61089
 275	1	5	-0.483102	-13.7988	17.0196	-5.33492
 276	1	6	0.144532	-12.4094	19.0991	-1.16031
 277	1	6	0.226042	-9.81596	19.2104	-5.40888
 278	1	3	0.12103	-9.69284	21.8485	-1.0953
 279	1	3	-0.09864	-8.50925	21.1062	-0.92344
 280	1	3	-0.194398	-7.34002	21.7361	-0.473511
 281	1	3	-0.091961	-7.36086	23.1071	-0.187712
 282	1	3	-0.197799	-8.54851	23.8387	-0.348926
 283	1	3	-0.102777	-9.74936	23.2232	-0.777282
 284	1	6	0.132074	-6.45615	23.6043	0.155726
 285	1	6	0.154044	-8.53868	24.9049	-0.125894
 286	1	6	0.145155	-8.50299	20.0389	-1.12511
 287	1	6	0.14558	-10.484	23.3233	0.0132621
 288	1	9	-0.24014	-10.8665	21.2064	-1.43041
 289	1	6	0.152938	-12.6986	17.2793	-2.82787
 290	1	6	0.151751	-6.42387	21.1639	-0.346687
 291	1	1	0.48116	-5.61913	11.2419	-7.36846
 292	1	2	0.034009	-5.54205	10.0115	-8.03773
 293	1	3	0.028921	-5.34211	10.3541	-9.46805
 294	1	2	0.071556	-5.46529	12.3257	-8.24433
 295	1	3	0.025276	-5.30581	11.7248	-9.58834
 296	1	5	-0.381907	-5.69532	8.88635	-7.5876
 297	1	5	-0.393799	-5.53584	13.5226	-8.01194
 298	1	3	-0.008998	-5.31029	9.52189	-10.5904
 299	1	3	-0.064503	-5.2169	12.3434	-10.8359
 300	1	3	-0.16756	-5.22753	11.525	-11.9836
 301	1	3	-0.085161	-5.3276	10.1076	-11.8863
 302	1	6	0.158939	-5.36617	8.4455	-10.447
 303	1	6	0.163781	-5.19378	13.4286	-10.9092
 304	1	6	0.161401	-5.19657	12.0217	-12.9471
 305	1	7	-0.078003	-5.52784	9.19319	-13.1353
 306	1	7	0.303704	-6.16443	9.9469	-14.3671
 307	1	8	-0.1084	-5.30989	10.7924	-14.9854
 308	1	8	-0.101508	-7.24977	10.6705	-14.0071
 309	1	8	-0.111714	-6.58976	9.0792	-15.3136
 310	1	7	0.380371	-4.10861	8.63938	-13.5291
 311	1	8	-0.124028	-4.10129	7.9814	-14.7104
 312	1	8	-0.119704	-3.63654	7.78982	-12.5894
 313	1	8	-0.115877	-3.19732	9.63347	-13.6353
 314	1	3	-0.024709	-6.55553	8.08633	-12.7477
 315	1	3	-0.076489	-7.70027	8.47225	-12.0066
 316	1	3	-0.052344	-8.61318	7.50093	-11.5985
 317	1	3	-0.054202	-6.4261	6.71384	-13.1116
 318	1	3	-0.149083	-7.38505	5.75114	-12.7197
 319	1	3	-0.063027	-8.47358	6.17579	-11.9459
 320	1	2	0.499526	-9.63469	5.42957	-11.3759
 321	1	1	-0.036881	-10.3872	6.38089	-10.6935
 322	1	2	0.443545	-9.83672	7.64962	-10.7801
 323	1	3	0.038197	-11.6127	6.14579	-10.0158
 324	1	3	-0.408621	-12.7065	5.57099	-10.6875
 325	1	3	0.252781	-13.9656	5.51365	-10.0665
 326	1	3	-0.169778	-11.7793	6.61672	-8.6992
 327	1	3	-0.113042	-13.0359	6.56925	-8.07828
 328	1	3	0.016958	-14.1339	6.05026	-8.77666
 329	1	6	0.167832	-7.282	4.70493	-13.0026
 330	1	6	0.134138	-5.58539	6.37078	-13.7046
 331	1	6	0.145229	-7.87068	9.50722	-11.7223
 332	1	5	-0.462312	-10.2602	8.68718	-10.3008
 333	1	5	-0.483102	-9.87623	4.24442	-11.5287
 334	1	6	0.144532	-13.174	6.97995	-7.0807
 335	1	6	0.226042	-12.5973	5.19683	-11.7016
 336	1	3	0.12103	-16.2848	7.15466	-8.36766
 337	1	3	-0.09864	-17.3545	7.16914	-7.45849
 338	1	3	-0.194398	-18.4285	8.05405	-7.62579
 339	1	3	-0.091961	-18.4469	8.90879	-8.73287
 340	1	3	-0.197799	-17.3913	8.87671	-9.65653
 341	1	3	-0.102777	-16.2834	8.00643	-9.50325
 342	1	6	0.132074	-19.2808	9.59279	-8.87854
 343	1	6	0.154044	-17.4327	9.54934	-10.5128
 344	1	6	0.145155	-17.3508	6.46725	-6.63025
 345	1	6	0.14558	-16.2287	7.35473	-10.3675
 346	1	9	-0.24014	-15.376	6.12612	-8.19675
 347	1	6	0.152938	-10.9433	7.0716	-8.17295
 348	1	6	0.151751	-19.2526	8.06285	-6.91662
 349	1	1	0.48116	8.51941	1.91186	-0.52606
 350	1	2	0.034009	7.27502	1.554	0.00919064
 351	1	3	0.028921	6.34824	2.64077	-0.379946
 352	1	2	0.071556	8.45292	3.1111	-1.24983
 353	1	3	0.025276	7.04739	3.58014	-1.10459
 354	1	5	-0.381907	6.95936	0.544095	0.618009
 355	1	5	-0.393799	9.32131	3.62568	-1.93946
 356	1	3	-0.008998	4.98209	2.77044	-0.115121
 357	1	3	-0.064503	6.41801	4.74065	-1.56415
 358	1	3	-0.16756	5.04205	4.90628	-1.28345
 359	1	3	-0.085161	4.2889	3.91604	-0.58622
 360	1	6	0.158939	4.49993	1.98532	0.454739
 361	1	6	0.163781	6.98614	5.4953	-2.10447
 362	1	6	0.161401	4.55833	5.82442	-1.61011
 363	1	7	-0.078003	2.77719	4.15629	-0.26814
 364	1	7	0.303704	2.74975	5.06711	1.01729
 365	1	8	-0.1084	3.18325	6.32045	0.751133
 366	1	8	-0.101508	3.55626	4.57673	1.97834
 367	1	8	-0.111714	1.52822	5.16477	1.5884
 368	1	7	0.380371	1.97471	2.83168	0.043374
 369	1	8	-0.124028	2.22374	1.87439	-0.870299
 370	1	8	-0.119704	2.25654	2.29429	1.2524
 371	1	8	-0.115877	0.637698	3.03421	0.0208551
 372	1	3	-0.024709	2.07996	4.82381	-1.49494
 373	1	3	-0.076489	1.07553	5.81169	-1.33296
 374	1	3	-0.052344	0.495771	6.39086	-2.46295
 375	1	3	-0.054202	2.41254	4.43057	-2.82347
 376	1	3	-0.149083	1.81452	5.03187	-3.95505
 377	1	3	-0.063027	0.855308	6.03045	-3.74075
 378	1	2	0.499526	0.0977504	6.89861	-4.69029
 379	1	1	-0.036881	-0.674108	7.74769	-3.89587
 380	1	2	0.443545	-0.501112	7.48164	-2.54082
 381	1	3	0.038197	-1.48064	8.82505	-4.37634
 382	1	3	-0.408621	-1.03374	9.65786	-5.42197
 383	1	3	0.252781	-1.7802	10.7848	-5.80734
 384	1	3	-0.169778	-2.69899	9.13645	-3.73964
 385	1	3	-0.113042	-3.43502	10.2726	-4.10511
 386	1	3	0.016958	-2.98154	11.0974	-5.14981
 387	1	6	0.167832	2.0997	4.74263	-4.96491
 388	1	6	0.134138	3.16735	3.66694	-2.98445
 389	1	6	0.145229	0.740333	6.15957	-0.36364
 390	1	5	-0.462312	-0.994847	8.0481	-1.58007
 391	1	5	-0.483102	0.200341	6.8844	-5.90632
 392	1	6	0.144532	-4.34308	10.5173	-3.56026
 393	1	6	0.226042	-0.0963482	9.45488	-5.9317
 394	1	3	0.12103	-5.04339	12.3445	-5.36776
 395	1	3	-0.09864	-5.55403	13.44	-4.65542
 396	1	3	-0.194398	-6.93373	13.5514	-4.43626
 397	1	3	-0.091961	-7.78888	12.5561	-4.92446
 398	1	3	-0.197799	-7.27618	11.497	-5.69076
 399	1	3	-0.102777	-5.89366	11.3885	-5.96711
 400	1	6	0.132074	-8.84827	12.606	-4.70333
 401	1	6	0.154044	-7.96102	10.7353	-6.06165
 402	1	6	0.145155	-4.87377	14.19	-4.26235
 403	1	6	0.14558	-5.5618	10.3907	-5.70999
 404	1	9	-0.24014	-3.67895	12.2301	-5.51104
 405	1	6	0.152938	-3.06333	8.52081	-2.92099
 406	1	6	0.151751	-7.33357	14.3937	-3.87578
 407	1	1	0.48116	12.7852	0.448749	17.0844
 408	1	2	0.034009	12.466	0.830766	15.773
 409	1	3	0.028921	13.7696	0.879041	15.046
 410	1	2	0.071556	14.1616	0.298957	17.2649
 411	1	3	0.025276	14.7669	0.564705	15.9442
 412	1	5	-0.381907	11.3598	0.995233	15.2825
 413	1	5	-0.393799	14.7632	-0.0690272	18.2586
 414	1	3	-0.008998	14.0625	1.11836	13.6928
 415	1	3	-0.064503	16.1016	0.473599	15.5569
 416	1	3	-0.16756	16.4145	0.701779	14.2065
 417	1	3	-0.085161	15.4106	1.00634	13.2432
 418	1	6	0.158939	13.2542	1.37486	13.0121
 419	1	6	0.163781	16.8723	0.218465	16.2796
 420	1	6	0.161401	17.4603	0.633625	13.9328
 421	1	7	-0.078003	15.7791	1.28844	11.7514
 422	1	7	0.303704	15.9814	2.84396	11.6422
 423	1	8	-0.1084	14.8048	3.50098	11.7528
 424	1	8	-0.101508	16.5603	3.2275	10.4862
 425	1	8	-0.111714	16.7837	3.30997	12.6218
 426	1	7	0.380371	17.1	0.562456	11.278
 427	1	8	-0.124028	17.2391	0.596257	9.93176
 428	1	8	-0.119704	17.0946	-0.745172	11.6224
 429	1	8	-0.115877	18.2343	1.10448	11.7777
 430	1	3	-0.024709	14.6547	0.756214	10.8146
 431	1	3	-0.076489	14.2823	1.43879	9.62703
 432	1	3	-0.052344	13.3312	0.866626	8.77817
 433	1	3	-0.054202	14.0601	-0.511753	11.0696
 434	1	3	-0.149083	13.0911	-1.063	10.2035
 435	1	3	-0.063027	12.7307	-0.339484	9.06111
 436	1	2	0.499526	11.8175	-0.678241	7.9301
 437	1	1	-0.036881	11.9813	0.343606	7.00352
 438	1	2	0.443545	12.8661	1.31971	7.44527
 439	1	3	0.038197	11.3913	0.372117	5.71063
 440	1	3	-0.408621	10.0102	0.575869	5.54585
 441	1	3	0.252781	9.4807	0.810789	4.26568
 442	1	3	-0.169778	12.2153	0.303166	4.57424
 443	1	3	-0.113042	11.6866	0.504809	3.28722
 444	1	3	0.016958	10.318	0.78358	3.13585
 445	1	6	0.167832	12.6596	-2.03976	10.3922
 446	1	6	0.134138	14.3674	-1.08848	11.9409
 447	1	6	0.145229	14.7318	2.37596	9.32452
 448	1	5	-0.462312	13.3153	2.26746	6.82405
 449	1	5	-0.483102	11.1359	-1.68465	7.82595
 450	1	6	0.144532	12.3437	0.513638	2.42112
 451	1	6	0.226042	9.35722	0.644125	6.40849
 452	1	3	0.12103	9.85248	0.409313	0.762524
 453	1	3	-0.09864	9.95057	-0.993554	0.840549
 454	1	3	-0.194398	9.92583	-1.76891	-0.327394
 455	1	3	-0.091961	9.83672	-1.1373	-1.5741
 456	1	3	-0.197799	9.74812	0.261842	-1.64528
 457	1	3	-0.102777	9.67695	1.06236	-0.480391
 458	1	6	0.132074	9.82413	-1.73234	-2.48494
 459	1	6	0.154044	9.67158	0.732508	-2.6253
 460	1	6	0.145155	10.0162	-1.48426	1.80707
 461	1	6	0.14558	10.3781	1.88801	-0.539138
 462	1	9	-0.24014	9.82161	1.17345	1.91149
 463	1	6	0.152938	13.2811	0.146714	4.7031
 464	1	6	0.151751	9.97559	-2.8547	-0.265168
 465	1	1	0.48116	1.05413	7.20728	10.8933
 466	1	2	0.034009	0.997915	8.4083	11.6117
 467	1	3	0.028921	2.40892	8.75455	11.9096
 468	1	2	0.071556	2.37476	6.80928	10.6375
 469	1	3	0.025276	3.22514	7.8191	11.3141
 470	1	5	-0.381907	0.0178592	9.0585	11.9392
 471	1	5	-0.393799	2.77599	5.85333	9.98964
 472	1	3	-0.008998	2.92304	9.77942	12.7095
 473	1	3	-0.064503	4.61289	7.88695	11.441
 474	1	3	-0.16756	5.1553	8.91766	12.2376
 475	1	3	-0.085161	4.32664	9.85093	12.9239
 476	1	6	0.158939	2.21888	10.4673	13.1626
 477	1	6	0.163781	5.23828	7.13103	10.9715
 478	1	6	0.161401	6.23465	8.96007	12.3616
 479	1	7	-0.078003	4.981	10.9243	13.8503
 480	1	7	0.303704	5.46476	12.0808	12.8962
 481	1	8	-0.1084	5.79156	13.222	13.5437
 482	1	8	-0.101508	4.50985	12.4192	11.9995
 483	1	8	-0.111714	6.54573	11.7031	12.1823
 484	1	7	0.380371	3.98652	11.5123	14.9207
 485	1	8	-0.124028	3.03142	12.3085	14.3901
 486	1	8	-0.119704	4.62861	12.2661	15.8388
 487	1	8	-0.115877	3.36132	10.5262	15.6042
 488	1	3	-0.024709	6.14157	10.271	14.6673
 489	1	3	-0.076489	6.00437	8.94116	15.152
 490	1	3	-0.052344	7.05566	8.36311	15.8778
 491	1	3	-0.054202	7.33691	10.9776	14.9902
 492	1	3	-0.149083	8.37595	10.3802	15.7313
 493	1	3	-0.063027	8.20341	9.06593	16.1698
 494	1	2	0.499526	9.12779	8.1703	16.9135
 495	1	1	-0.036881	8.49393	6.93337	16.9656
 496	1	2	0.443545	7.22175	6.97808	16.3965
 497	1	3	0.038197	9.13531	5.747	17.4354
 498	1	3	-0.408621	9.01516	4.54343	16.7135
 499	1	3	0.252781	9.72763	3.39922	17.1018
 500	1	3	-0.169778	9.97277	5.77475	18.57
 501	1	3	-0.113042	10.694	4.63319	18.9596
 502	1	3	0.016958	10.5716	3.44407	18.2259
 503	1	6	0.167832	9.29865	10.9158	15.9437
 504	1	6	0.134138	7.48787	12.0017	14.6697
 505	1	6	0.145229	5.11456	8.34963	14.9467
 506	1	5	-0.462312	6.4102	6.07463	16.2815
 507	1	5	-0.483102	10.2153	8.48131	17.3714
 508	1	6	0.144532	11.3498	4.6709	19.8249
 509	1	6	0.226042	8.37526	4.4791	15.8381
 510	1	3	0.12103	10.8786	1.05103	18.4416
 511	1	3	-0.09864	9.58484	0.695842	18.8706
 512	1	3	-0.194398	9.16767	-0.642559	18.8196
 513	1	3	-0.091961	10.0414	-1.61839	18.3252
 514	1	3	-0.197799	11.3341	-1.25528	17.9156
 515	1	3	-0.102777	11.8164	0.065487	18.0721
 516	1	6	0.132074	9.70635	-2.65002	18.2333
 517	1	6	0.154044	11.9892	-2.02378	17.5069
 518	1	6	0.145155	8.90863	1.45831	19.2496
 519	1	6	0.14558	12.4863	0.0353746	18.9238
 520	1	9	-0.24014	11.3144	2.34801	18.6
 521	1	6	0.152938	10.0893	6.69225	19.1416
 522	1	6	0.151751	8.16389	-0.920877	19.1334
 523	1	1	0.48116	5.51337	-7.87432	14.0552
 524	1	2	0.034009	5.87583	-6.71616	14.765
 525	1	3	0.028921	6.89994	-6.04496	13.9229
 526	1	2	0.071556	6.2615	-8.02141	12.8784
 527	1	3	0.025276	7.09156	-6.79543	12.785
 528	1	5	-0.381907	5.4529	-6.30213	15.8354
 529	1	5	-0.393799	6.28068	-8.95832	12.0934
 530	1	3	-0.008998	7.61477	-4.86286	14.1444
 531	1	3	-0.064503	7.94026	-6.35691	11.7672
 532	1	3	-0.16756	8.67748	-5.17324	11.973
 533	1	3	-0.085161	8.55271	-4.42066	13.1746
 534	1	6	0.158939	7.45862	-4.31476	15.0672
 535	1	6	0.163781	8.02849	-6.92194	10.8457
 536	1	6	0.161401	9.34212	-4.86326	11.1747
 537	1	7	-0.078003	9.43124	-3.17562	13.4986
 538	1	7	0.303704	10.4879	-3.66022	14.5721
 539	1	8	-0.1084	11.4747	-2.76643	14.8108
 540	1	8	-0.101508	11.1033	-4.80037	14.1845
 541	1	8	-0.111714	9.91741	-3.94159	15.7647
 542	1	7	0.380371	10.2038	-2.58726	12.2581
 543	1	8	-0.124028	11.1795	-3.41361	11.8152
 544	1	8	-0.119704	10.7993	-1.40866	12.5533
 545	1	8	-0.115877	9.38488	-2.33616	11.2121
 546	1	3	-0.024709	8.48605	-2.0506	14.0042
 547	1	3	-0.076489	7.29024	-1.78301	13.289
 548	1	3	-0.052344	6.43238	-0.776601	13.7514
 549	1	3	-0.054202	8.78549	-1.24436	15.1367
 550	1	3	-0.149083	7.89371	-0.258796	15.6007
 551	1	3	-0.063027	6.70685	-0.0599226	14.8939
 552	1	2	0.499526	5.60101	0.90413	15.1223
 553	1	1	-0.036881	4.73416	0.746809	14.0473
 554	1	2	0.443545	5.16788	-0.255099	13.1759
 555	1	3	0.038197	3.59187	1.57292	13.8206
 556	1	3	-0.408621	2.30972	1.03548	12.664
 557	1	3	0.252781	1.04813	2.17866	12.1164
 558	1	3	-0.169778	3.58943	3.27008	14.4125
 559	1	3	-0.113042	2.31965	4.44105	13.7952
 560	1	3	0.016958	1.08049	3.8817	12.65
 561	1	6	0.167832	8.12779	0.345692	16.4713
 562	1	6	0.134138	9.71435	-1.36378	15.6761
 563	1	6	0.145229	7.03211	-2.34147	12.3912
 564	1	5	-0.462312	4.69534	-0.602009	12.1054
 565	1	5	-0.483102	5.50316	1.66211	16.0722
 566	1	6	0.144532	2.34666	5.48612	14.0969
 567	1	6	0.226042	2.32279	0.0312993	12.241
 568	1	3	0.12103	0.0325645	5.10131	10.7931
 569	1	3	-0.09864	-0.0270082	4.10577	9.79587
 570	1	3	-0.194398	-0.287005	4.45445	8.46538
 571	1	3	-0.091961	-0.525275	5.79159	8.13283
 572	1	3	-0.197799	-0.434281	6.78329	9.1193
 573	1	3	-0.102777	-0.0931212	6.46576	10.4543
 574	1	6	0.132074	-0.782549	6.05583	7.10832
 575	1	6	0.154044	-0.631388	7.81722	8.83891
 576	1	6	0.145155	0.097082	3.05896	10.0292
 577	1	6	0.14558	-0.791431	6.93679	11.1368
 578	1	9	-0.24014	0.200353	4.8064	12.1363
 579	1	6	0.152938	4.38417	3.6376	15.0605
 580	1	6	0.151751	-0.351477	3.6875	7.69666
 581	1	1	0.48116	3.21614	5.42914	6.6904
 582	1	2	0.034009	4.10754	4.39496	7.00383
 583	1	3	0.028921	3.527	3.19151	6.3599
 584	1	2	0.071556	2.07365	4.97317	6.02299
 585	1	3	0.025276	2.31612	3.52839	5.79578
 586	1	5	-0.381907	5.23696	4.47959	7.46409
 587	1	5	-0.393799	1.19698	5.63151	5.48459
 588	1	3	-0.008998	4.13303	1.96175	6.0961
 589	1	3	-0.064503	1.62524	2.63572	4.97258
 590	1	3	-0.16756	2.2142	1.382	4.70341
 591	1	3	-0.085161	3.48622	1.03283	5.24103
 592	1	6	0.158939	5.13057	1.77952	6.48264
 593	1	6	0.163781	0.694953	2.94129	4.49973
 594	1	6	0.161401	1.68982	0.721174	4.02032
 595	1	7	-0.078003	4.25854	-0.254957	4.83943
 596	1	7	0.303704	3.36808	-1.35656	4.13244
 597	1	8	-0.1084	2.9691	-1.01802	2.88506
 598	1	8	-0.101508	4.02707	-2.53291	4.01996
 599	1	8	-0.111714	2.24583	-1.63171	4.82838
 600	1	7	0.380371	5.38399	0.187886	3.82204
 601	1	8	-0.124028	6.30749	0.992243	4.39433
 602	1	8	-0.119704	4.86705	0.899096	2.79585
 603	1	8	-0.115877	6.05314	-0.857473	3.28461
 604	1	3	-0.024709	4.79981	-0.899402	6.14935
 605	1	3	-0.076489	3.876	-1.19877	7.1854
 606	1	3	-0.052344	4.29306	-1.98319	8.26659
 607	1	3	-0.054202	6.15367	-1.31312	6.31363
 608	1	3	-0.149083	6.56174	-2.07156	7.42876
 609	1	3	-0.063027	5.59323	-2.42623	8.37218
 610	1	2	0.499526	5.65517	-3.42951	9.465
 611	1	1	-0.036881	4.34484	-3.58554	9.9011
 612	1	2	0.443545	3.48006	-2.67195	9.30484
 613	1	3	0.038197	3.92229	-4.67011	10.719
 614	1	3	-0.408621	3.07843	-4.45311	11.8177
 615	1	3	0.252781	2.66238	-5.52676	12.6213
 616	1	3	-0.169778	4.29968	-5.98997	10.3995
 617	1	3	-0.113042	3.8663	-7.07072	11.1859
 618	1	3	0.016958	3.08221	-6.83493	12.3279
 619	1	6	0.167832	7.57994	-2.44915	7.51026
 620	1	6	0.134138	6.90204	-1.11723	5.5544
 621	1	6	0.145229	2.82711	-0.922522	7.10922
 622	1	5	-0.462312	2.27998	-2.53188	9.47337
 623	1	5	-0.483102	6.64025	-4.08033	9.77318
 624	1	6	0.144532	4.15798	-8.08387	10.9192
 625	1	6	0.226042	2.69539	-3.45989	12.0222
 626	1	3	0.12103	3.47849	-8.9489	13.4895
 627	1	3	-0.09864	3.07813	-10.21	13.0213
 628	1	3	-0.194398	3.65913	-11.3753	13.539
 629	1	3	-0.091961	4.63874	-11.2709	14.5339
 630	1	3	-0.197799	5.06407	-10.0055	14.9698
 631	1	3	-0.102777	4.50157	-8.81207	14.4574
 632	1	6	0.132074	5.07131	-12.1695	14.9659
 633	1	6	0.154044	5.81684	-9.94944	15.7533
 634	1	6	0.145155	2.28431	-10.2792	12.2846
 635	1	6	0.14558	4.11464	-8.21885	15.2777
 636	1	9	-0.24014	2.69291	-7.86552	13.155
 637	1	6	0.152938	4.92946	-6.18614	9.53445
 638	1	6	0.151751	3.33532	-12.3518	13.1877
 639	1	1	0.48116	17.0851	6.29538	7.69697
 640	1	2	0.034009	16.3867	6.50131	6.49601
 641	1	3	0.028921	16.4609	5.20303	5.77311
 642	1	2	0.071556	17.6658	5.02746	7.75846
 643	1	3	0.025276	17.2186	4.33666	6.53115