pySIMM System Object

1161 atoms
1280 bonds
2197 angles
3430 dihedrals
400 impropers

9 atom types
11 bond types
19 angle types
8 dihedral types
4 improper types

-168.696252 168.696252 xlo xhi
-168.696252 168.696252 ylo yhi
-168.696252 168.696252 zlo zhi

Masses

   1	14.01	# n
   2	12.01	# c
   3	12.01	# ca
   4	1.008	# hn
   5	16.0	# o
   6	1.008	# ha
   7	12.01	# c3
   8	19.0	# f
   9	16.0	# os

Pair Coeffs

   1	0.17	3.249998523775958	# n
   2	0.086	3.3996695084235347	# c
   3	0.086	3.3996695084235347	# ca
   4	0.0157	1.069078461768407	# hn
   5	0.21	2.959921901149463	# o
   6	0.015	2.59964245953351	# ha
   7	0.1094	3.3996695084235347	# c3
   8	0.061	3.1181455134911875	# f
   9	0.17	3.0000123434657784	# os

Bond Coeffs

   1	427.6	1.3789	# c,n
   2	461.1	1.3984	# ca,ca
   3	356.9	1.3497	# c3,f
   4	345.9	1.4906	# c,ca
   5	345.8	1.086	# ca,ha
   6	384.2	1.4121	# ca,n
   7	637.7	1.2183	# c,o
   8	321.0	1.5156	# c3,ca
   9	300.9	1.5375	# c3,c3
  10	376.6	1.3696	# ca,os
  11	403.2	1.0129	# hn,n

Angle Coeffs

   1	62.86	111.51	# c3,c3,c3
   2	63.74	127.08	# c,n,c
   3	48.18	119.88	# ca,ca,ha
   4	68.72	122.6	# ca,c,o
   5	63.15	112.07	# c3,c3,ca
   6	70.89	107.36	# f,c3,f
   7	67.87	120.19	# ca,ca,n
   8	63.56	112.24	# ca,c3,ca
   9	63.82	123.71	# c,n,ca
  10	67.68	115.25	# ca,c,n
  11	69.58	119.2	# ca,ca,os
  12	48.33	117.55	# c,n,hn
  13	74.22	123.05	# n,c,o
  14	64.28	120.33	# c,ca,ca
  15	66.11	109.24	# c3,c3,f
  16	63.48	119.89	# ca,os,ca
  17	63.53	120.77	# c3,ca,ca
  18	66.62	120.02	# ca,ca,ca
  19	49.75	116.02	# ha,ca,n

Dihedral Coeffs

   1	1	0.0	2	0	# X,c3,ca,X
   2	1	0.9	2	180	# X,ca,os,X
   3	1	2.5	2	180	# X,c,n,X
   4	1	0.45	2	180	# X,ca,n,X
   5	2	2.5	2	180	2.0	1	0	# hn,n,c,o
   6	1	3.625	2	180	# X,ca,ca,X
   7	1	1.0	2	180	# X,c,ca,X
   8	1	0.15555555555555556	3	0	# X,c3,c3,X

Improper Coeffs

   1	10.5	-1	2	# c,X,X,o
   2	1.1	-1	2	# ca,ca,ca,c3
   3	1.1	-1	2	# n,X,X,hn
   4	1.1	-1	2	# ca,X,X,ha

Atoms

   1	1	1	0.48116	-0.779644	39.7839	-10.2381
   2	1	2	0.034009	-1.51906	38.7509	-10.832
   3	1	3	0.028921	-2.30996	39.3965	-11.9081
   4	1	2	0.071556	-0.990285	41.0127	-10.8817
   5	1	3	0.025276	-2.02328	40.7431	-11.9134
   6	1	5	-0.381907	-1.6062	37.5795	-10.4989
   7	1	5	-0.393799	-0.490419	42.0998	-10.6356
   8	1	3	-0.008998	-3.27188	38.843	-12.7595
   9	1	3	-0.064503	-2.73775	41.6258	-12.7249
  10	1	3	-0.16756	-3.73567	41.0937	-13.5679
  11	1	3	-0.085161	-3.99707	39.6944	-13.6355
  12	1	6	0.158939	-3.46369	37.7772	-12.6953
  13	1	6	0.163781	-2.55745	42.6973	-12.667
  14	1	6	0.161401	-4.31869	41.8008	-14.1522
  15	1	7	-0.078003	-5.10956	39.124	-14.5679
  16	1	7	0.303704	-4.64987	37.7904	-15.2835
  17	1	8	-0.1084	-3.38647	37.8799	-15.7556
  18	1	8	-0.101508	-5.44186	37.4993	-16.341
  19	1	8	-0.111714	-4.67248	36.6991	-14.4873
  20	1	7	0.380371	-6.3596	38.8088	-13.6604
  21	1	8	-0.124028	-6.06899	38.0047	-12.6132
  22	1	8	-0.119704	-7.36136	38.2054	-14.3395
  23	1	8	-0.115877	-6.85256	39.9353	-13.1106
  24	1	3	-0.024709	-5.4261	40.1497	-15.7079
  25	1	3	-0.076489	-6.73258	40.6502	-15.9709
  26	1	3	-0.052344	-6.92956	41.5131	-17.0562
  27	1	3	-0.054202	-4.36895	40.5795	-16.5622
  28	1	3	-0.149083	-4.59123	41.4397	-17.657
  29	1	3	-0.063027	-5.89648	41.8835	-17.8875
  30	1	2	0.499526	-6.45759	42.7156	-18.9861
  31	1	1	-0.036881	-7.82717	42.7853	-18.7466
  32	1	2	0.443545	-8.18385	42.1161	-17.5793
  33	1	3	0.038197	-8.76058	43.4051	-19.63
  34	1	3	-0.408621	-8.67866	43.1787	-21.0176
  35	1	3	0.252781	-9.60504	43.7656	-21.8943
  36	1	3	-0.169778	-9.79691	44.2227	-19.1368
  37	1	3	-0.113042	-10.7253	44.8132	-20.0135
  38	1	3	0.016958	-10.6232	44.5995	-21.3967
  39	1	6	0.167832	-3.77935	41.7358	-18.3189
  40	1	6	0.134138	-3.35392	40.2367	-16.3816
  41	1	6	0.145229	-7.60385	40.3733	-15.3877
  42	1	5	-0.462312	-9.28354	42.0297	-17.0591
  43	1	5	-0.483102	-5.82548	43.1853	-19.9175
  44	1	6	0.144532	-11.5267	45.4359	-19.6252
  45	1	6	0.226042	-7.89265	42.5547	-21.4335
  46	1	3	0.12103	-11.3872	45.3852	-23.5818
  47	1	3	-0.09864	-12.4651	45.1334	-24.4458
  48	1	3	-0.194398	-12.3285	45.3481	-25.829
  49	1	3	-0.091961	-11.1127	45.8232	-26.3489
  50	1	3	-0.197799	-10.0381	46.0936	-25.485
  51	1	3	-0.102777	-10.1772	45.8829	-24.1016
  52	1	6	0.132074	-11.0064	45.9899	-27.4184
  53	1	6	0.154044	-9.10124	46.4727	-25.8856
  54	1	6	0.145155	-13.4035	44.7696	-24.0377
  55	1	6	0.14558	-9.35276	46.1124	-23.4331
  56	1	9	-0.24014	-11.5585	45.1798	-22.2296
  57	1	6	0.152938	-9.89388	44.3956	-18.0683
  58	1	6	0.151751	-13.1638	45.1487	-26.4954
  59	1	1	0.48116	-12.7643	42.6362	-6.72318
  60	1	2	0.034009	-12.32	43.3286	-7.85608
  61	1	3	0.028921	-12.6573	42.4536	-9.00294
  62	1	2	0.071556	-13.4468	41.4586	-7.05878
  63	1	3	0.025276	-13.3315	41.3479	-8.5344
  64	1	5	-0.381907	-11.7418	44.402	-7.92591
  65	1	5	-0.393799	-13.9854	40.6507	-6.31731
  66	1	3	-0.008998	-12.282	42.5704	-10.3421
  67	1	3	-0.064503	-13.7094	40.3137	-9.39416
  68	1	3	-0.16756	-13.3284	40.4036	-10.7503
  69	1	3	-0.085161	-12.5688	41.5065	-11.2379
  70	1	6	0.158939	-11.6945	43.4327	-10.6472
  71	1	6	0.163781	-14.2366	39.4437	-9.00831
  72	1	6	0.161401	-13.5961	39.5743	-11.3969
  73	1	7	-0.078003	-11.9491	41.5591	-12.6686
  74	1	7	0.303704	-11.9785	40.1813	-13.4319
  75	1	8	-0.1084	-11.4512	39.1826	-12.6871
  76	1	8	-0.101508	-11.2409	40.221	-14.5651
  77	1	8	-0.111714	-13.2261	39.8046	-13.7919
  78	1	7	0.380371	-12.771	42.6317	-13.4809
  79	1	8	-0.124028	-14.1028	42.4373	-13.3464
  80	1	8	-0.119704	-12.5136	42.6214	-14.8076
  81	1	8	-0.115877	-12.5235	43.8874	-13.0443
  82	1	3	-0.024709	-10.4449	41.9214	-12.495
  83	1	3	-0.076489	-9.73416	41.3578	-11.4036
  84	1	3	-0.052344	-8.40512	41.7248	-11.1906
  85	1	3	-0.054202	-9.73699	42.7749	-13.3894
  86	1	3	-0.149083	-8.38226	43.109	-13.1716
  87	1	3	-0.063027	-7.7429	42.5787	-12.044
  88	1	2	0.499526	-6.33699	42.7008	-11.5679
  89	1	1	-0.036881	-6.24969	41.8912	-10.438
  90	1	2	0.443545	-7.46169	41.2845	-10.1349
  91	1	3	0.038197	-5.0566	41.672	-9.69375
  92	1	3	-0.408621	-4.23059	42.7513	-9.33303
  93	1	3	0.252781	-3.03773	42.5289	-8.62734
  94	1	3	-0.169778	-4.68827	40.3684	-9.30525
  95	1	3	-0.113042	-3.5024	40.1412	-8.58775
  96	1	3	0.016958	-2.66189	41.2232	-8.2698
  97	1	6	0.167832	-7.84508	43.7583	-13.8595
  98	1	6	0.134138	-10.2226	43.1856	-14.2688
  99	1	6	0.145229	-10.2017	40.6571	-10.715
 100	1	5	-0.462312	-7.72357	40.5374	-9.20755
 101	1	5	-0.483102	-5.45451	43.3469	-12.1097
 102	1	6	0.144532	-3.22482	39.1267	-8.31074
 103	1	6	0.226042	-4.48678	43.7672	-9.61908
 104	1	3	0.12103	-0.661511	39.8918	-7.83864
 105	1	3	-0.09864	-0.424249	39.1446	-6.67442
 106	1	3	-0.194398	0.427699	38.0332	-6.70623
 107	1	3	-0.091961	1.04856	37.6796	-7.90998
 108	1	3	-0.197799	0.836939	38.4523	-9.06368
 109	1	3	-0.102777	0.0166777	39.6086	-9.05297
 110	1	6	0.132074	1.68729	36.8001	-7.95312
 111	1	6	0.154044	1.30654	38.1327	-9.99258
 112	1	6	0.145155	-0.907296	39.4376	-5.74621
 113	1	6	0.14558	0.661529	40.4595	-9.24287
 114	1	9	-0.24014	-1.42702	41.028	-7.69172
 115	1	6	0.152938	-5.31981	39.5217	-9.56519
 116	1	6	0.151751	0.599204	37.4466	-5.80722
 117	1	1	0.48116	1.3044	33.5473	2.10382
 118	1	2	0.034009	1.09803	34.8476	2.59128
 119	1	3	0.028921	0.608749	35.6413	1.43528
 120	1	2	0.071556	0.978806	33.4489	0.741294
 121	1	3	0.025276	0.531372	34.807	0.342502
 122	1	5	-0.381907	1.33943	35.2866	3.70497
 123	1	5	-0.393799	1.10574	32.5032	-0.0207944
 124	1	3	-0.008998	0.287064	37.0023	1.34991
 125	1	3	-0.064503	0.120819	35.284	-0.903477
 126	1	3	-0.16756	-0.233989	36.6444	-1.00678
 127	1	3	-0.085161	-0.166609	37.528	0.107827
 128	1	6	0.158939	0.386934	37.6058	2.24559
 129	1	6	0.163781	0.0741669	34.6144	-1.75965
 130	1	6	0.161401	-0.579754	37.0112	-1.9703
 131	1	7	-0.078003	-0.621343	39.01	-0.085411
 132	1	7	0.303704	-0.768454	39.8072	1.26731
 133	1	8	-0.1084	-1.5687	39.161	2.14568
 134	1	8	-0.101508	-1.33776	41.02	1.08067
 135	1	8	-0.111714	0.416995	40.0227	1.88087
 136	1	7	0.380371	0.467995	39.7156	-0.986289
 137	1	8	-0.124028	1.71808	39.4476	-0.544723
 138	1	8	-0.119704	0.357944	41.0628	-1.02024
 139	1	8	-0.115877	0.416344	39.2927	-2.26989
 140	1	3	-0.024709	-2.0397	38.9905	-0.726128
 141	1	3	-0.076489	-2.47737	39.9655	-1.66408
 142	1	3	-0.052344	-3.79702	39.906	-2.13725
 143	1	3	-0.054202	-2.97261	38.0051	-0.293544
 144	1	3	-0.149083	-4.29	37.9601	-0.784539
 145	1	3	-0.063027	-4.6745	38.9321	-1.70997
 146	1	2	0.499526	-6.00102	39.1891	-2.32419
 147	1	1	-0.036881	-5.84569	40.3418	-3.0836
 148	1	2	0.443545	-4.53992	40.8215	-3.04831
 149	1	3	0.038197	-6.92448	40.9895	-3.74806
 150	1	3	-0.408621	-8.11974	41.2482	-3.05092
 151	1	3	0.252781	-9.20455	41.8568	-3.69825
 152	1	3	-0.169778	-6.82728	41.3599	-5.10327
 153	1	3	-0.113042	-7.91494	41.97	-5.7548
 154	1	3	0.016958	-9.10153	42.2297	-5.04978
 155	1	6	0.167832	-5.00134	37.2146	-0.433718
 156	1	6	0.134138	-2.68495	37.271	0.45429
 157	1	6	0.145229	-1.83986	40.7758	-2.0034
 158	1	5	-0.462312	-4.08528	41.8122	-3.5935
 159	1	5	-0.483102	-7.01468	38.5412	-2.12289
 160	1	6	0.144532	-7.84227	42.2355	-6.8065
 161	1	6	0.226042	-8.23115	40.9473	-2.01375
 162	1	3	0.12103	-11.2016	43.4686	-5.10361
 163	1	3	-0.09864	-10.9194	44.5226	-4.21692
 164	1	3	-0.194398	-11.967	45.2334	-3.61348
 165	1	3	-0.091961	-13.2934	44.9105	-3.93033
 166	1	3	-0.197799	-13.5656	43.8677	-4.83083
 167	1	3	-0.102777	-12.5299	43.0748	-5.3785
 168	1	6	0.132074	-14.1107	45.482	-3.49518
 169	1	6	0.154044	-14.6024	43.6486	-5.08213
 170	1	6	0.145155	-9.88748	44.7991	-4.01836
 171	1	6	0.14558	-12.6245	42.0961	-4.92164
 172	1	9	-0.24014	-10.1661	42.7943	-5.71674
 173	1	6	0.152938	-5.91276	41.1667	-5.65978
 174	1	6	0.151751	-11.7515	46.0525	-2.93165
 175	1	1	0.48116	-2.09953	15.3118	9.50824
 176	1	2	0.034009	-2.1427	16.4585	10.3146
 177	1	3	0.028921	-2.47492	17.58	9.40292
 178	1	2	0.071556	-2.38182	15.6105	8.16566
 179	1	3	0.025276	-2.6269	17.0773	8.1303
 180	1	5	-0.381907	-1.87651	16.5616	11.5021
 181	1	5	-0.393799	-2.34098	14.8796	7.18831
 182	1	3	-0.008998	-2.59047	18.9468	9.67831
 183	1	3	-0.064503	-2.92872	17.9199	7.05663
 184	1	3	-0.16756	-3.06465	19.3018	7.3136
 185	1	3	-0.085161	-2.87617	19.8476	8.6154
 186	1	6	0.158939	-2.45339	19.2666	10.7048
 187	1	6	0.163781	-3.0529	17.5112	6.05601
 188	1	6	0.161401	-3.31464	19.9589	6.48331
 189	1	7	-0.078003	-3.0551	21.3846	8.83582
 190	1	7	0.303704	-4.61086	21.642	8.84172
 191	1	8	-0.1084	-5.13081	21.5521	7.59674
 192	1	8	-0.101508	-4.96207	22.8511	9.33392
 193	1	8	-0.111714	-5.26169	20.7279	9.59724
 194	1	7	0.380371	-2.43062	21.8953	10.1912
 195	1	8	-0.124028	-3.11297	21.4795	11.2819
 196	1	8	-0.119704	-2.39381	23.2458	10.2603
 197	1	8	-0.115877	-1.15036	21.48	10.3276
 198	1	3	-0.024709	-2.31456	22.1738	7.71301
 199	1	3	-0.076489	-2.76154	23.4496	7.27195
 200	1	3	-0.052344	-1.98737	24.1654	6.34944
 201	1	3	-0.054202	-1.0807	21.6833	7.19804
 202	1	3	-0.149083	-0.32524	22.4113	6.25578
 203	1	3	-0.063027	-0.806161	23.6612	5.85154
 204	1	2	0.499526	-0.184476	24.7006	4.98772
 205	1	1	-0.036881	-1.02967	25.8053	5.05402
 206	1	2	0.443545	-2.1576	25.549	5.82685
 207	1	3	0.038197	-0.72012	27.0803	4.49243
 208	1	3	-0.408621	0.563922	27.6279	4.66736
 209	1	3	0.252781	0.883569	28.8823	4.12883
 210	1	3	-0.169778	-1.68534	27.8287	3.78762
 211	1	3	-0.113042	-1.36287	29.0865	3.23907
 212	1	3	0.016958	-0.0683007	29.6106	3.39018
 213	1	6	0.167832	0.628406	22.039	5.88599
 214	1	6	0.134138	-0.679878	20.7377	7.5538
 215	1	6	0.145229	-3.6559	23.9211	7.66437
 216	1	5	-0.462312	-3.07147	26.3078	6.10037
 217	1	5	-0.483102	0.888621	24.5994	4.41651
 218	1	6	0.144532	-2.11057	29.6508	2.68842
 219	1	6	0.226042	1.33204	27.0808	5.20601
 220	1	3	0.12103	1.54878	31.2145	2.53792
 221	1	3	-0.09864	2.44475	30.2929	1.96176
 222	1	3	-0.194398	3.80334	30.6127	1.83695
 223	1	3	-0.091961	4.26569	31.8441	2.31611
 224	1	3	-0.197799	3.35783	32.7702	2.85363
 225	1	3	-0.102777	1.96344	32.5241	2.87013
 226	1	6	0.132074	5.32579	32.0835	2.26807
 227	1	6	0.154044	3.73801	33.7242	3.21829
 228	1	6	0.145155	2.08791	29.3183	1.63996
 229	1	6	0.14558	1.51452	32.8185	3.81355
 230	1	9	-0.24014	0.250729	30.8297	2.81545
 231	1	6	0.152938	-2.69184	27.4361	3.66347
 232	1	6	0.151751	4.49776	29.8936	1.40913
 233	1	1	0.48116	-6.93849	-1.70956	10.3048
 234	1	2	0.034009	-6.5573	-0.374993	10.5164
 235	1	3	0.028921	-7.551	0.176263	11.4702
 236	1	2	0.071556	-8.0758	-2.05026	11.0528
 237	1	3	0.025276	-8.45841	-0.813156	11.776
 238	1	5	-0.381907	-5.62951	0.251629	10.0285
 239	1	5	-0.393799	-8.64935	-3.12611	11.1274
 240	1	3	-0.008998	-7.64323	1.45684	12.0268
 241	1	3	-0.064503	-9.5254	-0.572642	12.6429
 242	1	3	-0.16756	-9.65028	0.716969	13.2
 243	1	3	-0.085161	-8.7217	1.75623	12.9013
 244	1	6	0.158939	-6.88322	2.19431	11.7806
 245	1	6	0.163781	-10.2317	-1.36594	12.8789
 246	1	6	0.161401	-10.4758	0.880004	13.8837
 247	1	7	-0.078003	-8.79896	3.163	13.5691
 248	1	7	0.303704	-10.2542	3.56559	14.0258
 249	1	8	-0.1084	-11.1596	3.35434	13.0438
 250	1	8	-0.101508	-10.3315	4.87976	14.3375
 251	1	8	-0.111714	-10.6862	2.89479	15.1173
 252	1	7	0.380371	-7.85702	3.09131	14.8319
 253	1	8	-0.124028	-8.1156	2.00184	15.591
 254	1	8	-0.119704	-7.9749	4.16071	15.6511
 255	1	8	-0.115877	-6.55663	2.9958	14.4718
 256	1	3	-0.024709	-8.36677	4.24509	12.5323
 257	1	3	-0.076489	-7.51608	5.33192	12.8686
 258	1	3	-0.052344	-7.21362	6.28832	11.8924
 259	1	3	-0.054202	-8.8925	4.19273	11.2093
 260	1	3	-0.149083	-8.5686	5.16419	10.2383
 261	1	3	-0.063027	-7.71751	6.20983	10.6134
 262	1	2	0.499526	-7.20604	7.3772	9.84159
 263	1	1	-0.036881	-6.41033	8.10054	10.7271
 264	1	2	0.443545	-6.3712	7.50795	11.9866
 265	1	3	0.038197	-5.70058	9.2925	10.3853
 266	1	3	-0.408621	-4.38077	9.48599	10.836
 267	1	3	0.252781	-3.68084	10.6587	10.5152
 268	1	3	-0.169778	-6.30036	10.2994	9.60045
 269	1	3	-0.113042	-5.59258	11.4687	9.26206
 270	1	3	0.016958	-4.27395	11.6477	9.70795
 271	1	6	0.167832	-8.97343	5.11394	9.22902
 272	1	6	0.134138	-9.56792	3.38798	10.9287
 273	1	6	0.145229	-7.09437	5.46549	13.8588
 274	1	5	-0.462312	-5.77571	7.87979	12.9837
 275	1	5	-0.483102	-7.44756	7.6181	8.67075
 276	1	6	0.144532	-6.05987	12.2333	8.647
 277	1	6	0.226042	-3.8923	8.74275	11.4594
 278	1	3	0.12103	-2.21765	12.9113	9.37793
 279	1	3	-0.09864	-1.42423	11.8738	8.85143
 280	1	3	-0.194398	-0.0297367	11.9103	8.98779
 281	1	3	-0.091961	0.569004	12.9884	9.65023
 282	1	3	-0.197799	-0.225389	14.0353	10.1431
 283	1	3	-0.102777	-1.63372	14.0408	9.99339
 284	1	6	0.132074	1.64932	13.0186	9.77487
 285	1	6	0.154044	0.264359	14.8663	10.65
 286	1	6	0.145155	-1.89601	11.0307	8.35411
 287	1	6	0.14558	-2.10674	14.1614	10.9627
 288	1	9	-0.24014	-3.59365	12.8002	9.3599
 289	1	6	0.152938	-7.31892	10.1755	9.2405
 290	1	6	0.151751	0.580836	11.1005	8.59552
 291	1	1	0.48116	-20.325	-7.27165	0.342292
 292	1	2	0.034009	-19.7206	-6.15162	-0.242455
 293	1	3	0.028921	-18.2641	-6.41894	-0.199931
 294	1	2	0.071556	-19.3775	-8.19125	0.812963
 295	1	3	0.025276	-18.0589	-7.63679	0.411195
 296	1	5	-0.381907	-20.2497	-5.14234	-0.681702
 297	1	5	-0.393799	-19.5504	-9.19727	1.48215
 298	1	3	-0.008998	-17.2077	-5.65513	-0.703448
 299	1	3	-0.064503	-16.775	-8.17584	0.530291
 300	1	3	-0.16756	-15.6953	-7.42735	0.0183031
 301	1	3	-0.085161	-15.8836	-6.15322	-0.586715
 302	1	6	0.158939	-17.4429	-4.71706	-1.19405
 303	1	6	0.163781	-16.6214	-9.15935	0.971315
 304	1	6	0.161401	-14.7031	-7.86859	0.0694309
 305	1	7	-0.078003	-14.663	-5.40718	-1.19485
 306	1	7	0.303704	-14.4525	-6.01879	-2.63271
 307	1	8	-0.1084	-15.6037	-6.03891	-3.34372
 308	1	8	-0.101508	-14.0287	-7.30201	-2.574
 309	1	8	-0.111714	-13.5579	-5.32773	-3.37539
 310	1	7	0.380371	-14.8828	-3.8474	-1.32135
 311	1	8	-0.124028	-13.7161	-3.19875	-1.54195
 312	1	8	-0.119704	-15.402	-3.31875	-0.189833
 313	1	8	-0.115877	-15.7089	-3.49479	-2.33205
 314	1	3	-0.024709	-13.4399	-5.58855	-0.245909
 315	1	3	-0.076489	-13.6015	-5.30767	1.13718
 316	1	3	-0.052344	-12.4801	-5.3281	1.97705
 317	1	3	-0.054202	-12.1357	-5.91563	-0.718677
 318	1	3	-0.149083	-11.0233	-5.94582	0.145315
 319	1	3	-0.063027	-11.2274	-5.6332	1.4926
 320	1	2	0.499526	-10.2441	-5.43003	2.58659
 321	1	1	-0.036881	-10.9734	-4.97332	3.6772
 322	1	2	0.443545	-12.337	-4.91971	3.40272
 323	1	3	0.038197	-10.362	-4.47972	4.86739
 324	1	3	-0.408621	-9.29119	-5.17234	5.46605
 325	1	3	0.252781	-8.60056	-4.61552	6.55522
 326	1	3	-0.169778	-10.7536	-3.23739	5.40445
 327	1	3	-0.113042	-10.0708	-2.68138	6.49955
 328	1	3	0.016958	-8.97647	-3.3562	7.05843
 329	1	6	0.167832	-10.0217	-6.14729	-0.23192
 330	1	6	0.134138	-11.9485	-6.10863	-1.76907
 331	1	6	0.145229	-14.5679	-5.02071	1.54551
 332	1	5	-0.462312	-13.2373	-4.52979	4.12709
 333	1	5	-0.483102	-9.03661	-5.54134	2.4816
 334	1	6	0.144532	-10.3623	-1.71117	6.892
 335	1	6	0.226042	-8.94731	-6.11802	5.05668
 336	1	3	0.12103	-6.89467	-2.66749	8.13231
 337	1	3	-0.09864	-6.14346	-2.62019	6.94157
 338	1	3	-0.194398	-4.74651	-2.52613	6.98951
 339	1	3	-0.091961	-4.10134	-2.47368	8.23037
 340	1	3	-0.197799	-4.85447	-2.51237	9.41442
 341	1	3	-0.102777	-6.26868	-2.60381	9.39869
 342	1	6	0.132074	-3.01845	-2.37928	8.27564
 343	1	6	0.154044	-4.32992	-2.42284	10.3644
 344	1	6	0.145155	-6.64382	-2.64099	5.97728
 345	1	6	0.14558	-6.54407	-3.49978	9.94432
 346	1	9	-0.24014	-8.27212	-2.74968	8.07536
 347	1	6	0.152938	-11.571	-2.67991	4.95364
 348	1	6	0.151751	-4.16812	-2.48018	6.06966
 349	1	1	0.48116	-17.8211	-18.2744	6.43036
 350	1	2	0.034009	-17.8095	-18.1992	5.03117
 351	1	3	0.028921	-18.9104	-19.0893	4.58111
 352	1	2	0.071556	-18.8704	-19.0737	6.90469
 353	1	3	0.025276	-19.546	-19.5978	5.69247
 354	1	5	-0.381907	-17.0612	-17.5657	4.30284
 355	1	5	-0.393799	-19.1945	-19.2981	8.06093
 356	1	3	-0.008998	-19.302	-19.4466	3.2869
 357	1	3	-0.064503	-20.6258	-20.4756	5.57226
 358	1	3	-0.16756	-21.0495	-20.8352	4.27537
 359	1	3	-0.085161	-20.4035	-20.3281	3.11152
 360	1	6	0.158939	-18.7491	-19.0434	2.44209
 361	1	6	0.163781	-21.1121	-20.8729	6.46111
 362	1	6	0.161401	-21.88	-21.5288	4.1974
 363	1	7	-0.078003	-20.8144	-20.7581	1.67026
 364	1	7	0.303704	-22.3127	-21.2407	1.55043
 365	1	8	-0.1084	-23.1677	-20.3877	2.15864
 366	1	8	-0.101508	-22.5337	-22.4637	2.08289
 367	1	8	-0.111714	-22.7054	-21.313	0.257918
 368	1	7	0.380371	-19.8521	-21.9437	1.27858
 369	1	8	-0.124028	-19.8379	-22.9118	2.22399
 370	1	8	-0.119704	-20.1947	-22.5433	0.115924
 371	1	8	-0.115877	-18.5722	-21.5239	1.15747
 372	1	3	-0.024709	-20.6858	-19.5121	0.744091
 373	1	3	-0.076489	-21.2626	-18.2918	1.17818
 374	1	3	-0.052344	-21.1231	-17.15	0.384266
 375	1	3	-0.054202	-20.0234	-19.5305	-0.518612
 376	1	3	-0.149083	-19.8907	-18.3634	-1.30136
 377	1	3	-0.063027	-20.4462	-17.1754	-0.814221
 378	1	2	0.499526	-20.4368	-15.7938	-1.37028
 379	1	1	-0.036881	-21.1188	-15.0104	-0.443659
 380	1	2	0.443545	-21.5818	-15.7623	0.632315
 381	1	3	0.038197	-21.282	-13.5981	-0.547879
 382	1	3	-0.408621	-21.0809	-12.7863	0.583103
 383	1	3	0.252781	-21.2508	-11.3978	0.504554
 384	1	3	-0.169778	-21.639	-12.9878	-1.76785
 385	1	3	-0.113042	-21.8033	-11.592	-1.85144
 386	1	3	0.016958	-21.6217	-10.7949	-0.710393
 387	1	6	0.167832	-19.3644	-18.3772	-2.25395
 388	1	6	0.134138	-19.5899	-20.4427	-0.911867
 389	1	6	0.145229	-21.7896	-18.218	2.12721
 390	1	5	-0.462312	-22.2219	-15.3927	1.60239
 391	1	5	-0.483102	-19.9061	-15.4461	-2.41224
 392	1	6	0.144532	-22.0819	-11.128	-2.79361
 393	1	6	0.226042	-20.7997	-13.219	1.53881
 394	1	3	0.12103	-22.2916	-8.67879	0.256871
 395	1	3	-0.09864	-23.4311	-9.12751	0.950965
 396	1	3	-0.194398	-23.9871	-8.34993	1.97589
 397	1	3	-0.091961	-23.3928	-7.12741	2.31234
 398	1	3	-0.197799	-22.2665	-6.67848	1.60428
 399	1	3	-0.102777	-21.7456	-7.39894	0.502704
 400	1	6	0.132074	-23.8007	-6.52956	3.12463
 401	1	6	0.154044	-21.8177	-5.72688	1.88651
 402	1	6	0.145155	-23.8833	-10.0808	0.690751
 403	1	6	0.14558	-22.0023	-6.8289	-0.383894
 404	1	9	-0.24014	-21.8065	-9.43006	-0.794066
 405	1	6	0.152938	-21.7873	-13.5941	-2.6581
 406	1	6	0.151751	-24.8624	-8.70223	2.51639
 407	1	1	0.48116	-18.894	-28.4413	-2.08532
 408	1	2	0.034009	-18.1131	-29.2414	-1.23624
 409	1	3	0.028921	-18.5876	-28.9481	0.137916
 410	1	2	0.071556	-19.8132	-27.6631	-1.36476
 411	1	3	0.025276	-19.5802	-27.9961	0.0620435
 412	1	5	-0.381907	-17.2224	-30.028	-1.51775
 413	1	5	-0.393799	-20.6735	-26.9057	-1.78777
 414	1	3	-0.008998	-18.1777	-29.4961	1.35922
 415	1	3	-0.064503	-20.2038	-27.509	1.21145
 416	1	3	-0.16756	-19.797	-28.0352	2.45423
 417	1	3	-0.085161	-18.7866	-29.0345	2.5571
 418	1	6	0.158939	-17.4081	-30.2604	1.34432
 419	1	6	0.163781	-20.9789	-26.7492	1.13827
 420	1	6	0.161401	-20.2831	-27.6594	3.35161
 421	1	7	-0.078003	-18.4199	-29.5878	3.96795
 422	1	7	0.303704	-19.5891	-30.5647	4.37859
 423	1	8	-0.1084	-20.7555	-29.9076	4.56989
 424	1	8	-0.101508	-19.3347	-31.2572	5.51187
 425	1	8	-0.111714	-19.8327	-31.4818	3.41474
 426	1	7	0.380371	-17.0536	-30.3761	4.01367
 427	1	8	-0.124028	-16.6699	-30.6314	5.28525
 428	1	8	-0.119704	-16.0448	-29.6723	3.45242
 429	1	8	-0.115877	-17.1021	-31.5689	3.37831
 430	1	3	-0.024709	-18.2617	-28.3631	4.91629
 431	1	3	-0.076489	-17.5043	-27.253	4.46279
 432	1	3	-0.052344	-17.4089	-26.1153	5.26988
 433	1	3	-0.054202	-18.8527	-28.2885	6.21125
 434	1	3	-0.149083	-18.7458	-27.1274	7.00665
 435	1	3	-0.063027	-18.0244	-26.0418	6.49755
 436	1	2	0.499526	-17.774	-24.6865	7.06105
 437	1	1	-0.036881	-16.9973	-24.0151	6.11593
 438	1	2	0.443545	-16.7252	-24.8252	5.0134
 439	1	3	0.038197	-16.5146	-22.6739	6.25711
 440	1	3	-0.408621	-16.1364	-22.1657	7.51809
 441	1	3	0.252781	-15.6094	-20.8698	7.64649
 442	1	3	-0.169778	-16.3564	-21.8447	5.12611
 443	1	3	-0.113042	-15.7926	-20.5655	5.24352
 444	1	3	0.016958	-15.4421	-20.0678	6.50543
 445	1	6	0.167832	-19.219	-27.0675	7.98493
 446	1	6	0.134138	-19.4204	-29.1178	6.61731
 447	1	6	0.145229	-17.0211	-27.2536	3.48804
 448	1	5	-0.462312	-16.0608	-24.5723	4.02338
 449	1	5	-0.483102	-18.2117	-24.2739	8.12215
 450	1	6	0.144532	-15.6359	-19.9526	4.35835
 451	1	6	0.226042	-16.243	-22.7681	8.41645
 452	1	3	0.12103	-15.5294	-17.6385	6.92954
 453	1	3	-0.09864	-14.7033	-16.5061	7.02038
 454	1	3	-0.194398	-15.2234	-15.2701	7.42605
 455	1	3	-0.091961	-16.5832	-15.1678	7.74074
 456	1	3	-0.197799	-17.4082	-16.3006	7.65749
 457	1	3	-0.102777	-16.904	-17.57	7.28312
 458	1	6	0.132074	-17.0018	-14.2098	8.04249
 459	1	6	0.154044	-18.4655	-16.1913	7.89769
 460	1	6	0.145155	-13.6486	-16.597	6.77583
 461	1	6	0.14558	-17.0211	-18.2373	8.12933
 462	1	9	-0.24014	-14.8831	-18.8148	6.59425
 463	1	6	0.152938	-16.6383	-22.196	4.13647
 464	1	6	0.151751	-14.5769	-14.3981	7.49294
 465	1	1	0.48116	-6.27109	-16.3923	-0.869056
 466	1	2	0.034009	-7.24553	-17.3988	-0.992172
 467	1	3	0.028921	-8.41115	-16.9378	-0.194746
 468	1	2	0.071556	-6.6985	-15.3556	-0.0253712
 469	1	3	0.025276	-8.08402	-15.7238	0.370118
 470	1	5	-0.381907	-7.2255	-18.3893	-1.70738
 471	1	5	-0.393799	-6.16428	-14.2816	0.210979
 472	1	3	-0.008998	-9.68138	-17.5148	-0.0293251
 473	1	3	-0.064503	-9.0179	-15.0067	1.11814
 474	1	3	-0.16756	-10.301	-15.563	1.28936
 475	1	3	-0.085161	-10.667	-16.8166	0.720192
 476	1	6	0.158939	-9.88222	-18.4869	-0.471771
 477	1	6	0.163781	-8.75955	-14.0416	1.55163
 478	1	6	0.161401	-10.9964	-15.0022	1.90454
 479	1	7	-0.078003	-12.0566	-17.4628	1.0244
 480	1	7	0.303704	-11.877	-18.2192	2.39359
 481	1	8	-0.1084	-13.0413	-18.6521	2.9284
 482	1	8	-0.101508	-11.3017	-17.4411	3.33796
 483	1	8	-0.111714	-11.0673	-19.2899	2.24535
 484	1	7	0.380371	-13.2144	-16.3955	1.17016
 485	1	8	-0.124028	-13.2036	-15.726	2.34479
 486	1	8	-0.119704	-14.4368	-16.9706	1.08533
 487	1	8	-0.115877	-13.16	-15.4652	0.189087
 488	1	3	-0.024709	-12.5079	-18.4066	-0.137279
 489	1	3	-0.076489	-13.0834	-19.6855	0.100615
 490	1	3	-0.052344	-13.6327	-20.4021	-0.967458
 491	1	3	-0.054202	-12.4977	-17.924	-1.47711
 492	1	3	-0.149083	-13.0548	-18.6661	-2.54348
 493	1	3	-0.063027	-13.633	-19.9088	-2.25376
 494	1	2	0.499526	-14.394	-20.8639	-3.11285
 495	1	1	-0.036881	-14.822	-21.874	-2.25862
 496	1	2	0.443545	-14.3844	-21.6834	-0.956508
 497	1	3	0.038197	-15.6862	-22.9378	-2.63391
 498	1	3	-0.408621	-17.0287	-22.6742	-2.95749
 499	1	3	0.252781	-17.9035	-23.7296	-3.2641
 500	1	3	-0.169778	-15.2315	-24.2695	-2.61471
 501	1	3	-0.113042	-16.1046	-25.3288	-2.92338
 502	1	3	0.016958	-17.444	-25.0575	-3.26182
 503	1	6	0.167832	-13.0775	-18.2685	-3.5565
 504	1	6	0.134138	-12.0935	-16.9374	-1.68932
 505	1	6	0.145229	-13.1707	-20.1221	1.08882
 506	1	5	-0.462312	-14.6263	-22.3658	0.023245
 507	1	5	-0.483102	-14.6461	-20.726	-4.29785
 508	1	6	0.144532	-15.7453	-26.3535	-2.88044
 509	1	6	0.226042	-17.4041	-21.6569	-2.96679
 510	1	3	0.12103	-18.0525	-27.3167	-4.01327
 511	1	3	-0.09864	-17.1601	-27.4378	-5.09419
 512	1	3	-0.194398	-16.8967	-28.6945	-5.65538
 513	1	3	-0.091961	-17.5512	-29.8241	-5.15008
 514	1	3	-0.197799	-18.4781	-29.6886	-4.1046
 515	1	3	-0.102777	-18.7694	-28.4307	-3.51935
 516	1	6	0.132074	-17.3358	-30.8078	-5.56172
 517	1	6	0.154044	-18.9494	-30.5883	-3.71152
 518	1	6	0.145155	-16.6728	-26.553	-5.49467
 519	1	6	0.14558	-19.8214	-28.2298	-3.69261
 520	1	9	-0.24014	-18.3493	-26.0653	-3.51922
 521	1	6	0.152938	-14.2027	-24.487	-2.33878
 522	1	6	0.151751	-16.1878	-28.7928	-6.4739
 523	1	1	0.48116	-4.53274	-25.5928	9.86103
 524	1	2	0.034009	-3.56785	-24.6552	9.44678
 525	1	3	0.028921	-3.07778	-25.1238	8.12272
 526	1	2	0.071556	-4.76603	-26.5557	8.86616
 527	1	3	0.025276	-3.81037	-26.2363	7.77786
 528	1	5	-0.381907	-3.11443	-23.7098	10.0729
 529	1	5	-0.393799	-5.46392	-27.5569	8.89702
 530	1	3	-0.008998	-1.95212	-24.7236	7.38111
 531	1	3	-0.064503	-3.49619	-26.982	6.64518
 532	1	3	-0.16756	-2.36051	-26.6116	5.90035
 533	1	3	-0.085161	-1.53656	-25.5016	6.26312
 534	1	6	0.158939	-1.35885	-23.8937	7.74932
 535	1	6	0.163781	-4.0658	-27.8774	6.40407
 536	1	6	0.161401	-2.10757	-27.2708	5.0794
 537	1	7	-0.078003	-0.121974	-25.2784	5.61973
 538	1	7	0.303704	0.939965	-25.8748	6.63685
 539	1	8	-0.1084	2.20734	-25.6555	6.22108
 540	1	8	-0.101508	0.802634	-27.2044	6.837
 541	1	8	-0.111714	0.841609	-25.3683	7.88442
 542	1	7	0.380371	0.0536366	-26.0903	4.25266
 543	1	8	-0.124028	0.145047	-27.4324	4.38701
 544	1	8	-0.119704	1.17805	-25.7331	3.58999
 545	1	8	-0.115877	-0.984691	-25.9083	3.4027
 546	1	3	-0.024709	0.174902	-23.7464	5.34601
 547	1	3	-0.076489	-0.00800935	-23.1872	4.05136
 548	1	3	-0.052344	0.426533	-21.8909	3.77033
 549	1	3	-0.054202	0.706292	-22.8551	6.33394
 550	1	3	-0.149083	1.07007	-21.5168	6.04488
 551	1	3	-0.063027	0.94202	-21.0583	4.72912
 552	1	2	0.499526	1.09143	-19.6969	4.12239
 553	1	1	-0.036881	0.570521	-19.804	2.83056
 554	1	2	0.443545	0.259722	-21.1272	2.51913
 555	1	3	0.038197	-0.128148	-18.7433	2.16859
 556	1	3	-0.408621	-0.950336	-17.4605	3.17463
 557	1	3	0.252781	-2.2128	-16.4224	2.45402
 558	1	3	-0.169778	-0.632534	-18.9724	0.459053
 559	1	3	-0.113042	-1.89868	-17.9161	-0.264466
 560	1	3	0.016958	-2.67755	-16.6325	0.732388
 561	1	6	0.167832	1.42723	-20.8501	6.82729
 562	1	6	0.134138	0.841645	-23.1657	7.35985
 563	1	6	0.145229	-0.462492	-23.7199	3.22854
 564	1	5	-0.462312	-0.304013	-21.5711	1.53277
 565	1	5	-0.483102	1.45307	-18.6898	4.71042
 566	1	6	0.144532	-2.2112	-18.0697	-1.29494
 567	1	6	0.226042	-0.722345	-17.3549	4.23432
 568	1	3	0.12103	-3.91778	-15.7653	-1.16116
 569	1	3	-0.09864	-2.94283	-15.2079	-2.00702
 570	1	3	-0.194398	-3.15052	-15.1545	-3.39293
 571	1	3	-0.091961	-4.36468	-15.6063	-3.9231
 572	1	3	-0.197799	-5.34063	-16.1436	-3.07004
 573	1	3	-0.102777	-5.09122	-16.3588	-1.69223
 574	1	6	0.132074	-4.5571	-15.5284	-4.99153
 575	1	6	0.154044	-6.27967	-16.4823	-3.5047
 576	1	6	0.145155	-2.03021	-14.8062	-1.57792
 577	1	6	0.14558	-4.89206	-17.4204	-1.63465
 578	1	9	-0.24014	-3.64685	-15.8164	0.188941
 579	1	6	0.152938	-0.199591	-19.7723	-0.137118
 580	1	6	0.151751	-2.39306	-14.7308	-4.04774
 581	1	1	0.48116	-11.5865	-10.0632	7.41169
 582	1	2	0.034009	-11.4545	-10.3584	8.77624
 583	1	3	0.028921	-11.1391	-11.8112	8.83949
 584	1	2	0.071556	-11.3072	-11.1793	6.61097
 585	1	3	0.025276	-11.0877	-12.3004	7.55307
 586	1	5	-0.381907	-11.6012	-9.62166	9.73861
 587	1	5	-0.393799	-11.2225	-11.2463	5.39531
 588	1	3	-0.008998	-10.985	-12.6519	9.94918
 589	1	3	-0.064503	-10.9454	-13.6655	7.30003
 590	1	3	-0.16756	-10.8464	-14.5341	8.40455
 591	1	3	-0.085161	-10.8205	-14.0498	9.74339
 592	1	6	0.158939	-11.0484	-12.2145	10.9397
 593	1	6	0.163781	-10.9511	-14.0449	6.27962
 594	1	6	0.161401	-10.7959	-15.6002	8.1979
 595	1	7	-0.078003	-10.7423	-15.047	10.9402
 596	1	7	0.303704	-9.88707	-14.4793	12.1401
 597	1	8	-0.1084	-10.5254	-13.5414	12.8735
 598	1	8	-0.101508	-9.53647	-15.4587	13.0053
 599	1	8	-0.111714	-8.73607	-13.9143	11.7105
 600	1	7	0.380371	-12.2275	-15.2849	11.4099
 601	1	8	-0.124028	-12.8877	-14.1275	11.6409
 602	1	8	-0.119704	-12.3091	-15.9992	12.5553
 603	1	8	-0.115877	-12.9417	-15.9324	10.4607
 604	1	3	-0.024709	-10.0287	-16.3618	10.4898
 605	1	3	-0.076489	-10.5484	-17.6607	10.7482
 606	1	3	-0.052344	-9.82691	-18.7803	10.3177
 607	1	3	-0.054202	-8.7674	-16.2665	9.83685
 608	1	3	-0.149083	-8.05303	-17.4091	9.4225
 609	1	3	-0.063027	-8.62353	-18.6564	9.6599
 610	1	2	0.499526	-8.08697	-20.0113	9.39153
 611	1	1	-0.036881	-8.99872	-20.8823	9.96592
 612	1	2	0.443545	-10.0916	-20.2292	10.5204
 613	1	3	0.038197	-8.72744	-22.2592	10.1333
 614	1	3	-0.408621	-8.63313	-23.1162	9.0231
 615	1	3	0.252781	-8.22242	-24.4475	9.19677
 616	1	3	-0.169778	-8.44071	-22.7446	11.4201
 617	1	3	-0.113042	-8.0239	-24.0705	11.5976
 618	1	3	0.016958	-7.89044	-24.9126	10.4801
 619	1	6	0.167832	-7.07721	-17.3499	8.95027
 620	1	6	0.134138	-8.34253	-15.2858	9.64421
 621	1	6	0.145229	-11.4779	-17.8325	11.2791
 622	1	5	-0.462312	-11.0212	-20.7125	11.1425
 623	1	5	-0.483102	-7.02018	-20.2694	8.85972
 624	1	6	0.144532	-7.77154	-24.4318	12.5913
 625	1	6	0.226042	-8.83219	-22.7495	8.02093
 626	1	3	0.12103	-6.23871	-26.3783	11.4125
 627	1	3	-0.09864	-6.38418	-27.2719	12.4857
 628	1	3	-0.194398	-5.34859	-27.4385	13.4139
 629	1	3	-0.091961	-4.16812	-26.7035	13.2606
 630	1	3	-0.197799	-4.02233	-25.8261	12.1744
 631	1	3	-0.102777	-5.0459	-25.6345	11.2104
 632	1	6	0.132074	-3.36166	-26.8139	13.9826
 633	1	6	0.154044	-3.08938	-25.27	12.0924
 634	1	6	0.145155	-7.31833	-27.8137	12.6063
 635	1	6	0.14558	-5.30292	-24.5807	11.1806