pySIMM System Object

1219 atoms
1344 bonds
2307 angles
3602 dihedrals
420 impropers

9 atom types
11 bond types
19 angle types
8 dihedral types
4 improper types

-171.605380 171.605380 xlo xhi
-171.605380 171.605380 ylo yhi
-171.605380 171.605380 zlo zhi

Masses

   1	14.01	# n
   2	12.01	# c
   3	12.01	# ca
   4	1.008	# hn
   5	16.0	# o
   6	1.008	# ha
   7	12.01	# c3
   8	19.0	# f
   9	16.0	# os

Pair Coeffs

   1	0.17	3.249998523775958	# n
   2	0.086	3.3996695084235347	# c
   3	0.086	3.3996695084235347	# ca
   4	0.0157	1.069078461768407	# hn
   5	0.21	2.959921901149463	# o
   6	0.015	2.59964245953351	# ha
   7	0.1094	3.3996695084235347	# c3
   8	0.061	3.1181455134911875	# f
   9	0.17	3.0000123434657784	# os

Bond Coeffs

   1	427.6	1.3789	# c,n
   2	461.1	1.3984	# ca,ca
   3	356.9	1.3497	# c3,f
   4	345.9	1.4906	# c,ca
   5	345.8	1.086	# ca,ha
   6	384.2	1.4121	# ca,n
   7	637.7	1.2183	# c,o
   8	321.0	1.5156	# c3,ca
   9	300.9	1.5375	# c3,c3
  10	376.6	1.3696	# ca,os
  11	403.2	1.0129	# hn,n

Angle Coeffs

   1	62.86	111.51	# c3,c3,c3
   2	63.74	127.08	# c,n,c
   3	48.18	119.88	# ca,ca,ha
   4	68.72	122.6	# ca,c,o
   5	63.15	112.07	# c3,c3,ca
   6	70.89	107.36	# f,c3,f
   7	67.87	120.19	# ca,ca,n
   8	63.56	112.24	# ca,c3,ca
   9	63.82	123.71	# c,n,ca
  10	67.68	115.25	# ca,c,n
  11	69.58	119.2	# ca,ca,os
  12	48.33	117.55	# c,n,hn
  13	74.22	123.05	# n,c,o
  14	64.28	120.33	# c,ca,ca
  15	66.11	109.24	# c3,c3,f
  16	63.48	119.89	# ca,os,ca
  17	63.53	120.77	# c3,ca,ca
  18	66.62	120.02	# ca,ca,ca
  19	49.75	116.02	# ha,ca,n

Dihedral Coeffs

   1	1	0.0	2	0	# X,c3,ca,X
   2	1	0.9	2	180	# X,ca,os,X
   3	1	2.5	2	180	# X,c,n,X
   4	1	0.45	2	180	# X,ca,n,X
   5	2	2.5	2	180	2.0	1	0	# hn,n,c,o
   6	1	3.625	2	180	# X,ca,ca,X
   7	1	1.0	2	180	# X,c,ca,X
   8	1	0.15555555555555556	3	0	# X,c3,c3,X

Improper Coeffs

   1	10.5	-1	2	# c,X,X,o
   2	1.1	-1	2	# ca,ca,ca,c3
   3	1.1	-1	2	# n,X,X,hn
   4	1.1	-1	2	# ca,X,X,ha

Atoms

   1	1	1	0.48116	-8.18784	-42.269	16.7922
   2	1	2	0.034009	-9.25906	-41.5005	16.3165
   3	1	3	0.028921	-10.3313	-42.4757	15.9857
   4	1	2	0.071556	-8.50377	-43.6338	16.8448
   5	1	3	0.025276	-9.87835	-43.7383	16.3003
   6	1	5	-0.381907	-9.31962	-40.291	16.1599
   7	1	5	-0.393799	-7.81844	-44.5658	17.2382
   8	1	3	-0.008998	-11.589	-42.2697	15.4035
   9	1	3	-0.064503	-10.6526	-44.8696	16.0473
  10	1	3	-0.16756	-11.9155	-44.6878	15.4507
  11	1	3	-0.085161	-12.418	-43.3939	15.1347
  12	1	6	0.158939	-11.8772	-41.2557	15.1484
  13	1	6	0.163781	-10.2608	-45.8626	16.2584
  14	1	6	0.161401	-12.4899	-45.5784	15.2078
  15	1	7	-0.078003	-13.7946	-43.2651	14.4167
  16	1	7	0.303704	-14.5164	-41.8894	14.6963
  17	1	8	-0.1084	-14.4939	-41.5664	16.0088
  18	1	8	-0.101508	-15.8189	-41.9341	14.334
  19	1	8	-0.111714	-13.9743	-40.8442	14.0327
  20	1	7	0.380371	-13.4942	-43.3878	12.8744
  21	1	8	-0.124028	-12.5309	-42.5278	12.472
  22	1	8	-0.119704	-14.5795	-43.146	12.105
  23	1	8	-0.115877	-13.0349	-44.6176	12.5553
  24	1	3	-0.024709	-14.7448	-44.3819	14.9555
  25	1	3	-0.076489	-15.4394	-45.2895	14.1093
  26	1	3	-0.052344	-16.2323	-46.2893	14.6867
  27	1	3	-0.054202	-14.9188	-44.5165	16.3628
  28	1	3	-0.149083	-15.7393	-45.5174	16.9231
  29	1	3	-0.063027	-16.3846	-46.4001	16.0516
  30	1	2	0.499526	-17.2584	-47.5727	16.3295
  31	1	1	-0.036881	-17.5589	-48.1192	15.0872
  32	1	2	0.443545	-16.9902	-47.3958	14.045
  33	1	3	0.038197	-18.3213	-49.3074	14.9063
  34	1	3	-0.408621	-19.571	-49.4562	15.5358
  35	1	3	0.252781	-20.3154	-50.6354	15.368
  36	1	3	-0.169778	-17.8249	-50.358	14.1097
  37	1	3	-0.113042	-18.5645	-51.542	13.9441
  38	1	3	0.016958	-19.8142	-51.6766	14.566
  39	1	6	0.167832	-15.855	-45.6178	18.0009
  40	1	6	0.134138	-14.3927	-43.8466	17.038
  41	1	6	0.145229	-15.3709	-45.259	13.0273
  42	1	5	-0.462312	-17.0371	-47.6308	12.8496
  43	1	5	-0.483102	-17.5967	-47.9685	17.4322
  44	1	6	0.144532	-18.181	-52.3499	13.3269
  45	1	6	0.226042	-19.9637	-48.6731	16.1777
  46	1	3	0.12103	-21.8554	-52.817	13.9793
  47	1	3	-0.09864	-22.3029	-51.9079	13.0029
  48	1	3	-0.194398	-23.6497	-51.9137	12.6005
  49	1	3	-0.091961	-24.549	-52.8302	13.1711
  50	1	3	-0.197799	-24.1004	-53.7453	14.1389
  51	1	3	-0.102777	-22.7518	-53.7413	14.5385
  52	1	6	0.132074	-25.5909	-52.8347	12.8594
  53	1	6	0.154044	-24.7954	-54.4573	14.5766
  54	1	6	0.145155	-21.6047	-51.2078	12.5533
  55	1	6	0.14558	-22.3973	-54.4468	15.2842
  56	1	9	-0.24014	-20.5388	-52.8311	14.3785
  57	1	6	0.152938	-16.8622	-50.2576	13.6143
  58	1	6	0.151751	-23.9936	-51.2118	11.845
  59	1	1	0.48116	-6.54667	-46.3113	5.85494
  60	1	2	0.034009	-7.22954	-47.0751	6.8085
  61	1	3	0.028921	-8.64888	-47.0452	6.38989
  62	1	2	0.071556	-7.39765	-45.8626	4.83193
  63	1	3	0.025276	-8.7555	-46.3235	5.22277
  64	1	5	-0.381907	-6.79894	-47.6044	7.82148
  65	1	5	-0.393799	-7.1264	-45.1952	3.84541
  66	1	3	-0.008998	-9.77255	-47.5202	7.06493
  67	1	3	-0.064503	-10.0041	-46.0592	4.65118
  68	1	3	-0.16756	-11.1585	-46.5069	5.33186
  69	1	3	-0.085161	-11.0656	-47.2065	6.56887
  70	1	6	0.158939	-9.63017	-48.045	8.0063
  71	1	6	0.163781	-10.0759	-45.4777	3.73479
  72	1	6	0.161401	-12.1231	-46.2601	4.89996
  73	1	7	-0.078003	-12.2999	-47.565	7.45118
  74	1	7	0.303704	-13.6125	-46.7741	7.08424
  75	1	8	-0.1084	-13.3963	-45.4419	7.0017
  76	1	8	-0.101508	-14.5672	-46.9395	8.02785
  77	1	8	-0.111714	-14.1568	-47.1614	5.90904
  78	1	7	0.380371	-12.5504	-49.1108	7.26844
  79	1	8	-0.124028	-12.6337	-49.4491	5.96185
  80	1	8	-0.119704	-13.6906	-49.5399	7.85495
  81	1	8	-0.115877	-11.5393	-49.8499	7.77945
  82	1	3	-0.024709	-11.9227	-47.1491	8.90419
  83	1	3	-0.076489	-11.2907	-45.8922	9.09833
  84	1	3	-0.052344	-10.7481	-45.5875	10.3484
  85	1	3	-0.054202	-12.0878	-48.002	10.0328
  86	1	3	-0.149083	-11.5428	-47.6685	11.2903
  87	1	3	-0.063027	-10.8436	-46.4624	11.4066
  88	1	2	0.499526	-10.0509	-45.9086	12.5349
  89	1	1	-0.036881	-9.5075	-44.7158	12.0659
  90	1	2	0.443545	-9.90619	-44.4373	10.7638
  91	1	3	0.038197	-8.5809	-43.9154	12.7915
  92	1	3	-0.408621	-7.4853	-44.5144	13.4414
  93	1	3	0.252781	-6.55868	-43.732	14.1477
  94	1	3	-0.169778	-8.72002	-42.5143	12.8346
  95	1	3	-0.113042	-7.79564	-41.7268	13.5423
  96	1	3	0.016958	-6.73232	-42.3408	14.2219
  97	1	6	0.167832	-11.617	-48.349	12.1361
  98	1	6	0.134138	-12.5929	-48.9574	9.94484
  99	1	6	0.145229	-11.1375	-45.1988	8.27416
 100	1	5	-0.462312	-9.58995	-43.4927	10.0602
 101	1	5	-0.483102	-9.87109	-46.4601	13.6079
 102	1	6	0.144532	-7.91121	-40.6463	13.5879
 103	1	6	0.226042	-7.34614	-45.5915	13.4166
 104	1	3	0.12103	-6.20922	-41.0073	16.2077
 105	1	3	-0.09864	-5.53968	-39.81	16.5071
 106	1	3	-0.194398	-5.62843	-39.24	17.7846
 107	1	3	-0.091961	-6.38154	-39.8839	18.7732
 108	1	3	-0.197799	-7.03239	-41.0922	18.4806
 109	1	3	-0.102777	-6.9334	-41.7065	17.2088
 110	1	6	0.132074	-6.46358	-39.4471	19.7659
 111	1	6	0.154044	-7.62074	-41.5684	19.2637
 112	1	6	0.145155	-4.93169	-39.3393	15.74
 113	1	6	0.14558	-6.41515	-42.6499	17.33
 114	1	9	-0.24014	-5.88441	-41.5854	14.9952
 115	1	6	0.152938	-9.54513	-42.0303	12.3177
 116	1	6	0.151751	-5.10927	-38.3113	18.0086
 117	1	1	0.48116	-0.904976	-29.1986	13.7553
 118	1	2	0.034009	-0.341718	-30.4602	14.0129
 119	1	3	0.028921	-1.45223	-31.4436	13.9493
 120	1	2	0.071556	-2.29361	-29.3093	13.5339
 121	1	3	0.025276	-2.61372	-30.7685	13.6567
 122	1	5	-0.381907	0.809675	-30.7221	14.3244
 123	1	5	-0.393799	-3.11674	-28.4249	13.3577
 124	1	3	-0.008998	-1.42521	-32.8299	14.1571
 125	1	3	-0.064503	-3.82566	-31.4668	13.5492
 126	1	3	-0.16756	-3.81419	-32.8754	13.7137
 127	1	3	-0.085161	-2.61967	-33.5927	14.0124
 128	1	6	0.158939	-0.469486	-33.2725	14.4114
 129	1	6	0.163781	-4.74824	-30.9321	13.3328
 130	1	6	0.161401	-4.75204	-33.4156	13.6024
 131	1	7	-0.078003	-2.66107	-35.1584	14.1639
 132	1	7	0.303704	-1.22225	-35.7978	14.294
 133	1	8	-0.1084	-0.419688	-35.4316	13.268
 134	1	8	-0.101508	-1.24986	-37.15	14.2582
 135	1	8	-0.111714	-0.599015	-35.4581	15.4449
 136	1	7	0.380371	-3.4843	-35.4898	15.4718
 137	1	8	-0.124028	-3.11571	-34.6932	16.5007
 138	1	8	-0.119704	-3.33332	-36.7601	15.9128
 139	1	8	-0.115877	-4.81022	-35.3031	15.2908
 140	1	3	-0.024709	-3.2674	-35.8063	12.879
 141	1	3	-0.076489	-3.91917	-37.0738	12.8968
 142	1	3	-0.052344	-4.21867	-37.7108	11.6806
 143	1	3	-0.054202	-2.9873	-35.2204	11.6128
 144	1	3	-0.149083	-3.30108	-35.8727	10.4033
 145	1	3	-0.063027	-3.90012	-37.1348	10.4695
 146	1	2	0.499526	-4.18363	-38.1212	9.39027
 147	1	1	-0.036881	-4.65017	-39.2618	10.0319
 148	1	2	0.443545	-4.74081	-39.083	11.4091
 149	1	3	0.038197	-4.91469	-40.4915	9.35898
 150	1	3	-0.408621	-3.89298	-41.1383	8.63613
 151	1	3	0.252781	-4.15093	-42.3382	7.94911
 152	1	3	-0.169778	-6.19754	-41.0703	9.38713
 153	1	3	-0.113042	-6.4571	-42.2721	8.70045
 154	1	3	0.016958	-5.43161	-42.921	7.99289
 155	1	6	0.167832	-3.02746	-35.4401	9.44291
 156	1	6	0.134138	-2.45244	-34.2767	11.5556
 157	1	6	0.145229	-4.11848	-37.6112	13.8175
 158	1	5	-0.462312	-5.10426	-39.8885	12.2474
 159	1	5	-0.483102	-3.9439	-37.9679	8.20458
 160	1	6	0.144532	-7.45468	-42.7037	8.71696
 161	1	6	0.226042	-2.90045	-40.7027	8.5789
 162	1	3	0.12103	-4.90553	-45.166	7.09976
 163	1	3	-0.09864	-3.91736	-45.4993	8.04612
 164	1	3	-0.194398	-3.1201	-46.6389	7.86392
 165	1	3	-0.091961	-3.31814	-47.4511	6.74015
 166	1	3	-0.197799	-4.32054	-47.129	5.81182
 167	1	3	-0.102777	-5.1523	-45.9958	5.98123
 168	1	6	0.132074	-2.71058	-48.3427	6.59991
 169	1	6	0.154044	-4.47537	-47.7894	4.96014
 170	1	6	0.145155	-3.78538	-44.891	8.9358
 171	1	6	0.14558	-5.0949	-45.385	5.08849
 172	1	9	-0.24014	-5.73512	-44.0754	7.29448
 173	1	6	0.152938	-7.00095	-40.5878	9.93782
 174	1	6	0.151751	-2.36383	-46.901	8.59976
 175	1	1	0.48116	8.82564	-19.25	-1.42431
 176	1	2	0.034009	8.42235	-20.525	-0.920392
 177	1	3	0.028921	8.17647	-20.3864	0.5495
 178	1	2	0.071556	8.98937	-18.3785	-0.322648
 179	1	3	0.025276	8.55259	-19.1237	0.911067
 180	1	5	-0.381907	8.21456	-21.5747	-1.50908
 181	1	5	-0.393799	9.24853	-17.1883	-0.336354
 182	1	3	-0.008998	7.45229	-21.225	1.42897
 183	1	3	-0.064503	8.34712	-18.6977	2.23278
 184	1	3	-0.16756	7.60461	-19.5215	3.1266
 185	1	3	-0.085161	7.00143	-20.7509	2.7145
 186	1	6	0.158939	7.11733	-22.16	0.997614
 187	1	6	0.163781	8.66041	-17.6983	2.52637
 188	1	6	0.161401	7.37331	-19.1069	4.10253
 189	1	7	-0.078003	5.62151	-21.2526	3.3936
 190	1	7	0.303704	4.70235	-19.9639	3.49444
 191	1	8	-0.1084	5.04565	-19.1878	4.549
 192	1	8	-0.101508	3.39039	-20.2281	3.67069
 193	1	8	-0.111714	4.77854	-19.1882	2.38899
 194	1	7	0.380371	4.92116	-22.2758	2.38928
 195	1	8	-0.124028	4.76945	-21.7592	1.14762
 196	1	8	-0.119704	3.67273	-22.6782	2.69404
 197	1	8	-0.115877	5.63653	-23.4198	2.30051
 198	1	3	-0.024709	5.60968	-21.8778	4.86531
 199	1	3	-0.076489	4.38637	-22.382	5.41615
 200	1	3	-0.052344	4.2972	-22.8657	6.72956
 201	1	3	-0.054202	6.71444	-21.8646	5.76888
 202	1	3	-0.149083	6.59575	-22.318	7.12343
 203	1	3	-0.063027	5.35888	-22.8213	7.59139
 204	1	2	0.499526	4.86565	-23.3455	8.92735
 205	1	1	-0.036881	3.51393	-23.7008	8.76204
 206	1	2	0.443545	3.12212	-23.443	7.44572
 207	1	3	0.038197	2.62178	-24.3049	9.7478
 208	1	3	-0.408621	3.05514	-25.2813	10.676
 209	1	3	0.252781	2.13232	-26.0126	11.468
 210	1	3	-0.169778	1.23155	-24.0279	9.73777
 211	1	3	-0.113042	0.308606	-24.7584	10.5241
 212	1	3	0.016958	0.741837	-25.7791	11.3899
 213	1	6	0.167832	7.44726	-22.2697	7.80007
 214	1	6	0.134138	7.66866	-21.4684	5.432
 215	1	6	0.145229	3.45125	-22.3745	4.87639
 216	1	5	-0.462312	2.04905	-23.6822	6.91949
 217	1	5	-0.483102	5.52989	-23.4189	9.94771
 218	1	6	0.144532	-0.756643	-24.5779	10.4058
 219	1	6	0.226042	4.11012	-25.5272	10.7532
 220	1	3	0.12103	-0.561866	-26.8439	13.2336
 221	1	3	-0.09864	-1.31298	-25.8283	13.8563
 222	1	3	-0.194398	-1.50364	-25.8448	15.2482
 223	1	3	-0.091961	-0.841271	-26.8101	16.0165
 224	1	3	-0.197799	-0.0998808	-27.8142	15.3768
 225	1	3	-0.102777	-0.141598	-27.9837	13.9711
 226	1	6	0.132074	-0.891436	-26.7771	17.1032
 227	1	6	0.154044	0.421849	-28.5495	15.9897
 228	1	6	0.145155	-1.71973	-25.0152	13.2628
 229	1	6	0.14558	0.789621	-28.3611	13.562
 230	1	9	-0.24014	-0.189065	-26.6928	11.9031
 231	1	6	0.152938	0.837107	-23.2822	9.05265
 232	1	6	0.151751	-2.08971	-25.069	15.7351
 233	1	1	0.48116	2.89828	-4.80372	-12.128
 234	1	2	0.034009	4.0052	-4.22515	-11.4629
 235	1	3	0.028921	5.06053	-5.28647	-11.3818
 236	1	2	0.071556	3.16931	-6.15881	-12.4166
 237	1	3	0.025276	4.57242	-6.40799	-12.0059
 238	1	5	-0.381907	4.11251	-3.11121	-10.9754
 239	1	5	-0.393799	2.40181	-7.04422	-12.764
 240	1	3	-0.008998	6.30715	-5.30891	-10.722
 241	1	3	-0.064503	5.34436	-7.56514	-12.1304
 242	1	3	-0.16756	6.61684	-7.58821	-11.5237
 243	1	3	-0.085161	7.09052	-6.50965	-10.7203
 244	1	6	0.158939	6.60061	-4.41497	-10.1832
 245	1	6	0.163781	4.94834	-8.43552	-12.6498
 246	1	6	0.161401	7.19046	-8.51044	-11.5863
 247	1	7	-0.078003	8.37661	-6.74695	-9.82445
 248	1	7	0.303704	9.60874	-6.81185	-10.8083
 249	1	8	-0.1084	9.61902	-7.95953	-11.5208
 250	1	8	-0.101508	10.8058	-6.74132	-10.1857
 251	1	8	-0.111714	9.58119	-5.7996	-11.7063
 252	1	7	0.380371	8.60179	-5.57338	-8.79621
 253	1	8	-0.124028	8.87819	-4.39308	-9.39814
 254	1	8	-0.119704	9.62176	-5.81456	-7.94288
 255	1	8	-0.115877	7.50975	-5.39064	-8.02029
 256	1	3	-0.024709	8.22429	-8.08881	-8.99744
 257	1	3	-0.076489	9.31139	-8.82306	-8.40209
 258	1	3	-0.052344	9.05527	-10.0724	-7.76294
 259	1	3	-0.054202	6.91611	-8.61221	-8.79968
 260	1	3	-0.149083	6.69484	-9.8884	-8.26555
 261	1	3	-0.063027	7.78865	-10.6061	-7.78888
 262	1	2	0.499526	7.79437	-11.9402	-7.15166
 263	1	1	-0.036881	9.05179	-12.118	-6.57724
 264	1	2	0.443545	9.89764	-11.0531	-6.96301
 265	1	3	0.038197	9.32617	-13.2244	-5.66242
 266	1	3	-0.408621	8.26646	-13.8051	-4.92047
 267	1	3	0.252781	8.44526	-14.9234	-4.08327
 268	1	3	-0.169778	10.6088	-13.7864	-5.44546
 269	1	3	-0.113042	10.7989	-14.8951	-4.57079
 270	1	3	0.016958	9.70758	-15.5082	-3.90861
 271	1	6	0.167832	5.6915	-10.3041	-8.19669
 272	1	6	0.134138	6.03697	-8.05438	-9.10498
 273	1	6	0.145229	10.3283	-8.43947	-8.4252
 274	1	5	-0.462312	11.0675	-10.8927	-6.66069
 275	1	5	-0.483102	6.84855	-12.709	-7.19651
 276	1	6	0.144532	11.8012	-15.2807	-4.40764
 277	1	6	0.226042	7.25936	-13.4098	-4.98416
 278	1	3	0.12103	9.79871	-17.9335	-3.37704
 279	1	3	-0.09864	10.5386	-18.2468	-4.53839
 280	1	3	-0.194398	10.2875	-19.4055	-5.27655
 281	1	3	-0.091961	9.23277	-20.2274	-4.88707
 282	1	3	-0.197799	8.49424	-19.9189	-3.73353
 283	1	3	-0.102777	8.8053	-18.8399	-2.85309
 284	1	6	0.132074	8.96652	-21.091	-5.49419
 285	1	6	0.154044	7.6363	-20.5558	-3.53087
 286	1	6	0.145155	11.2669	-17.5402	-4.92119
 287	1	6	0.14558	7.91385	-18.2509	-2.66834
 288	1	9	-0.24014	9.84889	-16.5866	-3.01593
 289	1	6	0.152938	11.4735	-13.3616	-5.95053
 290	1	6	0.151751	10.8415	-19.6117	-6.19033
 291	1	1	0.48116	-5.00461	5.60216	-20.2363
 292	1	2	0.034009	-6.21757	5.3061	-19.5961
 293	1	3	0.028921	-6.09991	5.90024	-18.2414
 294	1	2	0.071556	-4.20287	6.45833	-19.4647
 295	1	3	0.025276	-4.90009	6.57149	-18.1641
 296	1	5	-0.381907	-7.07857	4.5124	-19.9413
 297	1	5	-0.393799	-3.07754	6.87583	-19.6877
 298	1	3	-0.008998	-6.8861	5.66364	-17.1079
 299	1	3	-0.064503	-4.4047	7.03295	-16.9448
 300	1	3	-0.16756	-5.16074	6.76993	-15.7856
 301	1	3	-0.085161	-6.40478	6.08256	-15.8371
 302	1	6	0.158939	-7.80387	5.10057	-17.238
 303	1	6	0.163781	-3.42547	7.50515	-16.8966
 304	1	6	0.161401	-4.74862	7.06651	-14.8264
 305	1	7	-0.078003	-7.13719	5.77517	-14.4964
 306	1	7	0.303704	-7.65217	7.1629	-13.9359
 307	1	8	-0.1084	-8.32632	7.85789	-14.8801
 308	1	8	-0.101508	-6.64343	7.96869	-13.5357
 309	1	8	-0.111714	-8.4855	7.04161	-12.8784
 310	1	7	0.380371	-8.37844	4.81053	-14.6535
 311	1	8	-0.124028	-8.88356	4.44462	-13.4539
 312	1	8	-0.119704	-8.05301	3.65461	-15.2756
 313	1	8	-0.115877	-9.39267	5.3649	-15.3554
 314	1	3	-0.024709	-6.12355	5.03664	-13.5652
 315	1	3	-0.076489	-5.36634	3.95103	-14.0884
 316	1	3	-0.052344	-4.50234	3.23639	-13.2424
 317	1	3	-0.054202	-5.95389	5.36518	-12.1891
 318	1	3	-0.149083	-5.06237	4.65076	-11.3605
 319	1	3	-0.063027	-4.35796	3.5751	-11.9141
 320	1	2	0.499526	-3.37886	2.63659	-11.296
 321	1	1	-0.036881	-2.9713	1.78447	-12.3133
 322	1	2	0.443545	-3.60832	2.07166	-13.5181
 323	1	3	0.038197	-1.94913	0.803575	-12.139
 324	1	3	-0.408621	-0.660124	1.0352	-12.65
 325	1	3	0.252781	0.377705	0.116305	-12.4084
 326	1	3	-0.169778	-2.17818	-0.366189	-11.3864
 327	1	3	-0.113042	-1.139	-1.29475	-11.1567
 328	1	3	0.016958	0.149174	-1.06405	-11.6742
 329	1	6	0.167832	-4.92884	4.91773	-10.312
 330	1	6	0.134138	-6.51617	6.17168	-11.7321
 331	1	6	0.145229	-5.45802	3.64949	-15.1293
 332	1	5	-0.462312	-3.44361	1.53551	-14.6002
 333	1	5	-0.483102	-2.9971	2.65612	-10.1397
 334	1	6	0.144532	-1.33	-2.19123	-10.5739
 335	1	6	0.226042	-0.448548	1.93397	-13.2192
 336	1	3	0.12103	1.70889	-2.74881	-12.4755
 337	1	3	-0.09864	2.09913	-2.11342	-13.6707
 338	1	3	-0.194398	2.0182	-2.81692	-14.8797
 339	1	3	-0.091961	1.42546	-4.08508	-14.8671
 340	1	3	-0.197799	1.11835	-4.68737	-13.6357
 341	1	3	-0.102777	1.61463	-4.16269	-12.4128
 342	1	6	0.132074	1.16463	-4.57959	-15.8003
 343	1	6	0.154044	0.597426	-5.64419	-13.6421
 344	1	6	0.145155	2.32167	-1.05179	-13.6836
 345	1	6	0.14558	1.04468	-4.50846	-11.5571
 346	1	9	-0.24014	1.1654	-1.98936	-11.4529
 347	1	6	0.152938	-3.16229	-0.55064	-10.9631
 348	1	6	0.151751	2.24079	-2.32221	-15.822
 349	1	1	0.48116	-7.17892	18.0819	-19.7159
 350	1	2	0.034009	-8.22012	17.1373	-19.7388
 351	1	3	0.028921	-8.85512	17.2749	-21.072
 352	1	2	0.071556	-7.19826	18.8973	-20.8585
 353	1	3	0.025276	-8.26646	18.3351	-21.724
 354	1	5	-0.381907	-8.51789	16.2947	-18.9063
 355	1	5	-0.393799	-6.42636	19.7912	-21.1716
 356	1	3	-0.008998	-9.75638	16.4189	-21.7188
 357	1	3	-0.064503	-8.60474	18.6463	-23.0414
 358	1	3	-0.16756	-9.49349	17.7865	-23.7187
 359	1	3	-0.085161	-10.03	16.6211	-23.0988
 360	1	6	0.158939	-10.1515	15.5663	-21.1729
 361	1	6	0.163781	-8.15065	19.5003	-23.5384
 362	1	6	0.161401	-9.72266	18.0267	-24.7509
 363	1	7	-0.078003	-10.8658	15.5797	-23.9098
 364	1	7	0.303704	-10.3606	15.4442	-25.403
 365	1	8	-0.1084	-9.0111	15.3748	-25.47
 366	1	8	-0.101508	-10.7415	16.4618	-26.2064
 367	1	8	-0.111714	-10.8259	14.3168	-25.9903
 368	1	7	0.380371	-12.3585	16.0772	-23.9019
 369	1	8	-0.124028	-12.4632	17.38	-24.2511
 370	1	8	-0.119704	-13.15	15.3949	-24.7613
 371	1	8	-0.115877	-12.9016	15.9705	-22.6686
 372	1	3	-0.024709	-10.6771	14.1515	-23.3053
 373	1	3	-0.076489	-9.35997	13.7087	-23.0182
 374	1	3	-0.052344	-9.14562	12.375	-22.6588
 375	1	3	-0.054202	-11.738	13.2041	-23.1897
 376	1	3	-0.149083	-11.4969	11.858	-22.8408
 377	1	3	-0.063027	-10.1773	11.4658	-22.5953
 378	1	2	0.499526	-9.59	10.1123	-22.396
 379	1	1	-0.036881	-8.21052	10.2997	-22.3935
 380	1	2	0.443545	-7.86802	11.6453	-22.4765
 381	1	3	0.038197	-7.25777	9.24511	-22.4947
 382	1	3	-0.408621	-6.043	9.29721	-21.7841
 383	1	3	0.252781	-5.0471	8.33429	-22.0074
 384	1	3	-0.169778	-7.47082	8.19237	-23.4078
 385	1	3	-0.113042	-6.48699	7.21308	-23.6156
 386	1	3	0.016958	-5.27799	7.2826	-22.9112
 387	1	6	0.167832	-12.3029	11.1266	-22.8216
 388	1	6	0.134138	-12.7606	13.4718	-23.4273
 389	1	6	0.145229	-8.50178	14.3664	-23.1368
 390	1	5	-0.462312	-6.75822	12.1499	-22.4863
 391	1	5	-0.483102	-10.2107	9.06283	-22.3651
 392	1	6	0.144532	-6.64973	6.41567	-24.3358
 393	1	6	0.226042	-5.8286	10.1234	-21.1113
 394	1	3	0.12103	-3.70955	5.56078	-22.2322
 395	1	3	-0.09864	-2.31909	5.38195	-22.3109
 396	1	3	-0.194398	-1.68825	4.40987	-21.522
 397	1	3	-0.091961	-2.47177	3.54125	-20.752
 398	1	3	-0.197799	-3.86761	3.69395	-20.7316
 399	1	3	-0.102777	-4.49913	4.814	-21.3265
 400	1	6	0.132074	-2.00125	2.73982	-20.1868
 401	1	6	0.154044	-4.46141	2.99326	-20.1449
 402	1	6	0.145155	-1.73847	5.99137	-22.9972
 403	1	6	0.14558	-5.46099	4.57328	-21.7683
 404	1	9	-0.24014	-4.29777	6.36176	-23.1815
 405	1	6	0.152938	-8.39282	8.14246	-23.9823
 406	1	6	0.151751	-0.608495	4.29092	-21.5574
 407	1	1	0.48116	-18.5093	19.4601	-15.5005
 408	1	2	0.034009	-19.0556	20.1882	-16.5643
 409	1	3	0.028921	-18.3823	19.6724	-17.7816
 410	1	2	0.071556	-17.5699	18.5147	-15.9332
 411	1	3	0.025276	-17.5029	18.6795	-17.4063
 412	1	5	-0.381907	-19.8917	21.0778	-16.5354
 413	1	5	-0.393799	-16.9191	17.7222	-15.269
 414	1	3	-0.008998	-18.4808	20.1127	-19.106
 415	1	3	-0.064503	-16.6891	18.0426	-18.3435
 416	1	3	-0.16756	-16.7605	18.48	-19.6814
 417	1	3	-0.085161	-17.6233	19.5414	-20.0853
 418	1	6	0.158939	-19.1654	20.9262	-19.319
 419	1	6	0.163781	-15.9876	17.2718	-18.0306
 420	1	6	0.161401	-16.0739	18.0342	-20.3968
 421	1	7	-0.078003	-17.4591	20.1297	-21.5241
 422	1	7	0.303704	-17.9571	19.0305	-22.5439
 423	1	8	-0.1084	-17.1157	17.9747	-22.6129
 424	1	8	-0.101508	-18.0985	19.4837	-23.8098
 425	1	8	-0.111714	-19.162	18.5373	-22.1794
 426	1	7	0.380371	-18.2581	21.4657	-21.7677
 427	1	8	-0.124028	-17.9685	22.0177	-22.9679
 428	1	8	-0.119704	-17.9477	22.4132	-20.8538
 429	1	8	-0.115877	-19.5974	21.2844	-21.7289
 430	1	3	-0.024709	-15.9544	20.4919	-21.6758
 431	1	3	-0.076489	-15.2579	20.9831	-20.5406
 432	1	3	-0.052344	-13.8802	21.1774	-20.6183
 433	1	3	-0.054202	-15.2301	20.3234	-22.8901
 434	1	3	-0.149083	-13.8386	20.5521	-22.9535
 435	1	3	-0.063027	-13.1839	20.9617	-21.7864
 436	1	2	0.499526	-11.7347	21.1039	-21.4887
 437	1	1	-0.036881	-11.6611	21.3302	-20.118
 438	1	2	0.443545	-12.9125	21.4463	-19.5284
 439	1	3	0.038197	-10.4592	21.1972	-19.3783
 440	1	3	-0.408621	-9.302	21.9075	-19.7422
 441	1	3	0.252781	-8.07618	21.6238	-19.1189
 442	1	3	-0.169778	-10.3936	20.2475	-18.3426
 443	1	3	-0.113042	-9.17466	19.9608	-17.7174
 444	1	3	0.016958	-8.00869	20.6281	-18.1286
 445	1	6	0.167832	-13.2757	20.3655	-23.8659
 446	1	6	0.134138	-15.7265	19.9788	-23.7905
 447	1	6	0.145229	-15.7509	21.1422	-19.5844
 448	1	5	-0.462312	-13.1848	21.558	-18.3449
 449	1	5	-0.483102	-10.822	20.8998	-22.272
 450	1	6	0.144532	-9.13145	19.1837	-16.9579
 451	1	6	0.226042	-9.32354	22.621	-20.5599
 452	1	3	0.12103	-6.50403	18.8526	-17.5717
 453	1	3	-0.09864	-6.55179	18.2759	-16.2931
 454	1	3	-0.194398	-6.22044	16.926	-16.1199
 455	1	3	-0.091961	-5.74947	16.1882	-17.2137
 456	1	3	-0.197799	-5.64695	16.794	-18.4756
 457	1	3	-0.102777	-6.14105	18.1004	-18.7122
 458	1	6	0.132074	-5.46621	15.1459	-17.0867
 459	1	6	0.154044	-5.28646	16.1963	-19.3114
 460	1	6	0.145155	-6.86443	18.8775	-15.4442
 461	1	6	0.14558	-5.43228	18.6679	-19.3038
 462	1	9	-0.24014	-6.78213	20.1952	-17.6889
 463	1	6	0.152938	-11.2804	19.6907	-18.0487
 464	1	6	0.151751	-6.30133	16.4629	-15.1391
 465	1	1	0.48116	-3.3569	18.6939	-4.91821
 466	1	2	0.034009	-4.05723	19.1679	-6.04274
 467	1	3	0.028921	-4.80607	18.0041	-6.58388
 468	1	2	0.071556	-3.58369	17.3253	-4.71098
 469	1	3	0.025276	-4.50165	16.9095	-5.80561
 470	1	5	-0.381907	-4.12499	20.3122	-6.46511
 471	1	5	-0.393799	-3.23657	16.6174	-3.77798
 472	1	3	-0.008998	-5.69278	17.9182	-7.67062
 473	1	3	-0.064503	-5.04312	15.6564	-6.09104
 474	1	3	-0.16756	-5.91579	15.5411	-7.19371
 475	1	3	-0.085161	-6.2798	16.6648	-7.99707
 476	1	6	0.158939	-5.90029	18.8093	-8.2562
 477	1	6	0.163781	-4.77251	14.7951	-5.4841
 478	1	6	0.161401	-6.27958	14.5457	-7.41435
 479	1	7	-0.078003	-7.18988	16.5382	-9.2702
 480	1	7	0.303704	-6.22363	16.6738	-10.5128
 481	1	8	-0.1084	-6.75317	16.2374	-11.6775
 482	1	8	-0.101508	-5.09048	15.9611	-10.3344
 483	1	8	-0.111714	-5.84435	17.9569	-10.7094
 484	1	7	0.380371	-7.94701	15.1543	-9.35414
 485	1	8	-0.124028	-7.11746	14.1163	-9.59341
 486	1	8	-0.119704	-8.87389	15.1321	-10.3395
 487	1	8	-0.115877	-8.62474	14.8889	-8.21218
 488	1	3	-0.024709	-8.32213	17.6145	-9.27612
 489	1	3	-0.076489	-8.9388	18.0244	-10.4908
 490	1	3	-0.052344	-10.1072	18.7964	-10.449
 491	1	3	-0.054202	-8.9111	18.051	-8.05605
 492	1	3	-0.149083	-10.0734	18.8567	-8.03721
 493	1	3	-0.063027	-10.6644	19.2031	-9.26069
 494	1	2	0.499526	-11.9608	19.8782	-9.56616
 495	1	1	-0.036881	-12.1385	19.7839	-10.9519
 496	1	2	0.443545	-11.032	19.1734	-11.5511
 497	1	3	0.038197	-13.3375	20.1579	-11.6628
 498	1	3	-0.408621	-14.609	20.0806	-11.0495
 499	1	3	0.252781	-15.7866	20.3619	-11.7678
 500	1	3	-0.169778	-13.2934	20.5518	-13.0197
 501	1	3	-0.113042	-14.4693	20.8254	-13.7433
 502	1	3	0.016958	-15.7235	20.7286	-13.1238
 503	1	6	0.167832	-10.5419	19.1469	-7.09892
 504	1	6	0.134138	-8.50402	17.7129	-7.10691
 505	1	6	0.145229	-8.5955	17.6799	-11.4596
 506	1	5	-0.462312	-10.8555	18.8876	-12.7232
 507	1	5	-0.483102	-12.715	20.347	-8.72885
 508	1	6	0.144532	-14.4095	21.0941	-14.7955
 509	1	6	0.226042	-14.7074	19.7872	-10.0099
 510	1	3	0.12103	-18.1522	20.7207	-13.5019
 511	1	3	-0.09864	-18.7551	21.5407	-12.532
 512	1	3	-0.194398	-20.1104	21.3708	-12.2084
 513	1	3	-0.091961	-20.8669	20.4069	-12.8878
 514	1	3	-0.197799	-20.2576	19.5956	-13.8575
 515	1	3	-0.102777	-18.8706	19.6785	-14.1305
 516	1	6	0.132074	-21.9321	20.3091	-12.6879
 517	1	6	0.154044	-20.8763	18.8915	-14.4117
 518	1	6	0.145155	-18.1776	22.3309	-12.0608
 519	1	6	0.14558	-18.4446	18.7649	-13.7338
 520	1	9	-0.24014	-16.8506	20.9691	-13.887
 521	1	6	0.152938	-12.3443	20.6284	-13.5426
 522	1	6	0.151751	-20.5848	22.0162	-11.4729
 523	1	1	0.48116	3.56835	29.1201	-11.231
 524	1	2	0.034009	4.85568	28.6232	-10.9966
 525	1	3	0.028921	4.86898	28.2289	-9.56945
 526	1	2	0.071556	2.73414	28.9815	-10.1151
 527	1	3	0.025276	3.61036	28.4259	-9.04548
 528	1	5	-0.381907	5.83275	28.6604	-11.7288
 529	1	5	-0.393799	1.5985	29.4028	-9.96206
 530	1	3	-0.008998	5.96377	27.8907	-8.76861
 531	1	3	-0.064503	3.37153	28.2471	-7.67959
 532	1	3	-0.16756	4.46082	27.8876	-6.85338
 533	1	3	-0.085161	5.78019	27.7267	-7.3687
 534	1	6	0.158939	6.93079	27.8234	-9.25303
 535	1	6	0.163781	2.3809	28.4298	-7.26805
 536	1	6	0.161401	4.27791	27.7731	-5.78765
 537	1	7	-0.078003	6.97073	27.4856	-6.37963
 538	1	7	0.303704	8.33601	27.188	-7.10816
 539	1	8	-0.1084	9.3187	26.8479	-6.24318
 540	1	8	-0.101508	8.79687	28.2492	-7.80924
 541	1	8	-0.111714	8.22101	26.143	-7.9588
 542	1	7	0.380371	7.11527	28.8148	-5.53149
 543	1	8	-0.124028	7.01396	29.9155	-6.31139
 544	1	8	-0.119704	8.29351	28.9321	-4.87867
 545	1	8	-0.115877	6.1484	28.9181	-4.59141
 546	1	3	-0.024709	6.67343	26.2429	-5.49009
 547	1	3	-0.076489	5.85299	25.1915	-5.97722
 548	1	3	-0.052344	5.5793	24.0998	-5.14215
 549	1	3	-0.054202	7.24568	26.1	-4.19276
 550	1	3	-0.149083	6.95883	24.9922	-3.37088
 551	1	3	-0.063027	6.10107	24.0092	-3.87029
 552	1	2	0.499526	5.50769	22.8207	-3.20102
 553	1	1	-0.036881	4.62954	22.272	-4.12809
 554	1	2	0.443545	4.64911	22.9586	-5.33601
 555	1	3	0.038197	3.60952	21.3288	-3.82491
 556	1	3	-0.408621	3.75418	19.5794	-4.2512
 557	1	3	0.252781	2.27788	18.5126	-4.19739
 558	1	3	-0.169778	2.05969	21.9682	-3.24212
 559	1	3	-0.113042	0.601083	20.9173	-3.16238
 560	1	3	0.016958	0.684053	19.2236	-3.68875
 561	1	6	0.167832	7.36666	24.9135	-2.36504
 562	1	6	0.134138	7.91519	26.8534	-3.79442
 563	1	6	0.145229	5.40446	25.2257	-6.96727
 564	1	5	-0.462312	3.93377	22.7803	-6.30489
 565	1	5	-0.483102	5.66621	22.5134	-2.03261
 566	1	6	0.144532	-0.352193	21.3551	-2.87201
 567	1	6	0.226042	4.68368	19.1793	-4.65014
 568	1	3	0.12103	-1.65727	19.0077	-3.21147
 569	1	3	-0.09864	-1.64808	19.1391	-1.80861
 570	1	3	-0.194398	-2.63732	19.8831	-1.15184
 571	1	3	-0.091961	-3.63439	20.5106	-1.90509
 572	1	3	-0.197799	-3.65177	20.3634	-3.30046
 573	1	3	-0.102777	-2.69348	19.5795	-3.99382
 574	1	6	0.132074	-4.39425	21.1122	-1.40981
 575	1	6	0.154044	-4.44299	20.8623	-3.85981
 576	1	6	0.145155	-0.833937	18.7079	-1.23611
 577	1	6	0.14558	-2.23399	20.1581	-4.78985
 578	1	9	-0.24014	-0.510016	18.5326	-3.82019
 579	1	6	0.152938	1.96543	23.0271	-3.00959
 580	1	6	0.151751	-2.60928	20.0031	-0.0712932
 581	1	1	0.48116	-3.27652	13.8036	-15.1454
 582	1	2	0.034009	-2.45768	13.8942	-16.2753
 583	1	3	0.028921	-2.27288	15.3486	-16.5095
 584	1	2	0.071556	-3.67455	15.0614	-14.6743
 585	1	3	0.025276	-2.98404	16.0371	-15.5499
 586	1	5	-0.381907	-1.9365	12.9911	-16.911
 587	1	5	-0.393799	-4.40488	15.3368	-13.7341
 588	1	3	-0.008998	-1.52294	16.0119	-17.4871
 589	1	3	-0.064503	-2.98432	17.431	-15.5048
 590	1	3	-0.16756	-2.22831	18.1196	-16.4721
 591	1	3	-0.085161	-1.48428	17.4323	-17.4724
 592	1	6	0.158939	-1.00328	15.4156	-18.2296
 593	1	6	0.163781	-3.56941	17.9575	-14.7544
 594	1	6	0.161401	-2.25074	19.2063	-16.4588
 595	1	7	-0.078003	-0.737252	18.2678	-18.5481
 596	1	7	0.303704	0.379878	17.4599	-19.3295
 597	1	8	-0.1084	-0.111725	16.5582	-20.2081
 598	1	8	-0.101508	1.17816	18.29	-20.0383
 599	1	8	-0.111714	1.19694	16.7659	-18.5058
 600	1	7	0.380371	-1.83714	18.7313	-19.5816
 601	1	8	-0.124028	-2.52229	17.6838	-20.0951
 602	1	8	-0.119704	-1.31417	19.4129	-20.6252
 603	1	8	-0.115877	-2.77713	19.5215	-19.0155
 604	1	3	-0.024709	-0.0183535	19.4453	-17.816
 605	1	3	-0.076489	-0.276351	20.8187	-18.0906
 606	1	3	-0.052344	0.425551	21.8015	-17.3759
 607	1	3	-0.054202	0.93099	19.135	-16.8005
 608	1	3	-0.149083	1.65966	20.1345	-16.1282
 609	1	3	-0.063027	1.39026	21.4664	-16.4505
 610	1	2	0.499526	1.93599	22.717	-15.8685
 611	1	1	-0.036881	1.20237	23.749	-16.4364
 612	1	2	0.443545	0.283118	23.2876	-17.372
 613	1	3	0.038197	1.2636	25.07	-15.9157
 614	1	3	-0.408621	0.191267	25.5508	-15.1452
 615	1	3	0.252781	0.367653	26.6666	-14.3117
 616	1	3	-0.169778	2.47021	25.7964	-15.946
 617	1	3	-0.113042	2.63753	26.9373	-15.1377
 618	1	3	0.016958	1.59611	27.3487	-14.2882
 619	1	6	0.167832	2.39685	19.8859	-15.3663
 620	1	6	0.134138	1.11299	18.1011	-16.522
 621	1	6	0.145229	-1.00507	21.1456	-18.825
 622	1	5	-0.462312	-0.573094	23.9264	-17.957
 623	1	5	-0.483102	2.78646	22.7846	-14.9982
 624	1	6	0.144532	3.60721	27.4243	-15.0808
 625	1	6	0.226042	-0.74434	25.0025	-15.0969
 626	1	3	0.12103	2.29837	29.4864	-13.2913
 627	1	3	-0.09864	1.80614	30.3599	-14.2802
 628	1	3	-0.194398	2.08434	31.7354	-14.1953
 629	1	3	-0.091961	2.7604	32.2297	-13.0702
 630	1	3	-0.197799	3.26211	31.3315	-12.1161
 631	1	3	-0.102777	3.26341	29.9394	-12.3658
 632	1	6	0.132074	2.86145	33.3022	-12.9164
 633	1	6	0.154044	3.72431	31.7239	-11.2111
 634	1	6	0.145155	1.15409	29.9864	-15.0644
 635	1	6	0.14558	4.15476	29.8412	-12.9745
 636	1	9	-0.24014	1.8641	28.1836	-13.2266
 637	1	6	0.152938	3.31701	25.4168	-16.5124
 638	1	6	0.151751	1.68347	32.4245	-14.9347