pySIMM System Object

1857 atoms
2048 bonds
3517 angles
5494 dihedrals
640 impropers

9 atom types
11 bond types
19 angle types
8 dihedral types
4 improper types

-198.597967 198.597967 xlo xhi
-198.597967 198.597967 ylo yhi
-198.597967 198.597967 zlo zhi

Masses

   1	14.01	# n
   2	12.01	# c
   3	12.01	# ca
   4	1.008	# hn
   5	16.0	# o
   6	1.008	# ha
   7	12.01	# c3
   8	19.0	# f
   9	16.0	# os

Pair Coeffs

   1	0.17	3.249998523775958	# n
   2	0.086	3.3996695084235347	# c
   3	0.086	3.3996695084235347	# ca
   4	0.0157	1.069078461768407	# hn
   5	0.21	2.959921901149463	# o
   6	0.015	2.59964245953351	# ha
   7	0.1094	3.3996695084235347	# c3
   8	0.061	3.1181455134911875	# f
   9	0.17	3.0000123434657784	# os

Bond Coeffs

   1	427.6	1.3789	# c,n
   2	461.1	1.3984	# ca,ca
   3	356.9	1.3497	# c3,f
   4	345.9	1.4906	# c,ca
   5	345.8	1.086	# ca,ha
   6	384.2	1.4121	# ca,n
   7	637.7	1.2183	# c,o
   8	321.0	1.5156	# c3,ca
   9	300.9	1.5375	# c3,c3
  10	376.6	1.3696	# ca,os
  11	403.2	1.0129	# hn,n

Angle Coeffs

   1	62.86	111.51	# c3,c3,c3
   2	63.74	127.08	# c,n,c
   3	48.18	119.88	# ca,ca,ha
   4	68.72	122.6	# ca,c,o
   5	63.15	112.07	# c3,c3,ca
   6	70.89	107.36	# f,c3,f
   7	67.87	120.19	# ca,ca,n
   8	63.56	112.24	# ca,c3,ca
   9	63.82	123.71	# c,n,ca
  10	67.68	115.25	# ca,c,n
  11	69.58	119.2	# ca,ca,os
  12	48.33	117.55	# c,n,hn
  13	74.22	123.05	# n,c,o
  14	64.28	120.33	# c,ca,ca
  15	66.11	109.24	# c3,c3,f
  16	63.48	119.89	# ca,os,ca
  17	63.53	120.77	# c3,ca,ca
  18	66.62	120.02	# ca,ca,ca
  19	49.75	116.02	# ha,ca,n

Dihedral Coeffs

   1	1	0.0	2	0	# X,c3,ca,X
   2	1	0.9	2	180	# X,ca,os,X
   3	1	2.5	2	180	# X,c,n,X
   4	1	0.45	2	180	# X,ca,n,X
   5	2	2.5	2	180	2.0	1	0	# hn,n,c,o
   6	1	3.625	2	180	# X,ca,ca,X
   7	1	1.0	2	180	# X,c,ca,X
   8	1	0.15555555555555556	3	0	# X,c3,c3,X

Improper Coeffs

   1	10.5	-1	2	# c,X,X,o
   2	1.1	-1	2	# ca,ca,ca,c3
   3	1.1	-1	2	# n,X,X,hn
   4	1.1	-1	2	# ca,X,X,ha

Atoms

   1	1	1	0.48116	0.95994	-36.8349	24.9209
   2	1	2	0.034009	0.806344	-36.0263	26.0565
   3	1	3	0.028921	1.5371	-36.7256	27.1422
   4	1	2	0.071556	1.72446	-37.9799	25.1904
   5	1	3	0.025276	2.05089	-37.8987	26.6352
   6	1	5	-0.381907	0.112609	-35.0308	26.1965
   7	1	5	-0.393799	2.02987	-38.8938	24.4392
   8	1	3	-0.008998	1.68463	-36.3768	28.4895
   9	1	3	-0.064503	2.68333	-38.8247	27.4643
  10	1	3	-0.16756	2.8177	-38.5076	28.8309
  11	1	3	-0.085161	2.36537	-37.2661	29.3643
  12	1	6	0.158939	1.24903	-35.444	28.8314
  13	1	6	0.163781	3.0192	-39.7813	27.0686
  14	1	6	0.161401	3.26718	-39.2609	29.4729
  15	1	7	-0.078003	2.53274	-36.9451	30.8811
  16	1	7	0.303704	2.86119	-35.4204	31.1369
  17	1	8	-0.1084	3.79238	-34.9548	30.2747
  18	1	8	-0.101508	3.35154	-35.224	32.3818
  19	1	8	-0.111714	1.79521	-34.5982	31.019
  20	1	7	0.380371	1.16428	-37.3026	31.5732
  21	1	8	-0.124028	0.115137	-36.6866	30.9923
  22	1	8	-0.119704	1.13309	-36.9651	32.882
  23	1	8	-0.115877	0.893329	-38.6206	31.4753
  24	1	3	-0.024709	3.73626	-37.7648	31.4505
  25	1	3	-0.076489	3.62398	-38.6515	32.5577
  26	1	3	-0.052344	4.74583	-39.3865	32.9601
  27	1	3	-0.054202	5.0092	-37.6453	30.8214
  28	1	3	-0.149083	6.12862	-38.3865	31.2503
  29	1	3	-0.063027	5.96154	-39.261	32.3279
  30	1	2	0.499526	6.92029	-40.1975	32.9714
  31	1	1	-0.036881	6.20435	-40.8507	33.9729
  32	1	2	0.443545	4.88195	-40.4112	34.0282
  33	1	3	0.038197	6.75845	-41.8645	34.8162
  34	1	3	-0.408621	8.07797	-41.7531	35.2976
  35	1	3	0.252781	8.63653	-42.7586	36.1032
  36	1	3	-0.169778	6.0048	-42.9991	35.1816
  37	1	3	-0.113042	6.55412	-43.999	36.0039
  38	1	3	0.016958	7.88422	-43.8917	36.4506
  39	1	6	0.167832	7.09112	-38.299	30.7496
  40	1	6	0.134138	5.12933	-36.9911	29.9623
  41	1	6	0.145229	2.70002	-38.8038	33.1048
  42	1	5	-0.462312	3.97296	-40.8119	34.7363
  43	1	5	-0.483102	8.08019	-40.3629	32.632
  44	1	6	0.144532	5.94378	-44.8491	36.2958
  45	1	6	0.226042	8.6965	-40.8986	35.0384
  46	1	3	0.12103	8.03273	-46.1403	37.408
  47	1	3	-0.09864	7.89054	-46.6749	38.6979
  48	1	3	-0.194398	7.46452	-48.0038	38.8688
  49	1	3	-0.091961	7.18987	-48.8024	37.7458
  50	1	3	-0.197799	7.34938	-48.275	36.4528
  51	1	3	-0.102777	7.77635	-46.9454	36.283
  52	1	6	0.132074	6.86069	-49.8306	37.8778
  53	1	6	0.154044	7.14507	-48.8963	35.5843
  54	1	6	0.145155	8.10707	-46.0519	39.5606
  55	1	6	0.14558	7.91026	-46.5373	35.2853
  56	1	9	-0.24014	8.45905	-44.8381	37.2746
  57	1	6	0.152938	4.98048	-43.111	34.837
  58	1	6	0.151751	7.34987	-48.4135	39.8692
  59	1	1	0.48116	-5.6109	-45.7777	33.413
  60	1	2	0.034009	-4.28087	-45.4663	33.1002
  61	1	3	0.028921	-3.95186	-44.2757	33.9183
  62	1	2	0.071556	-6.1475	-44.8894	34.3587
  63	1	3	0.025276	-5.06286	-43.9152	34.6464
  64	1	5	-0.381907	-3.52637	-46.0072	32.3067
  65	1	5	-0.393799	-7.25682	-44.8989	34.8704
  66	1	3	-0.008998	-2.75373	-43.5646	34.005
  67	1	3	-0.064503	-5.04376	-42.7941	35.4816
  68	1	3	-0.16756	-3.8486	-42.0457	35.5682
  69	1	3	-0.085161	-2.68591	-42.4128	34.8322
  70	1	6	0.158939	-1.89958	-43.9074	33.4268
  71	1	6	0.163781	-5.93247	-42.5116	36.0415
  72	1	6	0.161401	-3.84546	-41.179	36.2217
  73	1	7	-0.078003	-1.34272	-41.6279	34.9121
  74	1	7	0.303704	-1.49846	-40.128	35.3818
  75	1	8	-0.1084	-2.48405	-39.4834	34.718
  76	1	8	-0.101508	-0.367155	-39.4214	35.1539
  77	1	8	-0.111714	-1.77101	-40.001	36.6998
  78	1	7	0.380371	-0.432533	-42.4009	35.94
  79	1	8	-0.124028	-1.06517	-42.5991	37.119
  80	1	8	-0.119704	0.719206	-41.7507	36.2203
  81	1	8	-0.115877	-0.101249	-43.6316	35.4863
  82	1	3	-0.024709	-0.760188	-41.5774	33.4703
  83	1	3	-0.076489	-1.62094	-41.1554	32.4271
  84	1	3	-0.052344	-1.13522	-41.1085	31.1208
  85	1	3	-0.054202	0.583851	-41.9212	33.1396
  86	1	3	-0.149083	1.05035	-41.8749	31.8077
  87	1	3	-0.063027	0.158485	-41.4644	30.8095
  88	1	2	0.499526	0.371504	-41.1936	29.3604
  89	1	1	-0.036881	-0.820678	-40.6375	28.908
  90	1	2	0.443545	-1.79274	-40.6011	29.8967
  91	1	3	0.038197	-1.00228	-40.0426	27.6313
  92	1	3	-0.408621	-0.718729	-40.7486	26.4491
  93	1	3	0.252781	-0.90239	-40.1356	25.1977
  94	1	3	-0.169778	-1.47197	-38.7186	27.5477
  95	1	3	-0.113042	-1.64975	-38.1003	26.3017
  96	1	3	0.016958	-1.35721	-38.8065	25.1239
  97	1	6	0.167832	2.08213	-42.1189	31.5639
  98	1	6	0.134138	1.29347	-42.2178	33.9052
  99	1	6	0.145229	-2.64881	-40.8544	32.6214
 100	1	5	-0.462312	-2.92829	-40.1652	29.8244
 101	1	5	-0.483102	1.41274	-41.3562	28.7461
 102	1	6	0.144532	-1.98733	-37.0688	26.2511
 103	1	6	0.226042	-0.339105	-41.7654	26.4883
 104	1	3	0.12103	-1.04946	-36.8859	23.6639
 105	1	3	-0.09864	-2.03272	-35.9708	23.2547
 106	1	3	-0.194398	-1.67081	-34.6812	22.8418
 107	1	3	-0.091961	-0.315847	-34.3286	22.7987
 108	1	3	-0.197799	0.664056	-35.2545	23.1891
 109	1	3	-0.102777	0.324491	-36.5437	23.6656
 110	1	6	0.132074	-0.0191144	-33.3411	22.4549
 111	1	6	0.154044	1.70948	-34.9528	23.15
 112	1	6	0.145155	-3.07465	-36.277	23.2359
 113	1	6	0.14558	0.865556	-37.2901	23.0959
 114	1	9	-0.24014	-1.44724	-38.1855	23.8988
 115	1	6	0.152938	-1.69855	-38.1623	28.4546
 116	1	6	0.151751	-2.43229	-33.9742	22.5203
 117	1	1	0.48116	-2.06225	-31.1763	24.5107
 118	1	2	0.034009	-1.50373	-31.773	25.6475
 119	1	3	0.028921	-2.6238	-32.4778	26.3167
 120	1	2	0.071556	-3.43832	-31.4338	24.4053
 121	1	3	0.025276	-3.77147	-32.2713	25.5855
 122	1	5	-0.381907	-0.366212	-31.6592	26.0775
 123	1	5	-0.393799	-4.24182	-31.0238	23.5814
 124	1	3	-0.008998	-2.62836	-33.2074	27.508
 125	1	3	-0.064503	-4.9994	-32.7812	26.013
 126	1	3	-0.16756	-5.02734	-33.5259	27.2113
 127	1	3	-0.085161	-3.85213	-33.7592	27.9831
 128	1	6	0.158939	-1.67961	-33.3176	28.0204
 129	1	6	0.163781	-5.90235	-32.597	25.4351
 130	1	6	0.161401	-5.98065	-33.9361	27.5348
 131	1	7	-0.078003	-3.96022	-34.5923	29.304
 132	1	7	0.303704	-2.55671	-34.8446	29.9767
 133	1	8	-0.1084	-1.72204	-35.4837	29.1254
 134	1	8	-0.101508	-2.62696	-35.6333	31.0725
 135	1	8	-0.111714	-1.95654	-33.7008	30.3765
 136	1	7	0.380371	-4.87663	-33.7707	30.2977
 137	1	8	-0.124028	-4.56179	-32.4553	30.2848
 138	1	8	-0.119704	-4.79096	-34.1612	31.5886
 139	1	8	-0.115877	-6.18451	-33.8631	29.9684
 140	1	3	-0.024709	-4.54626	-36.0019	28.9936
 141	1	3	-0.076489	-5.05077	-36.8224	30.0365
 142	1	3	-0.052344	-5.43468	-38.1356	29.7471
 143	1	3	-0.054202	-4.46882	-36.5593	27.6836
 144	1	3	-0.149083	-4.8886	-37.877	27.408
 145	1	3	-0.063027	-5.36129	-38.6507	28.4715
 146	1	2	0.499526	-5.7739	-40.0798	28.5228
 147	1	1	-0.036881	-6.07267	-40.3357	29.8572
 148	1	2	0.443545	-5.88564	-39.2168	30.6601
 149	1	3	0.038197	-6.52078	-41.5925	30.3505
 150	1	3	-0.408621	-5.86303	-42.7819	29.9858
 151	1	3	0.252781	-6.31678	-44.0201	30.4672
 152	1	3	-0.169778	-7.62885	-41.6593	31.2165
 153	1	3	-0.113042	-8.08001	-42.895	31.7071
 154	1	3	0.016958	-7.42931	-44.0771	31.3292
 155	1	6	0.167832	-4.79884	-38.3049	26.4114
 156	1	6	0.134138	-4.04553	-35.9886	26.8631
 157	1	6	0.145229	-5.0906	-36.4904	31.0688
 158	1	5	-0.462312	-6.05579	-39.1134	31.8643
 159	1	5	-0.483102	-5.85253	-40.8383	27.5696
 160	1	6	0.144532	-8.92813	-42.9405	32.3855
 161	1	6	0.226042	-5.01233	-42.7543	29.3102
 162	1	3	0.12103	-7.19316	-46.4449	31.7462
 163	1	3	-0.09864	-7.43451	-47.2589	30.6286
 164	1	3	-0.194398	-6.75232	-48.4738	30.4836
 165	1	3	-0.091961	-5.82458	-48.8596	31.4594
 166	1	3	-0.197799	-5.61441	-48.0515	32.5895
 167	1	3	-0.102777	-6.34161	-46.8525	32.7985
 168	1	6	0.132074	-5.25415	-49.7772	31.3324
 169	1	6	0.154044	-4.85469	-48.354	33.3084
 170	1	6	0.145155	-8.14188	-46.9329	29.8706
 171	1	6	0.14558	-6.98926	-47.0313	33.65
 172	1	9	-0.24014	-7.89099	-45.2671	31.8446
 173	1	6	0.152938	-8.14052	-40.7488	31.5187
 174	1	6	0.151751	-6.92171	-49.0972	29.6089
 175	1	1	0.48116	-5.0741	-23.1287	11.8264
 176	1	2	0.034009	-5.80885	-24.2146	11.3262
 177	1	3	0.028921	-4.85675	-25.3511	11.2831
 178	1	2	0.071556	-3.7437	-23.4783	12.0978
 179	1	3	0.025276	-3.63239	-24.9137	11.7387
 180	1	5	-0.381907	-6.99669	-24.2804	11.0505
 181	1	5	-0.393799	-2.86397	-22.7981	12.6037
 182	1	3	-0.008998	-5.07533	-26.6824	10.912
 183	1	3	-0.064503	-2.54584	-25.7841	11.8408
 184	1	3	-0.16756	-2.74185	-27.1301	11.4701
 185	1	3	-0.085161	-4.00382	-27.6102	11.0173
 186	1	6	0.158939	-6.06569	-26.9593	10.5667
 187	1	6	0.163781	-1.58547	-25.4262	12.2052
 188	1	6	0.161401	-1.89793	-27.8117	11.5489
 189	1	7	-0.078003	-4.14324	-29.1152	10.636
 190	1	7	0.303704	-5.6372	-29.6117	10.5469
 191	1	8	-0.1084	-6.3437	-29.2802	11.6514
 192	1	8	-0.101508	-5.70957	-30.9588	10.4478
 193	1	8	-0.111714	-6.30162	-29.1116	9.48104
 194	1	7	0.380371	-3.4566	-29.2772	9.22481
 195	1	8	-0.124028	-3.88757	-28.3384	8.35177
 196	1	8	-0.119704	-3.69363	-30.4757	8.64516
 197	1	8	-0.115877	-2.11383	-29.1331	9.30041
 198	1	3	-0.024709	-3.47465	-29.9613	11.7597
 199	1	3	-0.076489	-3.7209	-29.6141	13.1138
 200	1	3	-0.052344	-3.13188	-30.3723	14.1319
 201	1	3	-0.054202	-2.6583	-31.0994	11.4954
 202	1	3	-0.149083	-2.07078	-31.847	12.5373
 203	1	3	-0.063027	-2.32247	-31.4529	13.8551
 204	1	2	0.499526	-1.85749	-32.0305	15.1456
 205	1	1	-0.036881	-2.44224	-31.2499	16.1338
 206	1	2	0.443545	-3.22083	-30.2266	15.6075
 207	1	3	0.038197	-2.25491	-31.449	17.5274
 208	1	3	-0.408621	-0.960884	-31.4464	18.079
 209	1	3	0.252781	-0.785515	-31.5392	19.4687
 210	1	3	-0.169778	-3.36886	-31.5955	18.3759
 211	1	3	-0.113042	-3.19733	-31.6972	19.7666
 212	1	3	0.016958	-1.90546	-31.6492	20.3109
 213	1	6	0.167832	-1.44477	-32.7127	12.3292
 214	1	6	0.134138	-2.46627	-31.428	10.4805
 215	1	6	0.145229	-4.35646	-28.7714	13.3773
 216	1	5	-0.462312	-3.83846	-29.3644	16.2087
 217	1	5	-0.483102	-1.09614	-32.9732	15.2793
 218	1	6	0.144532	-4.05986	-31.7511	20.4272
 219	1	6	0.226042	-0.0878112	-31.3509	17.44
 220	1	3	0.12103	-1.70523	-30.3047	22.3057
 221	1	3	-0.09864	-1.97251	-29.1107	21.6026
 222	1	3	-0.194398	-1.83519	-27.8692	22.237
 223	1	3	-0.091961	-1.41707	-27.8185	23.5713
 224	1	3	-0.197799	-1.16419	-29.0091	24.2695
 225	1	3	-0.102777	-1.32603	-30.2789	23.6649
 226	1	6	0.132074	-1.29517	-26.8579	24.0671
 227	1	6	0.154044	-0.841798	-28.9465	25.3087
 228	1	6	0.145155	-2.28457	-29.1361	20.5626
 229	1	6	0.14558	-0.402336	-30.8414	23.7539
 230	1	9	-0.24014	-1.75565	-31.5306	21.6706
 231	1	6	0.152938	-4.3739	-31.5862	17.961
 232	1	6	0.151751	-2.04259	-26.9516	21.6916
 233	1	1	0.48116	-10.1607	-9.97657	0.924826
 234	1	2	0.034009	-9.93954	-10.7662	2.06159
 235	1	3	0.028921	-11.237	-11.4376	2.34197
 236	1	2	0.071556	-11.4784	-10.0864	0.459944
 237	1	3	0.025276	-12.1472	-11.0277	1.39195
 238	1	5	-0.381907	-8.90567	-10.9223	2.69112
 239	1	5	-0.393799	-11.9899	-9.57516	-0.52462
 240	1	3	-0.008998	-11.5868	-12.3535	3.34436
 241	1	3	-0.064503	-13.4623	-11.4951	1.39876
 242	1	3	-0.16756	-13.8358	-12.4174	2.3974
 243	1	3	-0.085161	-12.907	-12.8818	3.37275
 244	1	6	0.158939	-10.8394	-12.6492	4.07703
 245	1	6	0.163781	-14.1715	-11.1492	0.649741
 246	1	6	0.161401	-14.8653	-12.7586	2.39348
 247	1	7	-0.078003	-13.301	-13.9065	4.4816
 248	1	7	0.303704	-13.5715	-13.0681	5.78898
 249	1	8	-0.1084	-12.4337	-12.5273	6.27996
 250	1	8	-0.101508	-14.1347	-13.7932	6.78248
 251	1	8	-0.111714	-14.4073	-12.0317	5.55055
 252	1	7	0.380371	-14.5885	-14.7549	4.13845
 253	1	8	-0.124028	-15.7388	-14.0482	4.21584
 254	1	8	-0.119704	-14.7315	-15.8058	4.97871
 255	1	8	-0.115877	-14.5289	-15.2809	2.89356
 256	1	3	-0.024709	-12.1443	-14.9388	4.62814
 257	1	3	-0.076489	-11.6621	-15.3857	5.8878
 258	1	3	-0.052344	-10.6491	-16.3527	5.92152
 259	1	3	-0.054202	-11.5862	-15.5152	3.45182
 260	1	3	-0.149083	-10.5723	-16.4924	3.50921
 261	1	3	-0.063027	-10.1193	-16.8924	4.76961
 262	1	2	0.499526	-9.08961	-17.8954	5.1529
 263	1	1	-0.036881	-9.05741	-17.8886	6.5428
 264	1	2	0.443545	-9.97409	-16.9908	7.08163
 265	1	3	0.038197	-8.2031	-18.7125	7.33082
 266	1	3	-0.408621	-8.07594	-20.088	7.05605
 267	1	3	0.252781	-7.29065	-20.9106	7.88032
 268	1	3	-0.169778	-7.49778	-18.1649	8.42018
 269	1	3	-0.113042	-6.71303	-18.9835	9.24868
 270	1	3	0.016958	-6.6243	-20.3605	8.98759
 271	1	6	0.167832	-10.1559	-16.9332	2.60539
 272	1	6	0.134138	-11.9509	-15.2092	2.47436
 273	1	6	0.145229	-12.0522	-15.0178	6.83114
 274	1	5	-0.462312	-10.2106	-16.7672	8.25685
 275	1	5	-0.483102	-8.44284	-18.5845	4.38231
 276	1	6	0.144532	-6.21234	-18.5622	10.1164
 277	1	6	0.226042	-8.59136	-20.5339	6.21019
 278	1	3	0.12103	-6.52026	-21.3705	11.1727
 279	1	3	-0.09864	-7.87058	-21.0821	11.4598
 280	1	3	-0.194398	-8.35723	-21.2075	12.7676
 281	1	3	-0.091961	-7.48601	-21.5922	13.7934
 282	1	3	-0.197799	-6.14638	-21.8905	13.4979
 283	1	3	-0.102777	-5.65349	-21.8614	12.1714
 284	1	6	0.132074	-7.84991	-21.664	14.816
 285	1	6	0.154044	-5.48485	-22.1888	14.3102
 286	1	6	0.145155	-8.54522	-20.7587	10.6724
 287	1	6	0.14558	-4.71969	-21.312	12.1202
 288	1	9	-0.24014	-6.01395	-21.1885	9.90016
 289	1	6	0.152938	-7.5867	-17.1061	8.6513
 290	1	6	0.151751	-9.3998	-20.9886	12.9848
 291	1	1	0.48116	-21.1313	3.61305	0.673317
 292	1	2	0.034009	-19.9999	3.56213	1.50324
 293	1	3	0.028921	-18.8312	3.5588	0.5861
 294	1	2	0.071556	-20.7755	3.7302	-0.679819
 295	1	3	0.025276	-19.2932	3.63613	-0.703912
 296	1	5	-0.381907	-19.9548	3.32911	2.70144
 297	1	5	-0.393799	-21.496	3.75189	-1.66565
 298	1	3	-0.008998	-17.4759	3.35912	0.87731
 299	1	3	-0.064503	-18.424	3.44535	-1.7758
 300	1	3	-0.16756	-17.0689	3.16709	-1.49484
 301	1	3	-0.085161	-16.5305	3.15194	-0.170657
 302	1	6	0.158939	-17.2176	3.32455	1.92621
 303	1	6	0.163781	-18.8041	3.44355	-2.79535
 304	1	6	0.161401	-16.4528	2.94583	-2.35133
 305	1	7	-0.078003	-14.9897	2.88252	0.110385
 306	1	7	0.303704	-14.1364	3.28998	-1.16691
 307	1	8	-0.1084	-14.5393	4.48249	-1.63868
 308	1	8	-0.101508	-14.246	2.39606	-2.1761
 309	1	8	-0.111714	-12.8057	3.42081	-0.964322
 310	1	7	0.380371	-14.4675	3.7737	1.3092
 311	1	8	-0.124028	-13.1453	3.63382	1.5536
 312	1	8	-0.119704	-15.0339	3.475	2.4964
 313	1	8	-0.115877	-14.6955	5.08185	1.07039
 314	1	3	-0.024709	-14.7608	1.3853	0.488103
 315	1	3	-0.076489	-13.6091	0.653804	0.0719207
 316	1	3	-0.052344	-13.4656	-0.685426	0.460308
 317	1	3	-0.054202	-15.6905	0.718426	1.33539
 318	1	3	-0.149083	-15.5267	-0.623322	1.71988
 319	1	3	-0.063027	-14.4058	-1.30563	1.24919
 320	1	2	0.499526	-13.9502	-2.68567	1.5303
 321	1	1	-0.036881	-12.6971	-2.80333	0.933893
 322	1	2	0.443545	-12.3557	-1.65347	0.223949
 323	1	3	0.038197	-11.8444	-3.93288	1.13376
 324	1	3	-0.408621	-11.7988	-4.5395	2.40314
 325	1	3	0.252781	-11.0418	-5.69557	2.62095
 326	1	3	-0.169778	-11.0481	-4.47168	0.100648
 327	1	3	-0.113042	-10.2644	-5.6244	0.322076
 328	1	3	0.016958	-10.2801	-6.2507	1.58541
 329	1	6	0.167832	-16.2379	-1.11337	2.38193
 330	1	6	0.134138	-16.5517	1.232	1.73523
 331	1	6	0.145229	-12.8184	1.08737	-0.529765
 332	1	5	-0.462312	-11.3432	-1.43588	-0.419252
 333	1	5	-0.483102	-14.5647	-3.50363	2.19496
 334	1	6	0.144532	-9.67099	-6.03441	-0.490326
 335	1	6	0.226042	-12.3874	-4.15168	3.22877
 336	1	3	0.12103	-8.72343	-8.06065	1.03792
 337	1	3	-0.09864	-7.40399	-7.58508	0.986649
 338	1	3	-0.194398	-6.4397	-8.27646	0.240471
 339	1	3	-0.091961	-6.79808	-9.46064	-0.417651
 340	1	3	-0.197799	-8.12186	-9.92799	-0.353591
 341	1	3	-0.102777	-9.13803	-9.18796	0.29739
 342	1	6	0.132074	-6.04341	-10.0309	-0.95511
 343	1	6	0.154044	-8.36728	-10.8689	-0.842474
 344	1	6	0.145155	-7.12848	-6.70193	1.55683
 345	1	6	0.14558	-9.74264	-8.77637	-0.501406
 346	1	9	-0.24014	-9.61815	-7.42694	1.86205
 347	1	6	0.152938	-11.0425	-4.00565	-0.882279
 348	1	6	0.151751	-5.41121	-7.92404	0.213078
 349	1	1	0.48116	-16.3076	17.2924	3.60582
 350	1	2	0.034009	-16.2495	16.5678	2.40809
 351	1	3	0.028921	-15.8872	15.175	2.79709
 352	1	2	0.071556	-16.0879	16.4682	4.71984
 353	1	3	0.025276	-15.8339	15.1146	4.17145
 354	1	5	-0.381907	-16.4884	16.9609	1.27768
 355	1	5	-0.393799	-16.038	16.7709	5.90179
 356	1	3	-0.008998	-15.5079	14.0812	2.00643
 357	1	3	-0.064503	-15.5161	13.9296	4.83602
 358	1	3	-0.16756	-15.1342	12.8202	4.05873
 359	1	3	-0.085161	-15.0308	12.9009	2.64318
 360	1	6	0.158939	-15.508	14.2143	0.930037
 361	1	6	0.163781	-15.5147	13.888	5.92237
 362	1	6	0.161401	-14.8592	11.9047	4.57548
 363	1	7	-0.078003	-14.3521	11.7182	1.8823
 364	1	7	0.303704	-12.8566	11.63	2.39791
 365	1	8	-0.1084	-12.7714	11.1334	3.653
 366	1	8	-0.101508	-12.2774	12.8525	2.42816
 367	1	8	-0.111714	-12.0559	10.8505	1.63815
 368	1	7	0.380371	-14.3457	11.8888	0.316852
 369	1	8	-0.124028	-13.6343	12.961	-0.0622913
 370	1	8	-0.119704	-13.8209	10.8205	-0.327808
 371	1	8	-0.115877	-15.587	12.0389	-0.193352
 372	1	3	-0.024709	-15.1817	10.449	2.15432
 373	1	3	-0.076489	-16.59	10.5723	2.12958
 374	1	3	-0.052344	-17.366	9.42206	2.1967
 375	1	3	-0.054202	-14.605	9.15575	2.29012
 376	1	3	-0.149083	-15.4134	8.00643	2.38468
 377	1	3	-0.063027	-16.8003	8.17124	2.30632
 378	1	2	0.499526	-17.8943	7.17405	2.21194
 379	1	1	-0.036881	-19.0519	7.91634	2.02581
 380	1	2	0.443545	-18.8285	9.27875	2.03815
 381	1	3	0.038197	-20.3157	7.3589	1.75255
 382	1	3	-0.408621	-20.7475	7.24635	0.420694
 383	1	3	0.252781	-21.9811	6.65122	0.136431
 384	1	3	-0.169778	-21.1444	6.93928	2.80575
 385	1	3	-0.113042	-22.3793	6.33606	2.52607
 386	1	3	0.016958	-22.7698	6.1608	1.18905
 387	1	6	0.167832	-14.9717	7.01914	2.47059
 388	1	6	0.134138	-13.5287	9.01782	2.28287
 389	1	6	0.145229	-17.0836	11.5294	1.98044
 390	1	5	-0.462312	-19.6347	10.178	1.87819
 391	1	5	-0.483102	-17.7631	5.96431	2.20528
 392	1	6	0.144532	-22.9941	5.94272	3.33233
 393	1	6	0.226042	-20.1325	7.60347	-0.399893
 394	1	3	0.12103	-23.5115	3.9823	0.538617
 395	1	3	-0.09864	-24.4385	3.36563	-0.314493
 396	1	3	-0.194398	-24.3689	1.98718	-0.555407
 397	1	3	-0.091961	-23.4274	1.21699	0.137905
 398	1	3	-0.197799	-22.5285	1.83757	1.01878
 399	1	3	-0.102777	-22.4488	3.24606	1.1292
 400	1	6	0.132074	-23.401	0.138506	0.00253926
 401	1	6	0.154044	-21.8091	1.21894	1.55471
 402	1	6	0.145155	-25.2241	3.9626	-0.768735
 403	1	6	0.14558	-22.305	3.56964	2.15403
 404	1	9	-0.24014	-23.7783	5.28804	0.896603
 405	1	6	0.152938	-20.813	7.04389	3.83583
 406	1	6	0.151751	-25.0759	1.51308	-1.23087
 407	1	1	0.48116	-1.62121	27.5177	4.10254
 408	1	2	0.034009	-1.39521	26.9473	2.84431
 409	1	3	0.028921	-2.74407	26.7187	2.26815
 410	1	2	0.071556	-2.98306	27.76	4.33305
 411	1	3	0.025276	-3.68053	27.2383	3.13208
 412	1	5	-0.381907	-0.334004	26.639	2.32608
 413	1	5	-0.393799	-3.52438	28.2125	5.3301
 414	1	3	-0.008998	-3.11856	26.0314	1.10906
 415	1	3	-0.064503	-5.04134	27.1998	2.82717
 416	1	3	-0.16756	-5.43409	26.578	1.6238
 417	1	3	-0.085161	-4.49982	25.9053	0.783087
 418	1	6	0.158939	-2.32798	25.6218	0.490313
 419	1	6	0.163781	-5.7684	27.6417	3.50496
 420	1	6	0.161401	-6.48976	26.603	1.37025
 421	1	7	-0.078003	-4.96697	25.124	-0.493062
 422	1	7	0.303704	-4.69554	26.0887	-1.71478
 423	1	8	-0.1084	-5.57919	27.1123	-1.7232
 424	1	8	-0.101508	-4.76171	25.4743	-2.91751
 425	1	8	-0.111714	-3.46759	26.6532	-1.67284
 426	1	7	0.380371	-4.15888	23.7809	-0.680993
 427	1	8	-0.124028	-4.71665	22.9852	-1.62244
 428	1	8	-0.119704	-4.13627	23.0627	0.46463
 429	1	8	-0.115877	-2.87519	23.9584	-1.06314
 430	1	3	-0.024709	-6.47345	24.6863	-0.388144
 431	1	3	-0.076489	-6.99908	24.1789	0.835804
 432	1	3	-0.052344	-8.35046	23.7977	0.91053
 433	1	3	-0.054202	-7.33886	24.6766	-1.52311
 434	1	3	-0.149083	-8.67348	24.2329	-1.44491
 435	1	3	-0.063027	-9.15937	23.8134	-0.204697
 436	1	2	0.499526	-10.4761	23.2262	0.158125
 437	1	1	-0.036881	-10.3821	22.8845	1.5007
 438	1	2	0.443545	-9.1486	23.234	2.04123
 439	1	3	0.038197	-11.3451	22.0502	2.13909
 440	1	3	-0.408621	-11.3935	20.6964	1.76737
 441	1	3	0.252781	-12.3973	19.8524	2.26376
 442	1	3	-0.169778	-12.2958	22.54	3.05905
 443	1	3	-0.113042	-13.298	21.6857	3.57384
 444	1	3	0.016958	-13.3628	20.3399	3.15695
 445	1	6	0.167832	-9.30826	24.1981	-2.32863
 446	1	6	0.134138	-6.9915	24.9827	-2.50137
 447	1	6	0.145229	-6.37424	24.0888	1.72136
 448	1	5	-0.462312	-8.76421	23.0777	3.18644
 449	1	5	-0.483102	-11.3834	22.9775	-0.616405
 450	1	6	0.144532	-14.0433	22.0712	4.26569
 451	1	6	0.226042	-10.6801	20.2998	1.05199
 452	1	3	0.12103	-15.6911	19.5622	3.11237
 453	1	3	-0.09864	-16.074	20.5662	2.19846
 454	1	3	-0.194398	-17.4194	20.729	1.84234
 455	1	3	-0.091961	-18.3896	19.8907	2.40113
 456	1	3	-0.197799	-18.0089	18.8872	3.30306
 457	1	3	-0.102777	-16.657	18.6869	3.67119
 458	1	6	0.132074	-19.4352	20.0078	2.12493
 459	1	6	0.154044	-18.779	18.2285	3.70159
 460	1	6	0.145155	-15.3354	21.2358	1.76911
 461	1	6	0.14558	-16.5704	18.772	4.74686
 462	1	9	-0.24014	-14.3823	19.4968	3.56945
 463	1	6	0.152938	-12.276	23.5861	3.35587
 464	1	6	0.151751	-17.7087	21.506	1.13935
 465	1	1	0.48116	-0.710591	12.2582	-3.79218
 466	1	2	0.034009	-1.89641	12.904	-4.16607
 467	1	3	0.028921	-2.46176	13.3863	-2.88812
 468	1	2	0.071556	-0.665532	11.9986	-2.41215
 469	1	3	0.025276	-1.72156	12.8708	-1.84571
 470	1	5	-0.381907	-2.19584	13.3521	-5.26198
 471	1	5	-0.393799	0.222363	11.471	-1.75939
 472	1	3	-0.008998	-3.25092	14.5245	-2.73577
 473	1	3	-0.064503	-1.751	13.4627	-0.57887
 474	1	3	-0.16756	-2.49632	14.6501	-0.420005
 475	1	3	-0.085161	-3.209	15.228	-1.50734
 476	1	6	0.158939	-3.74378	14.9135	-3.61928
 477	1	6	0.163781	-1.10078	13.0947	0.212238
 478	1	6	0.161401	-2.44859	15.1665	0.536823
 479	1	7	-0.078003	-3.83955	16.6385	-1.35645
 480	1	7	0.303704	-4.07961	17.3773	-2.74066
 481	1	8	-0.1084	-4.31649	18.6967	-2.56167
 482	1	8	-0.101508	-5.12766	16.8944	-3.4444
 483	1	8	-0.111714	-3.00872	17.3055	-3.56583
 484	1	7	0.380371	-5.22859	16.4346	-0.643787
 485	1	8	-0.124028	-5.99864	15.5346	-1.29751
 486	1	8	-0.119704	-5.9411	17.5808	-0.554958
 487	1	8	-0.115877	-5.08275	15.9444	0.608161
 488	1	3	-0.024709	-2.83947	17.5423	-0.567256
 489	1	3	-0.076489	-3.20654	18.2701	0.59647
 490	1	3	-0.052344	-2.29739	19.1861	1.14165
 491	1	3	-0.054202	-1.52475	17.732	-1.08475
 492	1	3	-0.149083	-0.637515	18.6831	-0.539525
 493	1	3	-0.063027	-1.06707	19.4166	0.570427
 494	1	2	0.499526	-0.428487	20.555	1.2843
 495	1	1	-0.036881	-1.33241	20.9485	2.26947
 496	1	2	0.443545	-2.46647	20.1368	2.2707
 497	1	3	0.038197	-1.151	22.0816	3.12707
 498	1	3	-0.408621	0.125707	22.4329	3.61418
 499	1	3	0.252781	0.298876	23.5615	4.43577
 500	1	3	-0.169778	-2.25082	22.8857	3.49359
 501	1	3	-0.113042	-2.08838	23.988	4.34819
 502	1	3	0.016958	-0.811964	24.3365	4.81184
 503	1	6	0.167832	0.336425	18.875	-0.987173
 504	1	6	0.134138	-1.19903	17.1738	-1.95807
 505	1	6	0.145229	-4.18555	18.1899	1.05624
 506	1	5	-0.462312	-3.43395	20.1782	3.01112
 507	1	5	-0.483102	0.640124	21.0597	0.984532
 508	1	6	0.144532	-2.95235	24.5715	4.65331
 509	1	6	0.226042	1.00281	21.8518	3.34542
 510	1	3	0.12103	0.0744242	26.5127	5.42474
 511	1	3	-0.09864	1.44967	26.4854	5.70834
 512	1	3	-0.194398	2.21753	27.6521	5.57485
 513	1	3	-0.091961	1.60628	28.8368	5.14216
 514	1	3	-0.197799	0.231312	28.8523	4.85375
 515	1	3	-0.102777	-0.579098	27.7122	5.06879
 516	1	6	0.132074	2.20105	29.7387	5.01478
 517	1	6	0.154044	-0.219156	29.7773	4.49805
 518	1	6	0.145155	1.91333	25.5615	6.04017
 519	1	6	0.14558	-1.22339	27.9488	5.90707
 520	1	9	-0.24014	-0.692905	25.3979	5.68118
 521	1	6	0.152938	-3.2493	22.6495	3.13626
 522	1	6	0.151751	3.28325	27.6336	5.78782
 523	1	1	0.48116	-9.4926	8.74795	-18.325
 524	1	2	0.034009	-8.22999	8.53235	-18.8967
 525	1	3	0.028921	-7.38351	9.65978	-18.4346
 526	1	2	0.071556	-9.53566	9.9688	-17.6208
 527	1	3	0.025276	-8.151	10.4925	-17.6541
 528	1	5	-0.381907	-7.85845	7.59761	-19.5906
 529	1	5	-0.393799	-10.4767	10.5464	-17.0968
 530	1	3	-0.008998	-6.02831	9.91139	-18.662
 531	1	3	-0.064503	-7.59684	11.5997	-17.0086
 532	1	3	-0.16756	-6.22496	11.8599	-17.2037
 533	1	3	-0.085161	-5.42108	11.0369	-18.0408
 534	1	6	0.158939	-5.49343	9.23472	-19.317
 535	1	6	0.163781	-8.21514	12.2322	-16.3752
 536	1	6	0.161401	-5.79167	12.7323	-16.7195
 537	1	7	-0.078003	-3.95783	11.4657	-18.3397
 538	1	7	0.303704	-3.06794	10.2844	-18.8948
 539	1	8	-0.1084	-1.77513	10.6425	-18.9543
 540	1	8	-0.101508	-3.38277	9.89017	-20.1496
 541	1	8	-0.111714	-3.1296	9.18062	-18.1176
 542	1	7	0.380371	-4.06857	12.5692	-19.4681
 543	1	8	-0.124028	-4.76584	12.1308	-20.5422
 544	1	8	-0.119704	-2.86568	12.9771	-19.933
 545	1	8	-0.115877	-4.73025	13.6706	-19.0448
 546	1	3	-0.024709	-3.28912	11.9736	-17.0119
 547	1	3	-0.076489	-3.23026	11.1207	-15.8706
 548	1	3	-0.052344	-2.60216	11.5696	-14.6912
 549	1	3	-0.054202	-2.71475	13.2736	-16.8874
 550	1	3	-0.149083	-2.11161	13.7132	-15.6914
 551	1	3	-0.063027	-2.06184	12.8321	-14.6072
 552	1	2	0.499526	-1.50025	13.019	-13.2412
 553	1	1	-0.036881	-1.75963	11.842	-12.5433
 554	1	2	0.443545	-2.39934	10.9066	-13.3643
 555	1	3	0.038197	-1.44211	11.6558	-11.1521
 556	1	3	-0.408621	-1.2018	10.0146	-10.4806
 557	1	3	0.252781	-0.809344	9.77838	-8.74018
 558	1	3	-0.169778	-1.3506	13.0699	-10.0631
 559	1	3	-0.113042	-1.01171	12.8285	-8.27422
 560	1	3	0.016958	-0.765912	11.1804	-7.63595
 561	1	6	0.167832	-1.68483	14.7112	-15.6105
 562	1	6	0.134138	-2.71836	13.9761	-17.7118
 563	1	6	0.145229	-3.66156	10.1236	-15.8916
 564	1	5	-0.462312	-2.78196	9.78665	-13.0743
 565	1	5	-0.483102	-0.925557	14.0217	-12.8527
 566	1	6	0.144532	-0.998863	13.6816	-7.59998
 567	1	6	0.226042	-1.31711	9.13771	-11.1171
 568	1	3	0.12103	0.594149	11.4087	-5.66431
 569	1	3	-0.09864	1.85755	11.0552	-6.17593
 570	1	3	-0.194398	3.02873	11.5412	-5.57612
 571	1	3	-0.091961	2.93405	12.3456	-4.43551
 572	1	3	-0.197799	1.67252	12.6952	-3.937
 573	1	3	-0.102777	0.476308	12.3333	-4.60703
 574	1	6	0.132074	3.83331	12.6786	-3.92171
 575	1	6	0.154044	1.62607	13.2928	-3.02706
 576	1	6	0.145155	1.93278	10.3881	-7.02822
 577	1	6	0.14558	0.2128	13.2425	-5.13429
 578	1	9	-0.24014	-0.539835	10.9607	-6.29792
 579	1	6	0.152938	-1.52892	14.0735	-10.4448
 580	1	6	0.151751	4.00393	11.2628	-5.96775
 581	1	1	0.48116	-16.0339	11.8366	-4.25205
 582	1	2	0.034009	-15.5142	11.1121	-5.34802
 583	1	3	0.028921	-15.9408	9.70424	-5.14764
 584	1	2	0.071556	-16.8896	11.0206	-3.48666
 585	1	3	0.025276	-16.7957	9.66689	-4.07392
 586	1	5	-0.381907	-14.784	11.4734	-6.25716
 587	1	5	-0.393799	-17.4426	11.2556	-2.4241
 588	1	3	-0.008998	-15.3522	8.53681	-5.6539
 589	1	3	-0.064503	-17.2022	8.46068	-3.51338
 590	1	3	-0.16756	-16.6373	7.27626	-4.01691
 591	1	3	-0.085161	-15.6512	7.28022	-5.05553
 592	1	6	0.158939	-14.5368	8.65363	-6.36072
 593	1	6	0.163781	-17.8147	8.45254	-2.61388
 594	1	6	0.161401	-16.8409	6.40051	-3.41799
 595	1	7	-0.078003	-14.6152	6.10529	-5.18628
 596	1	7	0.303704	-13.5973	6.42802	-4.00004
 597	1	8	-0.1084	-14.1887	6.83268	-2.85603
 598	1	8	-0.101508	-12.7867	5.41299	-3.63314
 599	1	8	-0.111714	-12.7896	7.45935	-4.34364
 600	1	7	0.380371	-15.2396	4.64596	-5.13292
 601	1	8	-0.124028	-14.3065	3.69442	-4.91392
 602	1	8	-0.119704	-15.824	4.31289	-6.30587
 603	1	8	-0.115877	-16.1863	4.44506	-4.2055
 604	1	3	-0.024709	-13.8423	6.11166	-6.54428
 605	1	3	-0.076489	-14.4749	6.48724	-7.76306
 606	1	3	-0.052344	-13.7038	6.5357	-8.93671
 607	1	3	-0.054202	-12.4943	5.6499	-6.6098
 608	1	3	-0.149083	-11.7344	5.72871	-7.78361
 609	1	3	-0.063027	-12.3614	6.2163	-8.92527
 610	1	2	0.499526	-11.7918	6.47684	-10.2639
 611	1	1	-0.036881	-12.8555	6.92759	-11.0304
 612	1	2	0.443545	-14.0532	6.95029	-10.3265
 613	1	3	0.038197	-12.6805	7.33881	-12.3732
 614	1	3	-0.408621	-11.8068	8.40507	-12.6409
 615	1	3	0.252781	-11.3807	8.64749	-13.9515
 616	1	3	-0.169778	-13.2177	6.59101	-13.4374
 617	1	3	-0.113042	-12.8045	6.84588	-14.7595
 618	1	3	0.016958	-11.8609	7.85939	-15.0079
 619	1	6	0.167832	-10.6878	5.43003	-7.80322
 620	1	6	0.134138	-11.9883	5.23849	-5.74836
 621	1	6	0.145229	-15.5271	6.76364	-7.79874
 622	1	5	-0.462312	-15.1656	7.20431	-10.7495
 623	1	5	-0.483102	-10.6177	6.35233	-10.5761
 624	1	6	0.144532	-13.1337	6.19745	-15.5664
 625	1	6	0.226042	-11.358	8.97129	-11.8308
 626	1	3	0.12103	-11.5658	7.95632	-17.4732
 627	1	3	-0.09864	-12.8852	8.2988	-17.8183
 628	1	3	-0.194398	-13.2626	8.32481	-19.1711
 629	1	3	-0.091961	-12.3316	7.96837	-20.1575
 630	1	3	-0.197799	-11.006	7.6859	-19.7969
 631	1	3	-0.102777	-10.5694	7.79727	-18.4572
 632	1	6	0.132074	-12.6317	7.91991	-21.2019
 633	1	6	0.154044	-10.296	7.39853	-20.5723
 634	1	6	0.145155	-13.6069	8.54347	-17.0444
 635	1	6	0.14558	-9.93455	6.95706	-18.1904
 636	1	9	-0.24014	-11.1335	7.88256	-16.1703
 637	1	6	0.152938	-13.885	5.75789	-13.2305
 638	1	6	0.151751	-14.2801	8.58569	-19.4517