pySIMM System Object

871 atoms
960 bonds
1647 angles
2570 dihedrals
300 impropers

9 atom types
11 bond types
19 angle types
8 dihedral types
4 improper types

-152.369104 152.369104 xlo xhi
-152.369104 152.369104 ylo yhi
-152.369104 152.369104 zlo zhi

Masses

   1	14.01	# n
   2	12.01	# c
   3	12.01	# ca
   4	1.008	# hn
   5	16.0	# o
   6	1.008	# ha
   7	12.01	# c3
   8	19.0	# f
   9	16.0	# os

Pair Coeffs

   1	0.17	3.249998523775958	# n
   2	0.086	3.3996695084235347	# c
   3	0.086	3.3996695084235347	# ca
   4	0.0157	1.069078461768407	# hn
   5	0.21	2.959921901149463	# o
   6	0.015	2.59964245953351	# ha
   7	0.1094	3.3996695084235347	# c3
   8	0.061	3.1181455134911875	# f
   9	0.17	3.0000123434657784	# os

Bond Coeffs

   1	427.6	1.3789	# c,n
   2	461.1	1.3984	# ca,ca
   3	356.9	1.3497	# c3,f
   4	345.9	1.4906	# c,ca
   5	345.8	1.086	# ca,ha
   6	384.2	1.4121	# ca,n
   7	637.7	1.2183	# c,o
   8	321.0	1.5156	# c3,ca
   9	300.9	1.5375	# c3,c3
  10	376.6	1.3696	# ca,os
  11	403.2	1.0129	# hn,n

Angle Coeffs

   1	62.86	111.51	# c3,c3,c3
   2	63.74	127.08	# c,n,c
   3	48.18	119.88	# ca,ca,ha
   4	68.72	122.6	# ca,c,o
   5	63.15	112.07	# c3,c3,ca
   6	70.89	107.36	# f,c3,f
   7	67.87	120.19	# ca,ca,n
   8	63.56	112.24	# ca,c3,ca
   9	63.82	123.71	# c,n,ca
  10	67.68	115.25	# ca,c,n
  11	69.58	119.2	# ca,ca,os
  12	48.33	117.55	# c,n,hn
  13	74.22	123.05	# n,c,o
  14	64.28	120.33	# c,ca,ca
  15	66.11	109.24	# c3,c3,f
  16	63.48	119.89	# ca,os,ca
  17	63.53	120.77	# c3,ca,ca
  18	66.62	120.02	# ca,ca,ca
  19	49.75	116.02	# ha,ca,n

Dihedral Coeffs

   1	1	0.0	2	0	# X,c3,ca,X
   2	1	0.9	2	180	# X,ca,os,X
   3	1	2.5	2	180	# X,c,n,X
   4	1	0.45	2	180	# X,ca,n,X
   5	2	2.5	2	180	2.0	1	0	# hn,n,c,o
   6	1	3.625	2	180	# X,ca,ca,X
   7	1	1.0	2	180	# X,c,ca,X
   8	1	0.15555555555555556	3	0	# X,c3,c3,X

Improper Coeffs

   1	10.5	-1	2	# c,X,X,o
   2	1.1	-1	2	# ca,ca,ca,c3
   3	1.1	-1	2	# n,X,X,hn
   4	1.1	-1	2	# ca,X,X,ha

Atoms

   1	1	1	0.48116	9.90278	-24.0022	-4.09118
   2	1	2	0.034009	9.40093	-22.7361	-4.41094
   3	1	3	0.028921	10.5641	-21.9791	-4.93741
   4	1	2	0.071556	11.2507	-24.1468	-4.43645
   5	1	3	0.025276	11.6607	-22.8151	-4.93997
   6	1	5	-0.381907	8.28292	-22.2882	-4.21066
   7	1	5	-0.393799	11.9781	-25.117	-4.28868
   8	1	3	-0.008998	10.67	-20.6241	-5.27036
   9	1	3	-0.064503	12.9315	-22.34	-5.2566
  10	1	3	-0.16756	13.0663	-20.9739	-5.56997
  11	1	3	-0.085161	11.9448	-20.0946	-5.60405
  12	1	6	0.158939	9.78232	-20.0039	-5.20439
  13	1	6	0.163781	13.7966	-22.9978	-5.19442
  14	1	6	0.161401	14.0733	-20.6049	-5.74693
  15	1	7	-0.078003	12.1494	-18.5731	-5.8602
  16	1	7	0.303704	10.9569	-17.9157	-6.66181
  17	1	8	-0.1084	10.5681	-18.6791	-7.70703
  18	1	8	-0.101508	11.3114	-16.7122	-7.16688
  19	1	8	-0.111714	9.84554	-17.7013	-5.92428
  20	1	7	0.380371	12.2505	-17.8978	-4.43858
  21	1	8	-0.124028	11.1752	-18.1562	-3.66107
  22	1	8	-0.119704	12.3666	-16.5524	-4.50776
  23	1	8	-0.115877	13.3086	-18.3703	-3.74341
  24	1	3	-0.024709	13.4357	-18.3842	-6.72604
  25	1	3	-0.076489	14.562	-17.639	-6.2851
  26	1	3	-0.052344	15.7114	-17.6104	-7.07942
  27	1	3	-0.054202	13.5265	-19.0435	-7.98675
  28	1	3	-0.149083	14.6892	-18.9829	-8.78273
  29	1	3	-0.063027	15.7793	-18.2558	-8.29516
  30	1	2	0.499526	17.162	-18.1005	-8.82679
  31	1	1	-0.036881	17.8518	-17.3954	-7.84996
  32	1	2	0.443545	17.0458	-17.0381	-6.779
  33	1	3	0.038197	19.2554	-17.2037	-7.84809
  34	1	3	-0.408621	19.8845	-16.3758	-8.79372
  35	1	3	0.252781	21.2763	-16.1795	-8.74085
  36	1	3	-0.169778	20.0269	-17.8408	-6.86251
  37	1	3	-0.113042	21.414	-17.6496	-6.80787
  38	1	3	0.016958	22.0468	-16.8115	-7.74762
  39	1	6	0.167832	14.7568	-19.5185	-9.72787
  40	1	6	0.134138	12.6999	-19.6532	-8.34002
  41	1	6	0.145229	14.5964	-17.1149	-5.33648
  42	1	5	-0.462312	17.3777	-16.5045	-5.73431
  43	1	5	-0.483102	17.6012	-18.5951	-9.85056
  44	1	6	0.144532	21.9839	-18.1467	-6.02814
  45	1	6	0.226042	19.3068	-15.8814	-9.56848
  46	1	3	0.12103	24.2236	-17.2063	-6.79114
  47	1	3	-0.09864	24.4859	-16.5871	-5.55868
  48	1	3	-0.194398	25.2226	-17.2697	-4.57448
  49	1	3	-0.091961	25.6945	-18.5697	-4.82651
  50	1	3	-0.197799	25.4356	-19.1855	-6.0634
  51	1	3	-0.102777	24.699	-18.5024	-7.04679
  52	1	6	0.132074	26.2577	-19.1009	-4.0627
  53	1	6	0.154044	25.7961	-20.1928	-6.25604
  54	1	6	0.145155	24.0972	-15.5914	-5.3654
  55	1	6	0.14558	24.4731	-18.9778	-7.99694
  56	1	9	-0.24014	23.4084	-16.5868	-7.70677
  57	1	6	0.152938	19.5473	-18.4777	-6.1246
  58	1	6	0.151751	25.4193	-16.7959	-3.61598
  59	1	1	0.48116	16.0573	-18.8419	4.95557
  60	1	2	0.034009	16.6048	-19.3779	3.78536
  61	1	3	0.028921	17.119	-18.213	3.02816
  62	1	2	0.071556	16.2037	-17.4485	5.02154
  63	1	3	0.025276	16.8722	-17.0677	3.75176
  64	1	5	-0.381907	16.637	-20.5421	3.41654
  65	1	5	-0.393799	15.8639	-16.6819	5.91018
  66	1	3	-0.008998	17.7097	-18.1693	1.76503
  67	1	3	-0.064503	17.2108	-15.809	3.24844
  68	1	3	-0.16756	17.7754	-15.7381	1.95641
  69	1	3	-0.085161	18.0045	-16.9095	1.17814
  70	1	6	0.158939	17.8664	-19.1019	1.22876
  71	1	6	0.163781	17.0118	-14.9122	3.83139
  72	1	6	0.161401	18.009	-14.7517	1.56994
  73	1	7	-0.078003	18.5331	-16.8761	-0.290319
  74	1	7	0.303704	18.4195	-15.4671	-0.981098
  75	1	8	-0.1084	17.1693	-14.9636	-0.87375
  76	1	8	-0.101508	18.6857	-15.5372	-2.30511
  77	1	8	-0.111714	19.2746	-14.5543	-0.466067
  78	1	7	0.380371	20.0502	-17.3055	-0.210834
  79	1	8	-0.124028	20.7074	-16.6327	0.761619
  80	1	8	-0.119704	20.74	-17.0881	-1.35302
  81	1	8	-0.115877	20.1819	-18.6192	0.0837822
  82	1	3	-0.024709	17.6575	-17.8566	-1.13084
  83	1	3	-0.076489	16.2802	-18.0138	-0.813192
  84	1	3	-0.052344	15.5602	-19.0579	-1.40356
  85	1	3	-0.054202	18.2005	-18.6585	-2.1747
  86	1	3	-0.149083	17.4436	-19.6745	-2.7922
  87	1	3	-0.063027	16.1314	-19.8756	-2.35277
  88	1	2	0.499526	15.1761	-20.9713	-2.65516
  89	1	1	-0.036881	14.0857	-20.7667	-1.81589
  90	1	2	0.443545	14.2182	-19.6051	-1.06293
  91	1	3	0.038197	13.0264	-21.7044	-1.6544
  92	1	3	-0.408621	13.3256	-23.0569	-1.40751
  93	1	3	0.252781	12.2988	-23.9994	-1.24773
  94	1	3	-0.169778	11.6778	-21.3034	-1.71186
  95	1	3	-0.113042	10.6443	-22.2468	-1.56192
  96	1	3	0.016958	10.9555	-23.6015	-1.34997
  97	1	6	0.167832	17.8852	-20.3308	-3.53912
  98	1	6	0.134138	19.2307	-18.5404	-2.49034
  99	1	6	0.145229	15.7987	-17.4133	-0.0445136
 100	1	5	-0.462312	13.4588	-19.1653	-0.218023
 101	1	5	-0.483102	15.3866	-21.9012	-3.41617
 102	1	6	0.144532	9.60705	-21.9275	-1.62642
 103	1	6	0.226042	14.3569	-23.3941	-1.35481
 104	1	3	0.12103	8.9694	-24.9446	-2.04181
 105	1	3	-0.09864	7.89335	-25.6049	-1.4244
 106	1	3	-0.194398	6.85541	-26.1587	-2.18581
 107	1	3	-0.091961	6.87295	-26.014	-3.57559
 108	1	3	-0.197799	7.97144	-25.3988	-4.19199
 109	1	3	-0.102777	9.11993	-25.0161	-3.45516
 110	1	6	0.132074	6.03778	-26.3721	-4.17379
 111	1	6	0.154044	7.95001	-25.2631	-5.27233
 112	1	6	0.145155	7.87644	-25.6935	-0.342578
 113	1	6	0.14558	9.80242	-25.8509	-3.56848
 114	1	9	-0.24014	9.96605	-24.5423	-1.16649
 115	1	6	0.152938	11.4276	-20.2563	-1.86787
 116	1	6	0.151751	6.03051	-26.6725	-1.7035
 117	1	1	0.48116	-1.10358	-23.0593	-1.31798
 118	1	2	0.034009	-0.658172	-23.1863	0.00639643
 119	1	3	0.028921	0.677683	-23.8265	-0.079649
 120	1	2	0.071556	-0.170058	-23.5718	-2.23142
 121	1	3	0.025276	0.966764	-24.0538	-1.40621
 122	1	5	-0.381907	-1.24627	-22.903	1.03867
 123	1	5	-0.393799	-0.258185	-23.6806	-3.44448
 124	1	3	-0.008998	1.5725	-24.1643	0.94154
 125	1	3	-0.064503	2.17011	-24.6489	-1.78934
 126	1	3	-0.16756	3.09919	-24.9722	-0.778728
 127	1	3	-0.085161	2.83599	-24.7236	0.599805
 128	1	6	0.158939	1.27431	-23.9428	1.96022
 129	1	6	0.163781	2.38871	-24.821	-2.84122
 130	1	6	0.161401	4.06133	-25.3702	-1.08609
 131	1	7	-0.078003	3.98058	-24.9569	1.64195
 132	1	7	0.303704	3.5946	-24.4962	3.1013
 133	1	8	-0.1084	3.25051	-23.1885	3.13616
 134	1	8	-0.101508	4.61774	-24.6137	3.97804
 135	1	8	-0.111714	2.56622	-25.2107	3.61112
 136	1	7	0.380371	4.30671	-26.504	1.66255
 137	1	8	-0.124028	3.17442	-27.243	1.68573
 138	1	8	-0.119704	5.04121	-26.9064	2.72312
 139	1	8	-0.115877	4.99891	-26.8907	0.571012
 140	1	3	-0.024709	5.19785	-24.0788	1.22434
 141	1	3	-0.076489	6.51029	-24.351	1.69464
 142	1	3	-0.052344	7.53322	-23.4282	1.42923
 143	1	3	-0.054202	4.98643	-22.8745	0.489748
 144	1	3	-0.149083	6.02948	-21.9724	0.217551
 145	1	3	-0.063027	7.29682	-22.2711	0.716917
 146	1	2	0.499526	8.49264	-21.3992	0.819303
 147	1	1	-0.036881	9.36877	-22.0775	1.65257
 148	1	2	0.443545	8.90619	-23.3414	1.99684
 149	1	3	0.038197	10.436	-21.4343	2.32804
 150	1	3	-0.408621	10.1342	-20.3747	3.20185
 151	1	3	0.252781	11.1476	-19.7631	3.9509
 152	1	3	-0.169778	11.7684	-21.8647	2.1922
 153	1	3	-0.113042	12.7889	-21.253	2.94567
 154	1	3	0.016958	12.469	-20.2206	3.8475
 155	1	6	0.167832	5.84228	-21.0288	-0.291451
 156	1	6	0.134138	3.99119	-22.5837	0.168727
 157	1	6	0.145229	6.72923	-25.2021	2.33242
 158	1	5	-0.462312	9.4115	-24.1417	2.7646
 159	1	5	-0.483102	8.57938	-20.2569	0.401265
 160	1	6	0.144532	13.8195	-21.5854	2.84609
 161	1	6	0.226042	9.11467	-20.0169	3.30798
 162	1	3	0.12103	14.2852	-20.3345	5.47746
 163	1	3	-0.09864	13.9762	-21.6354	5.92182
 164	1	3	-0.194398	14.854	-22.3124	6.78073
 165	1	3	-0.091961	16.0411	-21.6898	7.18728
 166	1	3	-0.197799	16.3297	-20.3846	6.75862
 167	1	3	-0.102777	15.4258	-19.6538	5.95198
 168	1	6	0.132074	16.7428	-22.2219	7.82571
 169	1	6	0.154044	17.2659	-19.9255	7.07151
 170	1	6	0.145155	13.0633	-22.1255	5.59504
 171	1	6	0.14558	15.0487	-18.8401	6.56013
 172	1	9	-0.24014	13.4297	-19.6422	4.64416
 173	1	6	0.152938	12.0106	-22.6782	1.51385
 174	1	6	0.151751	14.6249	-23.3231	7.11001
 175	1	1	0.48116	1.40298	-10.8803	1.81849
 176	1	2	0.034009	0.0763163	-10.6465	1.42234
 177	1	3	0.028921	-0.721193	-10.7057	2.66875
 178	1	2	0.071556	1.52773	-10.9174	3.21875
 179	1	3	0.025276	0.134546	-10.8672	3.73435
 180	1	5	-0.381907	-0.394232	-10.6676	0.29524
 181	1	5	-0.393799	2.5089	-11.1822	3.89548
 182	1	3	-0.008998	-2.10273	-10.8637	2.80525
 183	1	3	-0.064503	-0.354961	-11.164	5.01028
 184	1	3	-0.16756	-1.7482	-11.3333	5.17081
 185	1	3	-0.085161	-2.64175	-11.229	4.06592
 186	1	6	0.158939	-2.72618	-10.805	1.91681
 187	1	6	0.163781	0.334918	-11.3346	5.83426
 188	1	6	0.161401	-2.10572	-11.6059	6.15856
 189	1	7	-0.078003	-4.1602	-11.5788	4.14914
 190	1	7	0.303704	-4.56341	-12.391	5.44007
 191	1	8	-0.1084	-3.77648	-13.4754	5.62431
 192	1	8	-0.101508	-5.82881	-12.8623	5.35477
 193	1	8	-0.111714	-4.50205	-11.6549	6.57231
 194	1	7	0.380371	-4.93898	-10.2085	4.13342
 195	1	8	-0.124028	-4.43843	-9.34304	5.04467
 196	1	8	-0.119704	-6.25728	-10.3343	4.40574
 197	1	8	-0.115877	-4.84071	-9.59122	2.93452
 198	1	3	-0.024709	-4.49064	-12.5107	2.94275
 199	1	3	-0.076489	-3.58443	-13.5571	2.63134
 200	1	3	-0.052344	-3.85831	-14.4059	1.55506
 201	1	3	-0.054202	-5.67176	-12.392	2.15329
 202	1	3	-0.149083	-5.93645	-13.2719	1.0794
 203	1	3	-0.063027	-5.00333	-14.2786	0.800018
 204	1	2	0.499526	-4.98974	-15.3478	-0.241841
 205	1	1	-0.036881	-3.79979	-16.0426	-0.04884
 206	1	2	0.443545	-3.06527	-15.5376	1.01636
 207	1	3	0.038197	-3.36105	-17.1508	-0.827031
 208	1	3	-0.408621	-4.16025	-18.301	-0.960072
 209	1	3	0.252781	-3.66151	-19.4366	-1.62215
 210	1	3	-0.169778	-2.07769	-17.1383	-1.4068
 211	1	3	-0.113042	-1.57873	-18.2715	-2.0724
 212	1	3	0.016958	-2.35834	-19.4343	-2.16019
 213	1	6	0.167832	-6.84096	-13.1762	0.481517
 214	1	6	0.134138	-6.40717	-11.6226	2.36133
 215	1	6	0.145229	-2.67576	-13.7124	3.20895
 216	1	5	-0.462312	-1.97801	-15.9067	1.42686
 217	1	5	-0.483102	-5.85916	-15.5592	-1.07021
 218	1	6	0.144532	-0.576601	-18.2623	-2.49227
 219	1	6	0.226042	-5.15907	-18.3318	-0.533997
 220	1	3	0.12103	-2.46341	-21.7659	-2.78954
 221	1	3	-0.09864	-3.22914	-22.0623	-3.92799
 222	1	3	-0.194398	-4.02318	-23.2175	-3.95852
 223	1	3	-0.091961	-4.07327	-24.0493	-2.83224
 224	1	3	-0.197799	-3.30357	-23.7426	-1.69889
 225	1	3	-0.102777	-2.42797	-22.6319	-1.67376
 226	1	6	0.132074	-4.70751	-24.9331	-2.83651
 227	1	6	0.154044	-3.35614	-24.4034	-0.834265
 228	1	6	0.145155	-3.21445	-21.3834	-4.77603
 229	1	6	0.14558	-2.57871	-22.0439	-0.775577
 230	1	9	-0.24014	-1.80513	-20.5594	-2.73959
 231	1	6	0.152938	-1.44631	-16.2585	-1.30787
 232	1	6	0.151751	-4.61547	-23.4521	-4.83957
 233	1	1	0.48116	11.1574	0.18971	-6.59279
 234	1	2	0.034009	10.4643	-0.0846382	-7.79436
 235	1	3	0.028921	10.2519	-1.55676	-7.82513
 236	1	2	0.071556	11.5357	-1.00348	-5.95761
 237	1	3	0.025276	10.9004	-2.09647	-6.73852
 238	1	5	-0.381907	9.98394	0.68365	-8.61055
 239	1	5	-0.393799	12.1003	-1.14905	-4.88441
 240	1	3	-0.008998	9.39774	-2.32479	-8.63868
 241	1	3	-0.064503	10.7464	-3.44187	-6.40678
 242	1	3	-0.16756	9.87086	-4.22132	-7.18731
 243	1	3	-0.085161	9.17004	-3.69307	-8.31002
 244	1	6	0.158939	8.88179	-1.82256	-9.45004
 245	1	6	0.163781	11.2308	-3.84828	-5.52182
 246	1	6	0.161401	9.6998	-5.24439	-6.86616
 247	1	7	-0.078003	8.10333	-4.60265	-9.00857
 248	1	7	0.303704	7.27708	-3.87329	-10.1629
 249	1	8	-0.1084	6.66747	-2.7294	-9.78822
 250	1	8	-0.101508	6.28722	-4.66057	-10.6399
 251	1	8	-0.111714	8.03628	-3.5122	-11.2214
 252	1	7	0.380371	8.83759	-5.83244	-9.69986
 253	1	8	-0.124028	9.66542	-5.45179	-10.698
 254	1	8	-0.119704	7.9634	-6.72049	-10.2258
 255	1	8	-0.115877	9.63105	-6.53995	-8.86814
 256	1	3	-0.024709	7.12777	-5.03123	-7.85217
 257	1	3	-0.076489	7.11483	-6.33249	-7.25847
 258	1	3	-0.052344	6.34144	-6.56168	-6.10217
 259	1	3	-0.054202	6.32141	-4.03071	-7.23471
 260	1	3	-0.149083	5.50429	-4.29456	-6.12257
 261	1	3	-0.063027	5.54745	-5.57131	-5.56669
 262	1	2	0.499526	4.94548	-6.06507	-4.30459
 263	1	1	-0.036881	5.46388	-7.33705	-4.10905
 264	1	2	0.443545	6.28191	-7.73273	-5.16743
 265	1	3	0.038197	5.23974	-8.05765	-2.8965
 266	1	3	-0.408621	5.61621	-7.47367	-1.67257
 267	1	3	0.252781	5.22175	-8.04781	-0.452809
 268	1	3	-0.169778	4.52765	-9.27303	-2.87444
 269	1	3	-0.113042	4.15299	-9.86706	-1.64839
 270	1	3	0.016958	4.47556	-9.23765	-0.426628
 271	1	6	0.167832	4.9122	-3.50866	-5.6574
 272	1	6	0.134138	6.35659	-3.00182	-7.5668
 273	1	6	0.145229	7.73023	-7.14776	-7.62134
 274	1	5	-0.462312	6.91733	-8.76721	-5.27184
 275	1	5	-0.483102	4.22869	-5.41784	-3.56002
 276	1	6	0.144532	3.57282	-10.7843	-1.6571
 277	1	6	0.226042	6.14226	-6.52453	-1.65468
 278	1	3	0.12103	3.68542	-10.9813	1.11108
 279	1	3	-0.09864	4.69317	-11.8137	1.62681
 280	1	3	-0.194398	4.42794	-13.1698	1.87024
 281	1	3	-0.091961	3.181	-13.7002	1.51615
 282	1	3	-0.197799	2.19363	-12.8601	0.97791
 283	1	3	-0.102777	2.36865	-11.4555	0.919614
 284	1	6	0.132074	2.97941	-14.7601	1.65679
 285	1	6	0.154044	1.22957	-13.2934	0.712383
 286	1	6	0.145155	5.67756	-11.4034	1.83277
 287	1	6	0.14558	1.95483	-11.0192	0.0187625
 288	1	9	-0.24014	4.00217	-9.67854	0.800173
 289	1	6	0.152938	4.22253	-9.73461	-3.81021
 290	1	6	0.151751	5.19616	-13.8128	2.29233
 291	1	1	0.48116	10.9032	15.5442	4.87148
 292	1	2	0.034009	12.2165	15.3575	4.42371
 293	1	3	0.028921	12.0821	15.0146	2.99724
 294	1	2	0.071556	9.98405	15.5645	3.81062
 295	1	3	0.025276	10.7752	15.1868	2.60882
 296	1	5	-0.381907	13.2659	15.3592	5.04937
 297	1	5	-0.393799	8.76892	15.6769	3.86426
 298	1	3	-0.008998	13.0204	14.39	2.1829
 299	1	3	-0.064503	10.3723	14.8692	1.30856
 300	1	3	-0.16756	11.3248	14.2782	0.445268
 301	1	3	-0.085161	12.6344	13.9321	0.89466
 302	1	6	0.158939	13.9936	14.2152	2.62306
 303	1	6	0.163781	9.33992	15.0216	1.00069
 304	1	6	0.161401	11.0069	13.9979	-0.556246
 305	1	7	-0.078003	13.5975	13.086	-0.0103358
 306	1	7	0.303704	14.0574	14.0468	-1.1703
 307	1	8	-0.1084	15.1267	13.5967	-1.86152
 308	1	8	-0.101508	14.3993	15.2678	-0.698352
 309	1	8	-0.111714	13.0664	14.239	-2.06924
 310	1	7	0.380371	14.8654	12.5749	0.792921
 311	1	8	-0.124028	15.6862	13.5776	1.18043
 312	1	8	-0.119704	15.6568	11.7322	0.0952741
 313	1	8	-0.115877	14.4919	11.8844	1.89539
 314	1	3	-0.024709	12.8881	11.8077	-0.57967
 315	1	3	-0.076489	13.5203	11.0275	-1.58716
 316	1	3	-0.052344	12.9398	9.82388	-2.00346
 317	1	3	-0.054202	11.6585	11.3122	-0.0494968
 318	1	3	-0.149083	11.0464	10.1387	-0.542681
 319	1	3	-0.063027	11.7218	9.40214	-1.52193
 320	1	2	0.499526	11.4103	8.08327	-2.14328
 321	1	1	-0.036881	12.5165	7.76275	-2.92554
 322	1	2	0.443545	13.4741	8.7697	-2.90749
 323	1	3	0.038197	12.6535	6.5503	-3.66467
 324	1	3	-0.408621	11.6429	6.15692	-4.55449
 325	1	3	0.252781	11.7747	4.9712	-5.28999
 326	1	3	-0.169778	13.7929	5.72848	-3.52937
 327	1	3	-0.113042	13.9292	4.54163	-4.28418
 328	1	3	0.016958	12.9203	4.15499	-5.18538
 329	1	6	0.167832	10.1041	9.77972	-0.132902
 330	1	6	0.134138	11.1647	11.8138	0.775425
 331	1	6	0.145229	14.4843	11.296	-2.00628
 332	1	5	-0.462312	14.561	8.78349	-3.45854
 333	1	5	-0.483102	10.3866	7.43978	-1.98273
 334	1	6	0.144532	14.8156	3.92342	-4.17192
 335	1	6	0.226042	10.7448	6.75493	-4.67451
 336	1	3	0.12103	11.9716	2.43999	-6.61584
 337	1	3	-0.09864	11.3676	3.27035	-7.57827
 338	1	3	-0.194398	9.97516	3.44398	-7.54324
 339	1	3	-0.091961	9.23414	2.79612	-6.54292
 340	1	3	-0.197799	9.86655	1.86375	-5.70235
 341	1	3	-0.102777	11.21	1.47413	-5.91775
 342	1	6	0.132074	8.17471	3.00882	-6.42307
 343	1	6	0.154044	9.28146	1.36313	-4.93275
 344	1	6	0.145155	11.9758	3.96404	-8.15242
 345	1	6	0.14558	11.6842	1.20904	-4.97825
 346	1	9	-0.24014	13.0524	2.98902	-5.94394
 347	1	6	0.152938	14.585	6.01702	-2.84238
 348	1	6	0.151751	9.49536	4.16218	-8.20241
 349	1	1	0.48116	3.89999	7.33728	14.4165
 350	1	2	0.034009	4.33616	8.66489	14.5765
 351	1	3	0.028921	5.27613	8.62367	15.7228
 352	1	2	0.071556	4.27287	6.53528	15.5071
 353	1	3	0.025276	5.21863	7.36844	16.2871
 354	1	5	-0.381907	4.20717	9.61696	13.8218
 355	1	5	-0.393799	4.13467	5.3296	15.6454
 356	1	3	-0.008998	6.33939	9.49485	15.9866
 357	1	3	-0.064503	6.1701	6.94811	17.2172
 358	1	3	-0.16756	7.27009	7.79181	17.4627
 359	1	3	-0.085161	7.42537	9.02839	16.7769
 360	1	6	0.158939	6.3845	10.433	15.4397
 361	1	6	0.163781	6.1276	5.94261	17.6297
 362	1	6	0.161401	8.04824	7.41892	18.1202
 363	1	7	-0.078003	8.79473	9.77723	16.7815
 364	1	7	0.303704	10.0184	8.77318	16.7429
 365	1	8	-0.1084	9.81578	7.76639	15.8618
 366	1	8	-0.101508	10.293	8.19489	17.9326
 367	1	8	-0.111714	11.1597	9.38984	16.3567
 368	1	7	0.380371	8.86425	10.6411	18.0942
 369	1	8	-0.124028	8.56961	9.91724	19.197
 370	1	8	-0.119704	10.0898	11.175	18.3063
 371	1	8	-0.115877	7.969	11.6538	18.0605
 372	1	3	-0.024709	8.93016	10.6166	15.4734
 373	1	3	-0.076489	8.68992	9.98013	14.224
 374	1	3	-0.052344	8.88675	10.6959	13.0406
 375	1	3	-0.054202	9.38692	11.967	15.4639
 376	1	3	-0.149083	9.59614	12.6658	14.262
 377	1	3	-0.063027	9.3349	11.9996	13.0648
 378	1	2	0.499526	9.59959	12.4261	11.6753
 379	1	1	-0.036881	9.32172	11.3142	10.8954
 380	1	2	0.443545	8.83469	10.2423	11.6229
 381	1	3	0.038197	9.72664	11.2919	9.54806
 382	1	3	-0.408621	8.92072	11.9259	8.59239
 383	1	3	0.252781	9.52429	12.4899	7.46511
 384	1	3	-0.169778	11.085	11.0409	9.28225
 385	1	3	-0.113042	11.6874	11.5925	8.14267
 386	1	3	0.016958	10.914	12.3861	7.2841
 387	1	6	0.167832	9.99066	13.6804	14.2558
 388	1	6	0.134138	9.62642	12.4941	16.3792
 389	1	6	0.145229	8.37897	8.93962	14.1644
 390	1	5	-0.462312	8.53424	9.13213	11.2202
 391	1	5	-0.483102	10.1117	13.4802	11.3343
 392	1	6	0.144532	12.7685	11.5656	8.03094
 393	1	6	0.226042	7.88659	12.1718	8.81089
 394	1	3	0.12103	11.3431	14.6795	7.0319
 395	1	3	-0.09864	11.8538	15.082	8.27832
 396	1	3	-0.194398	11.5461	16.353	8.78483
 397	1	3	-0.091961	10.7186	17.2101	8.04616
 398	1	3	-0.197799	10.2349	16.8104	6.78921
 399	1	3	-0.102777	10.5329	15.5356	6.25674
 400	1	6	0.132074	10.4524	18.1851	8.44797
 401	1	6	0.154044	9.58149	17.4844	6.23681
 402	1	6	0.145155	12.4689	14.3992	8.8574
 403	1	6	0.14558	9.59529	15.0193	6.0833
 404	1	9	-0.24014	11.5456	13.3836	6.59464
 405	1	6	0.152938	11.7115	10.5825	10.0435
 406	1	6	0.151751	11.9287	16.6611	9.75497
 407	1	1	0.48116	-3.2029	9.40884	8.62731
 408	1	2	0.034009	-3.52526	8.42279	9.58877
 409	1	3	0.028921	-4.99156	8.54037	9.84052
 410	1	2	0.071556	-4.3636	10.1265	8.26135
 411	1	3	0.025276	-5.47872	9.5251	9.02203
 412	1	5	-0.381907	-2.80428	7.60561	10.1377
 413	1	5	-0.393799	-4.50202	11.0986	7.53274
 414	1	3	-0.008998	-5.82805	7.86444	10.7472
 415	1	3	-0.064503	-6.83401	9.83756	8.99632
 416	1	3	-0.16756	-7.70092	9.1023	9.82493
 417	1	3	-0.085161	-7.23786	8.12126	10.7531
 418	1	6	0.158939	-5.34206	7.17023	11.4183
 419	1	6	0.163781	-7.20547	10.6157	8.33417
 420	1	6	0.161401	-8.75385	9.332	9.72567
 421	1	7	-0.078003	-8.27787	7.39769	11.7037
 422	1	7	0.303704	-9.09455	8.50478	12.504
 423	1	8	-0.1084	-8.26374	9.25792	13.2611
 424	1	8	-0.101508	-10.0475	7.97848	13.3075
 425	1	8	-0.111714	-9.77887	9.389	11.7499
 426	1	7	0.380371	-9.29164	6.55623	10.8355
 427	1	8	-0.124028	-10.074	5.76759	11.6065
 428	1	8	-0.119704	-8.654	5.74368	9.96508
 429	1	8	-0.115877	-10.1258	7.31195	10.0877
 430	1	3	-0.024709	-7.57988	6.39945	12.7067
 431	1	3	-0.076489	-6.72681	5.37696	12.2103
 432	1	3	-0.052344	-5.8718	4.70565	13.0968
 433	1	3	-0.054202	-7.69092	6.50922	14.1301
 434	1	3	-0.149083	-6.8999	5.75165	15.0103
 435	1	3	-0.063027	-5.95236	4.89186	14.4609
 436	1	2	0.499526	-4.68347	4.44348	15.0842
 437	1	1	-0.036881	-3.84686	4.18805	14.0081
 438	1	2	0.443545	-4.52523	4.15175	12.7948
 439	1	3	0.038197	-2.475	4.53964	14.0751
 440	1	3	-0.408621	-2.15964	5.90623	14.1932
 441	1	3	0.252781	-0.825893	6.32913	14.2424
 442	1	3	-0.169778	-1.44	3.59097	14.0084
 443	1	3	-0.113042	-0.0960125	4.01385	14.0586
 444	1	3	0.016958	0.207229	5.38353	14.1708
 445	1	6	0.167832	-6.90579	5.95401	16.0804
 446	1	6	0.134138	-8.31821	7.2452	14.6122
 447	1	6	0.145229	-6.55648	5.25862	11.1432
 448	1	5	-0.462312	-4.04084	4.06878	11.6803
 449	1	5	-0.483102	-4.36298	4.6525	16.2423
 450	1	6	0.144532	0.7104	3.28837	13.9954
 451	1	6	0.226042	-2.94434	6.6542	14.2421
 452	1	3	0.12103	2.11788	6.38868	13.0521
 453	1	3	-0.09864	1.46776	6.37263	11.7986
 454	1	3	-0.194398	2.11539	6.85608	10.6547
 455	1	3	-0.091961	3.40263	7.38837	10.761
 456	1	3	-0.197799	4.05257	7.38206	12.0015
 457	1	3	-0.102777	3.47006	6.791	13.1528
 458	1	6	0.132074	3.89376	7.81562	9.88968
 459	1	6	0.154044	5.04615	7.8264	12.059
 460	1	6	0.145155	0.459131	5.98075	11.6968
 461	1	6	0.14558	3.99186	5.84635	13.2575
 462	1	9	-0.24014	1.5147	5.81225	14.1538
 463	1	6	0.152938	-1.67536	2.5349	13.9092
 464	1	6	0.151751	1.60576	6.84237	9.6964
 465	1	1	0.48116	-8.67339	14.1461	1.30689
 466	1	2	0.034009	-8.19191	15.3606	1.85904
 467	1	3	0.028921	-6.72111	15.1743	1.98789
 468	1	2	0.071556	-7.61679	13.4992	0.640035
 469	1	3	0.025276	-6.39627	14.0402	1.28931
 470	1	5	-0.381907	-8.80284	16.2495	2.43072
 471	1	5	-0.393799	-7.64125	12.4204	0.0683075
 472	1	3	-0.008998	-5.80087	15.8095	2.84436
 473	1	3	-0.064503	-5.1794	13.3986	1.51421
 474	1	3	-0.16756	-4.26228	13.9874	2.40866
 475	1	3	-0.085161	-4.49916	15.248	3.03585
 476	1	6	0.158939	-6.137	16.7032	3.35489
 477	1	6	0.163781	-4.97744	12.4371	1.04764
 478	1	6	0.161401	-3.34307	13.4421	2.58148
 479	1	7	-0.078003	-3.32959	15.9748	3.82305
 480	1	7	0.303704	-1.9981	15.7785	2.96714
 481	1	8	-0.1084	-1.01163	16.6647	3.22199
 482	1	8	-0.101508	-2.23267	15.8885	1.63974
 483	1	8	-0.111714	-1.43136	14.5658	3.17279
 484	1	7	0.380371	-3.60195	17.5221	3.97177
 485	1	8	-0.124028	-3.83582	18.1043	2.77427
 486	1	8	-0.119704	-2.58506	18.1942	4.55725
 487	1	8	-0.115877	-4.66209	17.7751	4.77121
 488	1	3	-0.024709	-3.14857	15.4241	5.27401
 489	1	3	-0.076489	-1.88694	15.4722	5.9335
 490	1	3	-0.052344	-1.74804	14.9174	7.21217
 491	1	3	-0.054202	-4.25043	14.8865	5.9949
 492	1	3	-0.149083	-4.09206	14.3373	7.28724
 493	1	3	-0.063027	-2.81567	14.347	7.86398
 494	1	2	0.499526	-2.29538	13.6144	9.04925
 495	1	1	-0.036881	-0.903275	13.7173	8.97839
 496	1	2	0.443545	-0.507425	14.5933	7.96943
 497	1	3	0.038197	-0.0650274	12.6854	9.50808
 498	1	3	-0.408621	0.792323	11.9992	8.62626
 499	1	3	0.252781	1.08757	10.6502	8.84993
 500	1	3	-0.169778	-0.370422	12.0842	10.7479
 501	1	3	-0.113042	-0.111349	10.7163	10.9508
 502	1	3	0.016958	0.470664	9.97008	9.91653
 503	1	6	0.167832	-4.92017	13.8487	7.79758
 504	1	6	0.134138	-5.23605	14.8574	5.54114
 505	1	6	0.145229	-0.996175	15.8659	5.45772
 506	1	5	-0.462312	0.625535	14.8587	7.60454
 507	1	5	-0.483102	-2.95921	12.86	9.74305
 508	1	6	0.144532	-0.601968	10.1971	11.7698
 509	1	6	0.226042	1.07713	12.4216	7.6675
 510	1	3	0.12103	-0.867046	8.75011	8.40122
 511	1	3	-0.09864	-0.164827	8.12014	7.35699
 512	1	3	-0.194398	-0.305271	8.56301	6.0362
 513	1	3	-0.091961	-1.11115	9.67377	5.77922
 514	1	3	-0.197799	-1.85794	10.2483	6.81615
 515	1	3	-0.102777	-1.86882	9.73381	8.14267
 516	1	6	0.132074	-1.13464	10.114	4.78459
 517	1	6	0.154044	-2.39245	11.1647	6.58154
 518	1	6	0.145155	0.606109	7.39307	7.59353
 519	1	6	0.14558	-1.80667	10.5561	8.84345
 520	1	9	-0.24014	-0.179706	8.79061	9.60501
 521	1	6	0.152938	-1.01944	12.5953	11.4539
 522	1	6	0.151751	0.300277	8.12901	5.24368
 523	1	1	0.48116	-14.8315	-0.641612	6.31484
 524	1	2	0.034009	-16.02	-0.0624077	5.85326
 525	1	3	0.028921	-15.6154	1.19883	5.18222
 526	1	2	0.071556	-13.7163	0.154153	6.00858
 527	1	3	0.025276	-14.2451	1.29065	5.21146
 528	1	5	-0.381907	-17.1671	-0.444561	6.02141
 529	1	5	-0.393799	-12.5882	0.090958	6.47213
 530	1	3	-0.008998	-16.4091	2.27505	4.77482
 531	1	3	-0.064503	-13.5891	2.38214	4.63809
 532	1	3	-0.16756	-14.3759	3.461	4.17468
 533	1	3	-0.085161	-15.7881	3.49908	4.38251
 534	1	6	0.158939	-17.475	2.16367	4.92632
 535	1	6	0.163781	-12.5016	2.4265	4.63102
 536	1	6	0.161401	-13.8508	4.33217	3.79739
 537	1	7	-0.078003	-16.5227	4.89469	4.50694
 538	1	7	0.303704	-17.9409	4.7334	5.18426
 539	1	8	-0.1084	-18.5869	5.90109	5.39038
 540	1	8	-0.101508	-17.8617	4.13205	6.3948
 541	1	8	-0.111714	-18.7787	4.01434	4.40333
 542	1	7	0.380371	-15.6079	5.7846	5.46068
 543	1	8	-0.124028	-14.5743	6.34172	4.78683
 544	1	8	-0.119704	-15.0747	5.06532	6.47567
 545	1	8	-0.115877	-16.2343	6.81914	6.06032
 546	1	3	-0.024709	-16.741	5.63791	3.14922
 547	1	3	-0.076489	-17.0797	7.02082	3.14492
 548	1	3	-0.052344	-17.1643	7.7244	1.93809
 549	1	3	-0.054202	-16.5797	4.99581	1.89076
 550	1	3	-0.149083	-16.6703	5.72392	0.677163
 551	1	3	-0.063027	-16.946	7.10252	0.732868
 552	1	2	0.499526	-16.7764	8.17234	-0.298985
 553	1	1	-0.036881	-16.7275	9.37835	0.409174
 554	1	2	0.443545	-17.1535	9.19951	1.72175
 555	1	3	0.038197	-15.6619	10.2935	0.138177
 556	1	3	-0.408621	-15.7158	12.0928	0.232381
 557	1	3	0.252781	-14.132	13.0426	0.144665
 558	1	3	-0.169778	-14.1019	9.46713	-0.0290548
 559	1	3	-0.113042	-12.5719	10.3893	0.0073917
 560	1	3	0.016958	-12.5625	12.1626	0.0510597
 561	1	6	0.167832	-16.4558	5.24704	-0.278003
 562	1	6	0.134138	-16.3315	3.93812	1.84808
 563	1	6	0.145229	-17.2039	7.58808	4.06001
 564	1	5	-0.462312	-17.1861	10.0279	2.61325
 565	1	5	-0.483102	-16.3692	7.97092	-1.43071
 566	1	6	0.144532	-11.624	9.85501	-0.057373
 567	1	6	0.226042	-16.6623	12.607	0.392188
 568	1	3	0.12103	-10.5811	12.4751	1.57131
 569	1	3	-0.09864	-10.8637	11.3333	2.36963
 570	1	3	-0.194398	-10.6398	11.3504	3.7535
 571	1	3	-0.091961	-10.1448	12.5209	4.33158
 572	1	3	-0.197799	-9.6368	13.5158	3.48433
 573	1	3	-0.102777	-9.48677	13.2379	2.09438
 574	1	6	0.132074	-10.1134	12.637	5.41233
 575	1	6	0.154044	-9.20244	14.3927	3.95683
 576	1	6	0.145155	-11.3454	10.4574	1.98728
 577	1	6	0.14558	-8.80934	12.3978	2.23241
 578	1	9	-0.24014	-11.3232	12.7621	0.393929
 579	1	6	0.152938	-14.0589	8.38115	-0.0899688
 580	1	6	0.151751	-10.9629	10.5152	4.37048
 581	1	1	0.48116	-3.42995	3.51401	3.00602
 582	1	2	0.034009	-3.94442	2.33093	2.45179
 583	1	3	0.028921	-3.2617	1.22817	3.17485
 584	1	2	0.071556	-2.42221	3.25829	3.9464
 585	1	3	0.025276	-2.38567	1.79055	4.07363
 586	1	5	-0.381907	-4.80035	2.20259	1.58978
 587	1	5	-0.393799	-1.68732	4.02843	4.54619
 588	1	3	-0.008998	-3.46143	-0.157159	3.11362
 589	1	3	-0.064503	-1.65747	1.01026	4.9602
 590	1	3	-0.16756	-1.94157	-0.363721	4.99598
 591	1	3	-0.085161	-2.90536	-0.976883	4.1365
 592	1	6	0.158939	-4.10349	-0.545519	2.33098
 593	1	6	0.163781	-0.946678	1.46766	5.6451
 594	1	6	0.161401	-1.37948	-0.940393	5.71854
 595	1	7	-0.078003	-3.29204	-2.48859	4.35401
 596	1	7	0.303704	-2.08488	-3.34328	3.7966
 597	1	8	-0.1084	-2.02281	-4.59627	4.2992
 598	1	8	-0.101508	-2.15886	-3.44312	2.45018
 599	1	8	-0.111714	-0.875587	-2.80609	4.06688
 600	1	7	0.380371	-3.5151	-2.75912	5.8985
 601	1	8	-0.124028	-4.34062	-1.82688	6.42757
 602	1	8	-0.119704	-2.38167	-2.76196	6.63327
 603	1	8	-0.115877	-4.08951	-3.95604	6.15291
 604	1	3	-0.024709	-4.63684	-2.94069	3.67175
 605	1	3	-0.076489	-5.71051	-2.0462	3.40554
 606	1	3	-0.052344	-6.86979	-2.51812	2.77586
 607	1	3	-0.054202	-4.89485	-4.32855	3.4473
 608	1	3	-0.149083	-6.12165	-4.80095	2.95107
 609	1	3	-0.063027	-7.08597	-3.86287	2.59262
 610	1	2	0.499526	-8.51955	-4.07395	2.28809
 611	1	1	-0.036881	-9.10251	-2.811	2.37367
 612	1	2	0.443545	-8.1399	-1.80877	2.48808
 613	1	3	0.038197	-10.4331	-2.6555	2.86206
 614	1	3	-0.408621	-10.6359	-1.80798	3.9661
 615	1	3	0.252781	-11.7621	-1.95725	4.76994
 616	1	3	-0.169778	-11.4631	-3.55272	2.50327
 617	1	3	-0.113042	-12.6114	-3.68564	3.30765
 618	1	3	0.016958	-12.7356	-2.91748	4.47446
 619	1	6	0.167832	-6.33816	-5.86642	2.89781
 620	1	6	0.134138	-4.1833	-5.0872	3.74302
 621	1	6	0.145229	-5.69233	-1.00595	3.71474
 622	1	5	-0.462312	-8.29822	-0.600105	2.54252
 623	1	5	-0.483102	-9.06347	-5.16587	2.28241
 624	1	6	0.144532	-13.3592	-4.43883	3.07578
 625	1	6	0.226042	-9.88153	-1.10503	4.30463
 626	1	3	0.12103	-13.7628	-2.72585	6.66069
 627	1	3	-0.09864	-12.8064	-3.24697	7.55318
 628	1	3	-0.194398	-12.872	-2.92699	8.9186
 629	1	3	-0.091961	-13.9104	-2.11066	9.38714
 630	1	3	-0.197799	-14.8485	-1.58316	8.48514
 631	1	3	-0.102777	-14.7737	-1.84686	7.09743
 632	1	6	0.132074	-13.9886	-1.88441	10.4487
 633	1	6	0.154044	-15.6517	-0.955829	8.86931
 634	1	6	0.145155	-12.0294	-3.9128	7.18773
 635	1	6	0.14558	-15.7233	-2.23498	6.74687
 636	1	9	-0.24014	-13.7816	-3.13489	5.34192
 637	1	6	0.152938	-11.3281	-4.2336	1.66626
 638	1	6	0.151751	-12.139	-3.3292	9.61441
 639	1	1	0.48116	-4.04786	5.19427	-8.13057
 640	1	2	0.034009	-4.76945	5.43486	-6.94881
 641	1	3	0.028921	-4.49939	6.86044	-6.60556
 642	1	2	0.071556	-3.2242	6.27255	-8.46889
 643	1	3	0.025276	-3.59938	7.34743	-7.53004