pySIMM System Object

2031 atoms
2240 bonds
3847 angles
6010 dihedrals
700 impropers

9 atom types
11 bond types
19 angle types
8 dihedral types
4 improper types

-204.808137 204.808137 xlo xhi
-204.808137 204.808137 ylo yhi
-204.808137 204.808137 zlo zhi

Masses

   1	14.01	# n
   2	12.01	# c
   3	12.01	# ca
   4	1.008	# hn
   5	16.0	# o
   6	1.008	# ha
   7	12.01	# c3
   8	19.0	# f
   9	16.0	# os

Pair Coeffs

   1	0.17	3.249998523775958	# n
   2	0.086	3.3996695084235347	# c
   3	0.086	3.3996695084235347	# ca
   4	0.0157	1.069078461768407	# hn
   5	0.21	2.959921901149463	# o
   6	0.015	2.59964245953351	# ha
   7	0.1094	3.3996695084235347	# c3
   8	0.061	3.1181455134911875	# f
   9	0.17	3.0000123434657784	# os

Bond Coeffs

   1	427.6	1.3789	# c,n
   2	461.1	1.3984	# ca,ca
   3	356.9	1.3497	# c3,f
   4	345.9	1.4906	# c,ca
   5	345.8	1.086	# ca,ha
   6	384.2	1.4121	# ca,n
   7	637.7	1.2183	# c,o
   8	321.0	1.5156	# c3,ca
   9	300.9	1.5375	# c3,c3
  10	376.6	1.3696	# ca,os
  11	403.2	1.0129	# hn,n

Angle Coeffs

   1	62.86	111.51	# c3,c3,c3
   2	63.74	127.08	# c,n,c
   3	48.18	119.88	# ca,ca,ha
   4	68.72	122.6	# ca,c,o
   5	63.15	112.07	# c3,c3,ca
   6	70.89	107.36	# f,c3,f
   7	67.87	120.19	# ca,ca,n
   8	63.56	112.24	# ca,c3,ca
   9	63.82	123.71	# c,n,ca
  10	67.68	115.25	# ca,c,n
  11	69.58	119.2	# ca,ca,os
  12	48.33	117.55	# c,n,hn
  13	74.22	123.05	# n,c,o
  14	64.28	120.33	# c,ca,ca
  15	66.11	109.24	# c3,c3,f
  16	63.48	119.89	# ca,os,ca
  17	63.53	120.77	# c3,ca,ca
  18	66.62	120.02	# ca,ca,ca
  19	49.75	116.02	# ha,ca,n

Dihedral Coeffs

   1	1	0.0	2	0	# X,c3,ca,X
   2	1	0.9	2	180	# X,ca,os,X
   3	1	2.5	2	180	# X,c,n,X
   4	1	0.45	2	180	# X,ca,n,X
   5	2	2.5	2	180	2.0	1	0	# hn,n,c,o
   6	1	3.625	2	180	# X,ca,ca,X
   7	1	1.0	2	180	# X,c,ca,X
   8	1	0.15555555555555556	3	0	# X,c3,c3,X

Improper Coeffs

   1	10.5	-1	2	# c,X,X,o
   2	1.1	-1	2	# ca,ca,ca,c3
   3	1.1	-1	2	# n,X,X,hn
   4	1.1	-1	2	# ca,X,X,ha

Atoms

   1	1	1	0.48116	4.24854	-6.99821	-51.1988
   2	1	2	0.034009	5.20829	-6.06715	-51.6148
   3	1	3	0.028921	4.97244	-5.87456	-53.0675
   4	1	2	0.071556	3.39742	-7.37865	-52.247
   5	1	3	0.025276	3.91255	-6.66943	-53.4455
   6	1	5	-0.381907	6.13129	-5.58963	-50.9751
   7	1	5	-0.393799	2.47144	-8.17525	-52.2296
   8	1	3	-0.008998	5.69804	-5.12059	-53.9968
   9	1	3	-0.064503	3.54406	-6.78761	-54.7866
  10	1	3	-0.16756	4.27406	-6.05192	-55.7429
  11	1	3	-0.085161	5.34038	-5.1841	-55.3707
  12	1	6	0.158939	6.53976	-4.5379	-53.6392
  13	1	6	0.163781	2.74836	-7.4691	-55.0822
  14	1	6	0.161401	4.01194	-6.18844	-56.7895
  15	1	7	-0.078003	6.15209	-4.42843	-56.4669
  16	1	7	0.303704	6.73717	-3.05383	-55.9573
  17	1	8	-0.1084	5.81472	-2.34164	-55.272
  18	1	8	-0.101508	7.13782	-2.27437	-56.9876
  19	1	8	-0.111714	7.80962	-3.18571	-55.145
  20	1	7	0.380371	7.33929	-5.37944	-56.8705
  21	1	8	-0.124028	8.01344	-5.83741	-55.7945
  22	1	8	-0.119704	8.24803	-4.78562	-57.6765
  23	1	8	-0.115877	6.88682	-6.48007	-57.5033
  24	1	3	-0.024709	5.20739	-4.0895	-57.6623
  25	1	3	-0.076489	5.53328	-4.37523	-59.0173
  26	1	3	-0.052344	4.61813	-4.04138	-60.0232
  27	1	3	-0.054202	3.96642	-3.44448	-57.3952
  28	1	3	-0.149083	3.06425	-3.10691	-58.4242
  29	1	3	-0.063027	3.42098	-3.42382	-59.7386
  30	1	2	0.499526	2.70403	-3.1862	-61.0194
  31	1	1	-0.036881	3.5374	-3.67939	-62.0215
  32	1	2	0.443545	4.70533	-4.22862	-61.496
  33	1	3	0.038197	3.23683	-3.60473	-63.4169
  34	1	3	-0.408621	2.64505	-2.44465	-63.9544
  35	1	3	0.252781	2.32029	-2.36998	-65.3179
  36	1	3	-0.169778	3.51529	-4.68286	-64.2828
  37	1	3	-0.113042	3.20653	-4.60554	-65.6538
  38	1	3	0.016958	2.61435	-3.44161	-66.1748
  39	1	6	0.167832	2.11891	-2.61226	-58.2088
  40	1	6	0.134138	3.69095	-3.20734	-56.3706
  41	1	6	0.145229	6.46694	-4.83996	-59.3161
  42	1	5	-0.462312	5.61895	-4.77929	-62.0869
  43	1	5	-0.483102	1.60855	-2.66113	-61.1295
  44	1	6	0.144532	3.41091	-5.44934	-66.3077
  45	1	6	0.226042	2.39914	-1.59855	-63.3191
  46	1	3	0.12103	3.01686	-3.74485	-68.5705
  47	1	3	-0.09864	4.4234	-3.701	-68.5253
  48	1	3	-0.194398	5.17565	-4.07016	-69.655
  49	1	3	-0.091961	4.52465	-4.47423	-70.833
  50	1	3	-0.197799	3.12101	-4.50624	-70.8833
  51	1	3	-0.102777	2.37001	-4.13759	-69.7533
  52	1	6	0.132074	5.10667	-4.75464	-71.7079
  53	1	6	0.154044	2.61598	-4.81039	-71.7968
  54	1	6	0.145155	4.92939	-3.37118	-67.6228
  55	1	6	0.14558	1.28458	-4.15166	-69.7881
  56	1	9	-0.24014	2.24234	-3.35725	-67.4989
  57	1	6	0.152938	3.96899	-5.5913	-63.8953
  58	1	6	0.151751	6.26163	-4.03516	-69.6196
  59	1	1	0.48116	11.0641	-14.4496	-61.5084
  60	1	2	0.034009	9.87661	-13.7801	-61.1892
  61	1	3	0.028921	10.1601	-12.3424	-61.4189
  62	1	2	0.071556	12.0754	-13.5672	-61.9129
  63	1	3	0.025276	11.4673	-12.2157	-61.8352
  64	1	5	-0.381907	8.82691	-14.2418	-60.7698
  65	1	5	-0.393799	13.2158	-13.82	-62.2704
  66	1	3	-0.008998	9.31815	-11.2329	-61.2906
  67	1	3	-0.064503	12.0148	-10.9653	-62.1266
  68	1	3	-0.16756	11.1896	-9.8303	-61.9855
  69	1	3	-0.085161	9.83344	-9.93728	-61.562
  70	1	6	0.158939	8.28339	-11.3922	-60.9995
  71	1	6	0.163781	13.0462	-10.8813	-62.4621
  72	1	6	0.161401	11.6211	-8.86776	-62.2385
  73	1	7	-0.078003	8.88981	-8.69909	-61.499
  74	1	7	0.303704	9.63951	-7.35896	-61.131
  75	1	8	-0.1084	10.4874	-7.52917	-60.0919
  76	1	8	-0.101508	8.76946	-6.39086	-60.7602
  77	1	8	-0.111714	10.3655	-6.84209	-62.1476
  78	1	7	0.380371	8.25829	-8.56566	-62.9378
  79	1	8	-0.124028	9.19741	-8.58151	-63.9115
  80	1	8	-0.119704	7.55554	-7.42294	-63.107
  81	1	8	-0.115877	7.43016	-9.6008	-63.2086
  82	1	3	-0.024709	7.83322	-8.92042	-60.3725
  83	1	3	-0.076489	8.2788	-9.30867	-59.0802
  84	1	3	-0.052344	7.34228	-9.45506	-58.0482
  85	1	3	-0.054202	6.43963	-8.68184	-60.5586
  86	1	3	-0.149083	5.51414	-8.83976	-59.5089
  87	1	3	-0.063027	5.99818	-9.23098	-58.258
  88	1	2	0.499526	5.2933	-9.35396	-56.9564
  89	1	1	-0.036881	6.28214	-9.62382	-56.018
  90	1	2	0.443545	7.54126	-9.73111	-56.5994
  91	1	3	0.038197	6.03677	-9.69772	-54.6181
  92	1	3	-0.408621	4.9997	-10.5045	-54.1165
  93	1	3	0.252781	4.71464	-10.5262	-52.7414
  94	1	3	-0.169778	6.79533	-8.92339	-53.7201
  95	1	3	-0.113042	6.50823	-8.93653	-52.3437
  96	1	3	0.016958	5.45827	-9.73044	-51.8533
  97	1	6	0.167832	4.45621	-8.62991	-59.6538
  98	1	6	0.134138	6.04485	-8.3469	-61.5108
  99	1	6	0.145229	9.33484	-9.46703	-58.8694
 100	1	5	-0.462312	8.60662	-9.94933	-56.0482
 101	1	5	-0.483102	4.10178	-9.16645	-56.7721
 102	1	6	0.144532	7.08069	-8.31417	-51.6627
 103	1	6	0.226042	4.38169	-11.0931	-54.788
 104	1	3	0.12103	5.12729	-8.62933	-49.6795
 105	1	3	-0.09864	5.8492	-8.76504	-48.482
 106	1	3	-0.194398	5.74947	-7.79658	-47.4744
 107	1	3	-0.091961	4.91363	-6.69039	-47.6671
 108	1	3	-0.197799	4.17651	-6.56749	-48.8555
 109	1	3	-0.102777	4.22499	-7.55194	-49.8738
 110	1	6	0.132074	4.83405	-5.92578	-46.8978
 111	1	6	0.154044	3.55448	-5.68374	-48.989
 112	1	6	0.145155	6.46495	-9.64648	-48.3271
 113	1	6	0.14558	3.236	-7.98762	-49.9573
 114	1	9	-0.24014	5.12262	-9.72748	-50.5165
 115	1	6	0.152938	7.60325	-8.29818	-54.0931
 116	1	6	0.151751	6.30024	-7.9151	-46.5439
 117	1	1	0.48116	8.10897	-5.37198	-46.2781
 118	1	2	0.034009	7.95959	-5.01465	-47.6243
 119	1	3	0.028921	8.87294	-5.90877	-48.3781
 120	1	2	0.071556	9.02329	-6.42405	-46.1122
 121	1	3	0.025276	9.50142	-6.74363	-47.4811
 122	1	5	-0.381907	7.30292	-4.09639	-48.0904
 123	1	5	-0.393799	9.43888	-6.93512	-45.0828
 124	1	3	-0.008998	9.18767	-5.9179	-49.7411
 125	1	3	-0.064503	10.4768	-7.64954	-47.901
 126	1	3	-0.16756	10.8106	-7.67567	-49.2709
 127	1	3	-0.085161	10.1873	-6.81264	-50.2184
 128	1	6	0.158939	8.66675	-5.20996	-50.3757
 129	1	6	0.163781	10.9802	-8.28915	-47.1793
 130	1	6	0.161401	11.5789	-8.37347	-49.595
 131	1	7	-0.078003	10.6796	-6.83695	-51.7048
 132	1	7	0.303704	9.80943	-5.92868	-52.6559
 133	1	8	-0.1084	8.51023	-6.2902	-52.621
 134	1	8	-0.101508	10.1757	-6.02525	-53.9524
 135	1	8	-0.111714	9.88348	-4.61489	-52.3454
 136	1	7	0.380371	12.1626	-6.28909	-51.6913
 137	1	8	-0.124028	12.2772	-5.19608	-50.9021
 138	1	8	-0.119704	12.633	-5.92326	-52.9041
 139	1	8	-0.115877	13.0322	-7.20699	-51.2133
 140	1	3	-0.024709	10.5963	-8.28616	-52.2767
 141	1	3	-0.076489	11.3043	-8.64933	-53.4541
 142	1	3	-0.052344	11.1228	-9.92707	-53.9967
 143	1	3	-0.054202	9.72902	-9.25741	-51.697
 144	1	3	-0.149083	9.57582	-10.546	-52.2475
 145	1	3	-0.063027	10.2865	-10.851	-53.4112
 146	1	2	0.499526	10.287	-12.0789	-54.2507
 147	1	1	-0.036881	11.1471	-11.8121	-55.3116
 148	1	2	0.443545	11.6816	-10.5291	-55.2365
 149	1	3	0.038197	11.4606	-12.7495	-56.3396
 150	1	3	-0.408621	10.4478	-13.5238	-56.9377
 151	1	3	0.252781	10.7604	-14.4642	-57.9325
 152	1	3	-0.169778	12.792	-12.9259	-56.7655
 153	1	3	-0.113042	13.1078	-13.8595	-57.7669
 154	1	3	0.016958	12.0949	-14.6346	-58.3485
 155	1	6	0.167832	8.89538	-11.2732	-51.8087
 156	1	6	0.134138	9.1345	-9.01679	-50.8219
 157	1	6	0.145229	11.9487	-7.95384	-53.9815
 158	1	5	-0.462312	12.4751	-9.99513	-55.9945
 159	1	5	-0.483102	9.68663	-13.1121	-54.0015
 160	1	6	0.144532	14.1365	-13.984	-58.0949
 161	1	6	0.226042	9.41423	-13.4196	-56.6196
 162	1	3	0.12103	11.5305	-16.2625	-60.054
 163	1	3	-0.09864	11.0143	-17.4412	-59.4926
 164	1	3	-0.194398	10.1098	-18.2271	-60.2206
 165	1	3	-0.091961	9.72127	-17.8199	-61.5039
 166	1	3	-0.197799	10.2546	-16.6453	-62.0604
 167	1	3	-0.102777	11.2191	-15.8693	-61.3724
 168	1	6	0.132074	8.99451	-18.4058	-62.0624
 169	1	6	0.154044	9.91299	-16.333	-63.0456
 170	1	6	0.145155	11.3154	-17.7363	-58.4912
 171	1	6	0.14558	12.1401	-15.9436	-61.9389
 172	1	9	-0.24014	12.4447	-15.531	-59.3344
 173	1	6	0.152938	13.5902	-12.3355	-56.3223
 174	1	6	0.151751	9.69807	-19.1345	-59.7852
 175	1	1	0.48116	10.2377	-8.21057	-31.9568
 176	1	2	0.034009	9.95004	-9.56599	-32.1694
 177	1	3	0.028921	8.5373	-9.60385	-32.6137
 178	1	2	0.071556	9.14609	-7.38693	-32.2647
 179	1	3	0.025276	8.06248	-8.3123	-32.6792
 180	1	5	-0.381907	10.6854	-10.5356	-32.0667
 181	1	5	-0.393799	9.07797	-6.16736	-32.2403
 182	1	3	-0.008998	7.74423	-10.7039	-32.9528
 183	1	3	-0.064503	6.75919	-8.04318	-33.0999
 184	1	3	-0.16756	5.94651	-9.13576	-33.4659
 185	1	3	-0.085161	6.41655	-10.4795	-33.4055
 186	1	6	0.158939	8.18618	-11.691	-32.8718
 187	1	6	0.163781	6.3975	-7.01862	-33.1534
 188	1	6	0.161401	4.93948	-8.92741	-33.8192
 189	1	7	-0.078003	5.46952	-11.6283	-33.8695
 190	1	7	0.303704	6.18597	-13.0253	-34.0165
 191	1	8	-0.1084	7.27764	-12.9519	-34.8116
 192	1	8	-0.101508	5.37871	-13.9452	-34.5921
 193	1	8	-0.111714	6.58208	-13.5403	-32.8307
 194	1	7	0.380371	4.33009	-11.7453	-32.7813
 195	1	8	-0.124028	4.84459	-11.772	-31.5306
 196	1	8	-0.119704	3.57194	-12.8577	-32.9065
 197	1	8	-0.115877	3.47904	-10.6952	-32.8205
 198	1	3	-0.024709	4.95522	-11.2561	-35.2895
 199	1	3	-0.076489	5.86566	-10.6766	-36.211
 200	1	3	-0.052344	5.41904	-10.3309	-37.4896
 201	1	3	-0.054202	3.62165	-11.5018	-35.7255
 202	1	3	-0.149083	3.19352	-11.1495	-37.0241
 203	1	3	-0.063027	4.12154	-10.5568	-37.889
 204	1	2	0.499526	3.97306	-10.05	-39.2815
 205	1	1	-0.036881	5.21482	-9.5212	-39.6294
 206	1	2	0.443545	6.14344	-9.6671	-38.6023
 207	1	3	0.038197	5.49099	-8.83603	-40.8522
 208	1	3	-0.408621	4.55521	-7.93011	-41.3901
 209	1	3	0.252781	4.85588	-7.19048	-42.5448
 210	1	3	-0.169778	6.72607	-9.00615	-41.5126
 211	1	3	-0.113042	7.03543	-8.26087	-42.6643
 212	1	3	0.016958	6.10263	-7.34374	-43.172
 213	1	6	0.167832	2.16992	-11.3269	-37.3489
 214	1	6	0.134138	2.89733	-11.9684	-35.0667
 215	1	6	0.145229	6.90254	-10.4843	-35.9446
 216	1	5	-0.462312	7.29822	-9.27763	-38.5613
 217	1	5	-0.483102	2.94341	-10.0631	-39.9351
 218	1	6	0.144532	8.00789	-8.36229	-43.1418
 219	1	6	0.226042	3.58933	-7.78212	-40.9157
 220	1	3	0.12103	7.20616	-5.37337	-44.0554
 221	1	3	-0.09864	7.60488	-4.93523	-42.7745
 222	1	3	-0.194398	8.29572	-3.72505	-42.6223
 223	1	3	-0.091961	8.5708	-2.94022	-43.7476
 224	1	3	-0.197799	8.17721	-3.38263	-45.019
 225	1	3	-0.102777	7.51468	-4.61955	-45.2087
 226	1	6	0.132074	9.09167	-1.99136	-43.6368
 227	1	6	0.154044	8.40115	-2.75515	-45.8817
 228	1	6	0.145155	7.37802	-5.52456	-41.8911
 229	1	6	0.14558	6.58861	-4.45544	-45.7492
 230	1	9	-0.24014	6.45053	-6.52026	-44.2168
 231	1	6	0.152938	7.46998	-9.69201	-41.1138
 232	1	6	0.151751	8.60351	-3.39145	-41.6342
 233	1	1	0.48116	12.4649	-8.10349	-14.521
 234	1	2	0.034009	12.851	-7.94464	-15.8565
 235	1	3	0.028921	13.6338	-9.1626	-16.1885
 236	1	2	0.071556	12.9298	-9.30738	-13.9755
 237	1	3	0.025276	13.6836	-9.96644	-15.0704
 238	1	5	-0.381907	12.5884	-7.03181	-16.6229
 239	1	5	-0.393799	12.7331	-9.76992	-12.862
 240	1	3	-0.008998	14.2347	-9.54496	-17.3933
 241	1	3	-0.064503	14.3531	-11.1913	-15.0882
 242	1	3	-0.16756	14.9705	-11.5945	-16.2905
 243	1	3	-0.085161	14.9102	-10.7928	-17.4676
 244	1	6	0.158939	14.1626	-8.88353	-18.2532
 245	1	6	0.163781	14.3912	-11.8094	-14.1933
 246	1	6	0.161401	15.4939	-12.5445	-16.2803
 247	1	7	-0.078003	15.5645	-11.2149	-18.8192
 248	1	7	0.303704	16.8576	-10.3264	-18.9897
 249	1	8	-0.1084	16.5506	-9.03246	-19.2341
 250	1	8	-0.101508	17.667	-10.7366	-19.9925
 251	1	8	-0.111714	17.6109	-10.3302	-17.8667
 252	1	7	0.380371	15.973	-12.7375	-18.8868
 253	1	8	-0.124028	17.0231	-13.043	-18.0911
 254	1	8	-0.119704	16.3188	-13.1088	-20.141
 255	1	8	-0.115877	14.9507	-13.5498	-18.5328
 256	1	3	-0.024709	14.514	-11.0063	-19.9476
 257	1	3	-0.076489	14.8556	-10.4899	-21.2257
 258	1	3	-0.052344	13.8587	-10.386	-22.2029
 259	1	3	-0.054202	13.168	-11.4141	-19.7237
 260	1	3	-0.149083	12.1798	-11.3002	-20.722
 261	1	3	-0.063027	12.5601	-10.7783	-21.9617
 262	1	2	0.499526	11.773	-10.5748	-23.2065
 263	1	1	-0.036881	12.6702	-10.0658	-24.1407
 264	1	2	0.443545	13.9474	-9.91672	-23.6098
 265	1	3	0.038197	12.3252	-9.74628	-25.4857
 266	1	3	-0.408621	11.5146	-10.616	-26.2405
 267	1	3	0.252781	11.1444	-10.2864	-27.5533
 268	1	3	-0.169778	12.7788	-8.55003	-26.0767
 269	1	3	-0.113042	12.4245	-8.22373	-27.3965
 270	1	3	0.016958	11.6094	-9.09663	-28.1347
 271	1	6	0.167832	11.1551	-11.622	-20.5458
 272	1	6	0.134138	12.8828	-11.8413	-18.7654
 273	1	6	0.145229	15.8641	-10.1872	-21.4867
 274	1	5	-0.462312	14.9544	-9.50962	-24.1638
 275	1	5	-0.483102	10.5914	-10.8405	-23.3526
 276	1	6	0.144532	12.7674	-7.29308	-27.8405
 277	1	6	0.226042	11.1358	-11.5377	-25.8084
 278	1	3	0.12103	12.0542	-8.46109	-30.4478
 279	1	3	-0.09864	13.3868	-8.91529	-30.4606
 280	1	3	-0.194398	14.2215	-8.61331	-31.5461
 281	1	3	-0.091961	13.7196	-7.86293	-32.6176
 282	1	3	-0.197799	12.3836	-7.43163	-32.6064
 283	1	3	-0.102777	11.5188	-7.7282	-31.5271
 284	1	6	0.132074	14.3611	-7.62843	-33.4644
 285	1	6	0.154044	12.0093	-6.85944	-33.4544
 286	1	6	0.145155	13.7685	-9.51541	-29.6397
 287	1	6	0.14558	11.1372	-6.79799	-31.121
 288	1	9	-0.24014	11.2056	-8.76641	-29.4046
 289	1	6	0.152938	13.4056	-7.86461	-25.5114
 290	1	6	0.151751	15.2488	-8.96903	-31.5606
 291	1	1	0.48116	16.9687	-16.1528	-0.709026
 292	1	2	0.034009	17.7464	-14.9914	-0.616105
 293	1	3	0.028921	17.2125	-14.0819	-1.65621
 294	1	2	0.071556	16.048	-16.0927	-1.76086
 295	1	3	0.025276	16.2072	-14.7334	-2.3378
 296	1	5	-0.381907	18.611	-14.711	0.199658
 297	1	5	-0.393799	15.2061	-16.9152	-2.08621
 298	1	3	-0.008998	17.5299	-12.7441	-1.90531
 299	1	3	-0.064503	15.4534	-14.0749	-3.31201
 300	1	3	-0.16756	15.7575	-12.7236	-3.58106
 301	1	3	-0.085161	16.8075	-12.0393	-2.90364
 302	1	6	0.158939	18.301	-12.2827	-1.29886
 303	1	6	0.163781	14.6369	-14.5875	-3.81627
 304	1	6	0.161401	15.1529	-12.1974	-4.31681
 305	1	7	-0.078003	17.0731	-10.5361	-3.21854
 306	1	7	0.303704	15.9924	-9.71994	-2.40943
 307	1	8	-0.1084	15.9127	-10.1361	-1.12494
 308	1	8	-0.101508	14.7558	-9.87471	-2.93529
 309	1	8	-0.111714	16.2467	-8.39255	-2.36036
 310	1	7	0.380371	18.5161	-10.0536	-2.80807
 311	1	8	-0.124028	18.8151	-8.84893	-3.34605
 312	1	8	-0.119704	19.4656	-10.9099	-3.24952
 313	1	8	-0.115877	18.6795	-9.92507	-1.47215
 314	1	3	-0.024709	16.9809	-10.3245	-4.75695
 315	1	3	-0.076489	16.4022	-9.16107	-5.32586
 316	1	3	-0.052344	16.3552	-9.04092	-6.71756
 317	1	3	-0.054202	17.5359	-11.299	-5.63544
 318	1	3	-0.149083	17.4636	-11.1645	-7.03698
 319	1	3	-0.063027	16.8551	-10.0158	-7.5526
 320	1	2	0.499526	16.5906	-9.60262	-8.95736
 321	1	1	-0.036881	15.921	-8.38601	-8.86981
 322	1	2	0.443545	15.768	-7.96611	-7.55288
 323	1	3	0.038197	15.3664	-7.69778	-9.98507
 324	1	3	-0.408621	16.1029	-7.51884	-11.1712
 325	1	3	0.252781	15.5183	-6.88469	-12.2803
 326	1	3	-0.169778	14.0482	-7.20929	-9.91823
 327	1	3	-0.113042	13.4655	-6.56435	-11.0181
 328	1	3	0.016958	14.1939	-6.41895	-12.2123
 329	1	6	0.167832	17.8622	-11.9286	-7.70151
 330	1	6	0.134138	18.0168	-12.1847	-5.22755
 331	1	6	0.145229	15.9858	-8.35813	-4.72712
 332	1	5	-0.462312	15.2251	-6.95779	-7.13399
 333	1	5	-0.483102	16.8713	-10.2459	-9.95498
 334	1	6	0.144532	12.4491	-6.18977	-10.9396
 335	1	6	0.226042	17.1169	-7.89925	-11.2557
 336	1	3	0.12103	12.2675	-5.90686	-13.5744
 337	1	3	-0.09864	11.5054	-4.73927	-13.4127
 338	1	3	-0.194398	10.1162	-4.77555	-13.6019
 339	1	3	-0.091961	9.50882	-5.96983	-14.013
 340	1	3	-0.197799	10.2853	-7.12867	-14.1807
 341	1	3	-0.102777	11.6527	-7.15564	-13.8169
 342	1	6	0.132074	8.44172	-5.99121	-14.2253
 343	1	6	0.154044	9.80179	-8.0356	-14.5396
 344	1	6	0.145155	11.9993	-3.81016	-13.1414
 345	1	6	0.14558	11.658	-7.6385	-12.8482
 346	1	9	-0.24014	13.6197	-5.84025	-13.3234
 347	1	6	0.152938	13.4648	-7.33243	-9.00913
 348	1	6	0.151751	9.52178	-3.87373	-13.4756
 349	1	1	0.48116	7.46195	-3.74191	4.2291
 350	1	2	0.034009	8.42278	-4.21154	5.15014
 351	1	3	0.028921	8.11849	-5.64988	5.35265
 352	1	2	0.071556	6.58781	-4.77452	3.84702
 353	1	3	0.025276	7.05655	-5.99287	4.55158
 354	1	5	-0.381907	9.32602	-3.62201	5.72268
 355	1	5	-0.393799	5.58009	-4.70403	3.15973
 356	1	3	-0.008998	8.67463	-6.55441	6.26378
 357	1	3	-0.064503	6.55254	-7.29574	4.53978
 358	1	3	-0.16756	7.1145	-8.23281	5.4346
 359	1	3	-0.085161	8.13601	-7.86968	6.35765
 360	1	6	0.158939	9.45746	-6.182	6.91464
 361	1	6	0.163781	5.71929	-7.55531	3.88965
 362	1	6	0.161401	6.69301	-9.23472	5.45916
 363	1	7	-0.078003	8.47798	-8.84426	7.5341
 364	1	7	0.303704	7.18162	-8.88204	8.44435
 365	1	8	-0.1084	6.17423	-9.57218	7.86347
 366	1	8	-0.101508	6.70782	-7.63721	8.68238
 367	1	8	-0.111714	7.36944	-9.43491	9.66327
 368	1	7	0.380371	9.69502	-8.35235	8.41202
 369	1	8	-0.124028	9.43829	-7.20498	9.08012
 370	1	8	-0.119704	10.0539	-9.25962	9.34882
 371	1	8	-0.115877	10.7987	-8.14995	7.6565
 372	1	3	-0.024709	8.89861	-10.2495	7.00295
 373	1	3	-0.076489	9.66011	-10.3633	5.80834
 374	1	3	-0.052344	10.2458	-11.6008	5.48717
 375	1	3	-0.054202	8.71822	-11.4228	7.79373
 376	1	3	-0.149083	9.33465	-12.6451	7.46726
 377	1	3	-0.063027	10.1203	-12.6957	6.31554
 378	1	2	0.499526	10.9795	-13.7914	5.79484
 379	1	1	-0.036881	11.5601	-13.2936	4.6355
 380	1	2	0.443545	11.1533	-11.9863	4.37019
 381	1	3	0.038197	12.5012	-14.0172	3.84434
 382	1	3	-0.408621	13.5854	-14.6834	4.45054
 383	1	3	0.252781	14.5642	-15.3174	3.66717
 384	1	3	-0.169778	12.3875	-14.0403	2.44089
 385	1	3	-0.113042	13.3599	-14.6823	1.65456
 386	1	3	0.016958	14.447	-15.3237	2.26733
 387	1	6	0.167832	9.24467	-13.5151	8.11527
 388	1	6	0.134138	8.16014	-11.3969	8.72023
 389	1	6	0.145229	9.86099	-9.49855	5.1801
 390	1	5	-0.462312	11.4592	-11.2793	3.42547
 391	1	5	-0.483102	11.179	-14.8618	6.34534
 392	1	6	0.144532	13.2986	-14.6447	0.569988
 393	1	6	0.226042	13.6961	-14.6905	5.5312
 394	1	3	0.12103	15.9207	-17.0217	1.23449
 395	1	3	-0.09864	15.3865	-18.1269	1.92281
 396	1	3	-0.194398	15.8083	-19.4245	1.59292
 397	1	3	-0.091961	16.7082	-19.6127	0.534014
 398	1	3	-0.197799	17.2236	-18.5014	-0.152866
 399	1	3	-0.102777	16.9539	-17.1838	0.285358
 400	1	6	0.132074	16.9818	-20.6196	0.225342
 401	1	6	0.154044	17.8832	-18.6672	-1.00298
 402	1	6	0.145155	14.6306	-17.986	2.68923
 403	1	6	0.14558	17.8517	-16.9028	0.823546
 404	1	9	-0.24014	15.4946	-15.7315	1.47858
 405	1	6	0.152938	11.5673	-13.5199	1.95234
 406	1	6	0.151751	15.3944	-20.2836	2.11562
 407	1	1	0.48116	3.15865	5.25834	15.4887
 408	1	2	0.034009	4.07798	4.20304	15.5064
 409	1	3	0.028921	5.39168	4.82431	15.1883
 410	1	2	0.071556	3.76021	6.4869	15.2012
 411	1	3	0.025276	5.19193	6.17481	14.9923
 412	1	5	-0.381907	3.86772	3.01465	15.6902
 413	1	5	-0.393799	3.24935	7.5947	15.1321
 414	1	3	-0.008998	6.66815	4.2532	15.0931
 415	1	3	-0.064503	6.24369	7.02667	14.6612
 416	1	3	-0.16756	7.53207	6.47199	14.5495
 417	1	3	-0.085161	7.77372	5.08321	14.7598
 418	1	6	0.158939	6.78959	3.19026	15.2858
 419	1	6	0.163781	6.0648	8.08851	14.5056
 420	1	6	0.161401	8.33897	7.15665	14.315
 421	1	7	-0.078003	9.21539	4.48819	14.7256
 422	1	7	0.303704	10.2067	5.32762	13.8272
 423	1	8	-0.1084	9.65254	5.64649	12.635
 424	1	8	-0.101508	11.3357	4.6387	13.5424
 425	1	8	-0.111714	10.6084	6.48214	14.4069
 426	1	7	0.380371	9.72607	4.48895	16.2174
 427	1	8	-0.124028	11.0671	4.34469	16.3232
 428	1	8	-0.119704	9.15624	3.49499	16.9361
 429	1	8	-0.115877	9.41588	5.63997	16.8571
 430	1	3	-0.024709	9.18097	3.06496	14.0952
 431	1	3	-0.076489	8.37865	2.84315	12.9482
 432	1	3	-0.052344	8.43378	1.60062	12.3083
 433	1	3	-0.054202	10.0281	2.00641	14.538
 434	1	3	-0.149083	10.0862	0.76974	13.8621
 435	1	3	-0.063027	9.27668	0.595738	12.7349
 436	1	2	0.499526	9.27132	-0.485497	11.7077
 437	1	1	-0.036881	8.4354	-0.0224758	10.7005
 438	1	2	0.443545	7.83943	1.18923	11.0154
 439	1	3	0.038197	8.43089	-0.503437	9.36793
 440	1	3	-0.408621	9.4964	-0.141861	8.52529
 441	1	3	0.252781	9.38815	-0.309681	7.13594
 442	1	3	-0.169778	7.28838	-1.11391	8.82064
 443	1	3	-0.113042	7.1845	-1.29441	7.42889
 444	1	3	0.016958	8.22387	-0.86843	6.58405
 445	1	6	0.167832	10.7831	-0.00810218	14.169
 446	1	6	0.134138	10.6986	2.14209	15.3793
 447	1	6	0.145229	7.76791	3.6355	12.5186
 448	1	5	-0.462312	7.14689	1.88718	10.2959
 449	1	5	-0.483102	10.0142	-1.45159	11.6803
 450	1	6	0.144532	6.26205	-1.67125	6.998
 451	1	6	0.226042	10.3702	0.359657	8.92968
 452	1	3	0.12103	8.3081	-1.52644	4.22351
 453	1	3	-0.09864	9.51322	-1.29818	3.5339
 454	1	3	-0.194398	9.65821	-1.77	2.21898
 455	1	3	-0.091961	8.5348	-2.29752	1.56889
 456	1	3	-0.197799	7.34914	-2.49382	2.29236
 457	1	3	-0.102777	7.32638	-2.398	3.7058
 458	1	6	0.132074	8.56568	-2.51596	0.503486
 459	1	6	0.154044	6.4616	-2.83551	1.76068
 460	1	6	0.145155	10.2908	-0.688233	3.984
 461	1	6	0.14558	6.33477	-2.18034	4.09007
 462	1	9	-0.24014	7.95504	-0.684749	5.24915
 463	1	6	0.152938	6.44538	-1.36215	9.46048
 464	1	6	0.151751	10.5786	-1.59656	1.66629
 465	1	1	0.48116	-8.05132	0.428891	4.2713
 466	1	2	0.034009	-8.34622	1.62469	4.94526
 467	1	3	0.028921	-7.12784	2.45992	4.83327
 468	1	2	0.071556	-6.71673	0.385352	3.84426
 469	1	3	0.025276	-6.145	1.70929	4.2254
 470	1	5	-0.381907	-9.42934	2.01197	5.35836
 471	1	5	-0.393799	-6.18814	-0.411582	3.08571
 472	1	3	-0.008998	-6.98366	3.83766	5.04927
 473	1	3	-0.064503	-4.91358	2.28144	3.89359
 474	1	3	-0.16756	-4.72768	3.65832	4.1472
 475	1	3	-0.085161	-5.76741	4.47342	4.67853
 476	1	6	0.158939	-7.84254	4.38542	5.42267
 477	1	6	0.163781	-4.15281	1.6885	3.39112
 478	1	6	0.161401	-3.78564	4.11183	3.84743
 479	1	7	-0.078003	-5.57424	6.02416	4.69995
 480	1	7	0.303704	-5.6901	6.50995	3.20202
 481	1	8	-0.1084	-5.72968	7.85735	3.08236
 482	1	8	-0.101508	-6.80967	6.03511	2.61029
 483	1	8	-0.111714	-4.66032	6.07602	2.44082
 484	1	7	0.380371	-6.65259	6.79278	5.56405
 485	1	8	-0.124028	-7.87865	6.81219	4.99456
 486	1	8	-0.119704	-6.2998	8.083	5.76682
 487	1	8	-0.115877	-6.80571	6.2526	6.79406
 488	1	3	-0.024709	-4.19075	6.33074	5.34004
 489	1	3	-0.076489	-3.88991	5.72028	6.57951
 490	1	3	-0.052344	-2.66946	5.99978	7.19509
 491	1	3	-0.054202	-3.22475	7.21724	4.77459
 492	1	3	-0.149083	-1.98265	7.46098	5.40246
 493	1	3	-0.063027	-1.72602	6.82732	6.624
 494	1	2	0.499526	-0.546301	6.88324	7.53871
 495	1	1	-0.036881	-0.893491	6.08553	8.62158
 496	1	2	0.443545	-2.15623	5.53306	8.49897
 497	1	3	0.038197	-0.0949184	5.83752	9.76156
 498	1	3	-0.408621	0.882753	4.82865	9.73091
 499	1	3	0.252781	1.50882	4.42776	10.9224
 500	1	3	-0.169778	-0.407614	6.47282	10.9762
 501	1	3	-0.113042	0.218689	6.07438	12.1681
 502	1	3	0.016958	1.15217	5.02281	12.1445
 503	1	6	0.167832	-1.24752	8.13071	4.95801
 504	1	6	0.134138	-3.41167	7.73086	3.83788
 505	1	6	0.145229	-4.58916	5.04537	7.06827
 506	1	5	-0.462312	-2.7706	4.87125	9.3159
 507	1	5	-0.483102	0.485936	7.50816	7.36375
 508	1	6	0.144532	-0.0434279	6.5566	13.1063
 509	1	6	0.226042	1.12847	4.32082	8.80585
 510	1	3	0.12103	1.10372	4.51244	14.5281
 511	1	3	-0.09864	-0.178092	3.9461	14.65
 512	1	3	-0.194398	-0.756913	3.80227	15.9209
 513	1	3	-0.091961	-0.0128829	4.14516	17.0598
 514	1	3	-0.197799	1.27029	4.69896	16.915
 515	1	3	-0.102777	1.74771	5.08703	15.6413
 516	1	6	0.132074	-0.41718	3.95638	18.0523
 517	1	6	0.154044	1.85345	4.91953	17.8079
 518	1	6	0.145155	-0.702674	3.589	13.7672
 519	1	6	0.14558	1.41241	6.11642	15.586
 520	1	9	-0.24014	1.73304	4.56272	13.3026
 521	1	6	0.152938	-1.17283	7.24412	11.0042
 522	1	6	0.151751	-1.74583	3.36129	16.0253
 523	1	1	0.48116	-7.74362	-10.3728	17.9388
 524	1	2	0.034009	-7.97601	-9.60403	16.7889
 525	1	3	0.028921	-7.16156	-8.3773	16.9572
 526	1	2	0.071556	-6.79009	-9.78146	18.7789
 527	1	3	0.025276	-6.43545	-8.49543	18.1218
 528	1	5	-0.381907	-8.77063	-9.81052	15.8849
 529	1	5	-0.393799	-6.43109	-10.1319	19.8919
 530	1	3	-0.008998	-7.18927	-7.18834	16.2185
 531	1	3	-0.064503	-5.62963	-7.44872	18.5734
 532	1	3	-0.16756	-5.61245	-6.25305	17.8245
 533	1	3	-0.085161	-6.42273	-6.07766	16.6653
 534	1	6	0.158939	-7.84802	-7.14142	15.3573
 535	1	6	0.163781	-5.06914	-7.54726	19.501
 536	1	6	0.161401	-4.99286	-5.4429	18.1963
 537	1	7	-0.078003	-6.5246	-4.68224	15.9766
 538	1	7	0.303704	-6.97618	-3.61118	17.0637
 539	1	8	-0.1084	-7.29171	-2.4212	16.5022
 540	1	8	-0.101508	-6.06058	-3.3211	18.0131
 541	1	8	-0.111714	-8.04709	-4.04383	17.7688
 542	1	7	0.380371	-5.10891	-4.25248	15.4044
 543	1	8	-0.124028	-4.21121	-3.87026	16.3379
 544	1	8	-0.119704	-5.22099	-3.2207	14.5366
 545	1	8	-0.115877	-4.49501	-5.2678	14.7572
 546	1	3	-0.024709	-7.56388	-4.73024	14.7883
 547	1	3	-0.076489	-7.20309	-5.26824	13.5172
 548	1	3	-0.052344	-8.08263	-5.14327	12.432
 549	1	3	-0.054202	-8.8873	-4.20051	14.9072
 550	1	3	-0.149083	-9.75211	-4.07752	13.8048
 551	1	3	-0.063027	-9.30408	-4.53085	12.5657
 552	1	2	0.499526	-9.86326	-4.29019	11.2144
 553	1	1	-0.036881	-8.89415	-4.73458	10.3184
 554	1	2	0.443545	-7.83898	-5.36153	10.9801
 555	1	3	0.038197	-8.84028	-4.32569	8.94919
 556	1	3	-0.408621	-8.23186	-5.42225	7.68014
 557	1	3	0.252781	-7.94634	-4.79881	5.98686
 558	1	3	-0.169778	-9.21425	-2.62123	8.55353
 559	1	3	-0.113042	-9.04972	-2.01893	6.88926
 560	1	3	0.016958	-8.35651	-3.08421	5.60136
 561	1	6	0.167832	-10.7148	-3.5776	13.8965
 562	1	6	0.134138	-9.26602	-3.80164	15.8379
 563	1	6	0.145229	-6.23491	-5.71344	13.3237
 564	1	5	-0.462312	-6.81578	-5.82166	10.5097
 565	1	5	-0.483102	-10.857	-3.62104	10.9938
 566	1	6	0.144532	-9.28637	-0.978896	6.68462
 567	1	6	0.226042	-7.94529	-6.44187	7.92863
 568	1	3	0.12103	-8.94371	-1.81072	3.65072
 569	1	3	-0.09864	-9.81797	-2.56329	2.84747
 570	1	3	-0.194398	-10.7486	-1.92447	2.01673
 571	1	3	-0.091961	-10.754	-0.527366	1.94734
 572	1	3	-0.197799	-9.8969	0.211367	2.77512
 573	1	3	-0.102777	-9.11547	-0.407215	3.78392
 574	1	6	0.132074	-11.406	-0.0159838	1.24264
 575	1	6	0.154044	-9.90749	1.29715	2.68554
 576	1	6	0.145155	-9.74355	-3.64693	2.84609
 577	1	6	0.14558	-9.76175	-0.352283	4.65017
 578	1	9	-0.24014	-8.03416	-2.52556	4.3911
 579	1	6	0.152938	-9.56527	-1.94916	9.33475
 580	1	6	0.151751	-11.4104	-2.50744	1.38154
 581	1	1	0.48116	2.32493	-3.09201	14.9262
 582	1	2	0.034009	3.3131	-4.01921	14.5657
 583	1	3	0.028921	2.58359	-5.13665	13.9199
 584	1	2	0.071556	1.04889	-3.49228	14.5155
 585	1	3	0.025276	1.24237	-4.82141	13.8908
 586	1	5	-0.381907	4.50958	-3.99989	14.8087
 587	1	5	-0.393799	-0.0252551	-2.94294	14.7042
 588	1	3	-0.008998	3.05405	-6.40639	13.5707
 589	1	3	-0.064503	0.28953	-5.74878	13.4751
 590	1	3	-0.16756	0.73434	-7.0487	13.1711
 591	1	3	-0.085161	2.10996	-7.4188	13.2499
 592	1	6	0.158939	4.1151	-6.59807	13.6829
 593	1	6	0.163781	-0.76925	-5.49772	13.4932
 594	1	6	0.161401	-0.0282099	-7.79682	12.9792
 595	1	7	-0.078003	2.46605	-8.93781	13.2698
 596	1	7	0.303704	2.09629	-9.56567	11.8624
 597	1	8	-0.1084	2.72999	-8.92241	10.8569
 598	1	8	-0.101508	2.42483	-10.8731	11.7573
 599	1	8	-0.111714	0.780334	-9.49727	11.567
 600	1	7	0.380371	3.99383	-9.24696	13.5543
 601	1	8	-0.124028	4.42914	-8.74486	14.7315
 602	1	8	-0.119704	4.81037	-8.74832	12.5987
 603	1	8	-0.115877	4.24125	-10.5729	13.635
 604	1	3	-0.024709	1.63448	-9.47985	14.4714
 605	1	3	-0.076489	0.692232	-10.5359	14.3605
 606	1	3	-0.052344	-0.157336	-10.7956	15.4471
 607	1	3	-0.054202	1.70824	-8.77511	15.7103
 608	1	3	-0.149083	0.862454	-9.06623	16.794
 609	1	3	-0.063027	-0.0782474	-10.0805	16.6243
 610	1	2	0.499526	-1.19969	-10.4878	17.5066
 611	1	1	-0.036881	-1.93021	-11.409	16.7697
 612	1	2	0.443545	-1.34497	-11.6845	15.5374
 613	1	3	0.038197	-3.19954	-11.9022	17.1746
 614	1	3	-0.408621	-4.29341	-11.821	16.2936
 615	1	3	0.252781	-5.5504	-12.3061	16.6776
 616	1	3	-0.169778	-3.38897	-12.4415	18.4613
 617	1	3	-0.113042	-4.65735	-12.8968	18.8616
 618	1	3	0.016958	-5.7386	-12.8189	17.9703
 619	1	6	0.167832	0.890246	-8.47993	17.7107
 620	1	6	0.134138	2.38801	-7.9361	15.8232
 621	1	6	0.145229	0.553102	-11.1008	13.4444
 622	1	5	-0.462312	-1.76594	-12.4028	14.6466
 623	1	5	-0.483102	-1.46062	-10.0114	18.5984
 624	1	6	0.144532	-4.80547	-13.3069	19.857
 625	1	6	0.226042	-4.17104	-11.4112	15.2953
 626	1	3	0.12103	-7.9323	-12.5516	18.9792
 627	1	3	-0.09864	-8.45111	-13.0837	20.1712
 628	1	3	-0.194398	-9.61207	-12.5482	20.7455
 629	1	3	-0.091961	-10.2819	-11.5069	20.0939
 630	1	3	-0.197799	-9.77697	-10.9984	18.8877
 631	1	3	-0.102777	-8.57782	-11.4831	18.3096
 632	1	6	0.132074	-11.1969	-11.0986	20.5179
 633	1	6	0.154044	-10.3217	-10.1919	18.3974
 634	1	6	0.145155	-7.96127	-13.9373	20.631
 635	1	6	0.14558	-8.75362	-11.8023	17.2881
 636	1	9	-0.24014	-6.96675	-13.3008	18.3457
 637	1	6	0.152938	-2.55664	-12.4967	19.1588
 638	1	6	0.151751	-10.0078	-12.9602	21.6702
 639	1	1	0.48116	4.97918	12.5172	7.36113
 640	1	2	0.034009	6.22018	11.868	7.43529