pySIMM System Object

2379 atoms
2624 bonds
4507 angles
7042 dihedrals
820 impropers

9 atom types
11 bond types
19 angle types
8 dihedral types
4 improper types

-216.209231 216.209231 xlo xhi
-216.209231 216.209231 ylo yhi
-216.209231 216.209231 zlo zhi

Masses

   1	14.01	# n
   2	12.01	# c
   3	12.01	# ca
   4	1.008	# hn
   5	16.0	# o
   6	1.008	# ha
   7	12.01	# c3
   8	19.0	# f
   9	16.0	# os

Pair Coeffs

   1	0.17	3.249998523775958	# n
   2	0.086	3.3996695084235347	# c
   3	0.086	3.3996695084235347	# ca
   4	0.0157	1.069078461768407	# hn
   5	0.21	2.959921901149463	# o
   6	0.015	2.59964245953351	# ha
   7	0.1094	3.3996695084235347	# c3
   8	0.061	3.1181455134911875	# f
   9	0.17	3.0000123434657784	# os

Bond Coeffs

   1	427.6	1.3789	# c,n
   2	461.1	1.3984	# ca,ca
   3	356.9	1.3497	# c3,f
   4	345.9	1.4906	# c,ca
   5	345.8	1.086	# ca,ha
   6	384.2	1.4121	# ca,n
   7	637.7	1.2183	# c,o
   8	321.0	1.5156	# c3,ca
   9	300.9	1.5375	# c3,c3
  10	376.6	1.3696	# ca,os
  11	403.2	1.0129	# hn,n

Angle Coeffs

   1	62.86	111.51	# c3,c3,c3
   2	63.74	127.08	# c,n,c
   3	48.18	119.88	# ca,ca,ha
   4	68.72	122.6	# ca,c,o
   5	63.15	112.07	# c3,c3,ca
   6	70.89	107.36	# f,c3,f
   7	67.87	120.19	# ca,ca,n
   8	63.56	112.24	# ca,c3,ca
   9	63.82	123.71	# c,n,ca
  10	67.68	115.25	# ca,c,n
  11	69.58	119.2	# ca,ca,os
  12	48.33	117.55	# c,n,hn
  13	74.22	123.05	# n,c,o
  14	64.28	120.33	# c,ca,ca
  15	66.11	109.24	# c3,c3,f
  16	63.48	119.89	# ca,os,ca
  17	63.53	120.77	# c3,ca,ca
  18	66.62	120.02	# ca,ca,ca
  19	49.75	116.02	# ha,ca,n

Dihedral Coeffs

   1	1	0.0	2	0	# X,c3,ca,X
   2	1	0.9	2	180	# X,ca,os,X
   3	1	2.5	2	180	# X,c,n,X
   4	1	0.45	2	180	# X,ca,n,X
   5	2	2.5	2	180	2.0	1	0	# hn,n,c,o
   6	1	3.625	2	180	# X,ca,ca,X
   7	1	1.0	2	180	# X,c,ca,X
   8	1	0.15555555555555556	3	0	# X,c3,c3,X

Improper Coeffs

   1	10.5	-1	2	# c,X,X,o
   2	1.1	-1	2	# ca,ca,ca,c3
   3	1.1	-1	2	# n,X,X,hn
   4	1.1	-1	2	# ca,X,X,ha

Atoms

   1	1	1	0.48116	-0.632185	20.2117	-41.9358
   2	1	2	0.034009	0.509927	20.4548	-42.7115
   3	1	3	0.028921	0.00236419	20.9526	-44.0129
   4	1	2	0.071556	-1.80877	20.5929	-42.5964
   5	1	3	0.025276	-1.3735	21.0079	-43.9526
   6	1	5	-0.381907	1.6735	20.177	-42.4666
   7	1	5	-0.393799	-2.96474	20.4988	-42.2127
   8	1	3	-0.008998	0.701487	21.2053	-45.1981
   9	1	3	-0.064503	-2.13384	21.2668	-45.0933
  10	1	3	-0.16756	-1.45105	21.509	-46.3019
  11	1	3	-0.085161	-0.0277683	21.5186	-46.3753
  12	1	6	0.158939	1.78189	21.106	-45.1909
  13	1	6	0.163781	-3.22087	21.2234	-45.055
  14	1	6	0.161401	-2.05578	21.6606	-47.1927
  15	1	7	-0.078003	0.687748	21.7503	-47.7396
  16	1	7	0.303704	2.06178	22.5153	-47.5891
  17	1	8	-0.1084	1.96499	23.5647	-46.7428
  18	1	8	-0.101508	2.48139	23.0103	-48.7759
  19	1	8	-0.111714	3.07099	21.7461	-47.124
  20	1	7	0.380371	0.960713	20.3262	-48.3512
  21	1	8	-0.124028	1.62312	19.5142	-47.4984
  22	1	8	-0.119704	1.68353	20.3699	-49.4929
  23	1	8	-0.115877	-0.19359	19.688	-48.6199
  24	1	3	-0.024709	-0.225615	22.6448	-48.6365
  25	1	3	-0.076489	-0.645882	22.2738	-49.9439
  26	1	3	-0.052344	-1.48334	23.139	-50.6591
  27	1	3	-0.054202	-0.6751	23.8941	-48.1203
  28	1	3	-0.149083	-1.50595	24.7558	-48.8632
  29	1	3	-0.063027	-1.89434	24.3479	-50.1418
  30	1	2	0.499526	-2.7443	25.0263	-51.1565
  31	1	1	-0.036881	-2.7969	24.16	-52.2429
  32	1	2	0.443545	-2.0729	22.9949	-52.0155
  33	1	3	0.038197	-3.50092	24.4393	-53.4495
  34	1	3	-0.408621	-3.36023	25.6899	-54.0795
  35	1	3	0.252781	-4.06433	25.9774	-55.2599
  36	1	3	-0.169778	-4.35261	23.477	-54.0264
  37	1	3	-0.113042	-5.0554	23.7595	-55.2114
  38	1	3	0.016958	-4.90282	25.0106	-55.8382
  39	1	6	0.167832	-1.84067	25.7091	-48.4581
  40	1	6	0.134138	-0.389631	24.199	-47.1172
  41	1	6	0.145229	-0.348555	21.346	-50.4214
  42	1	5	-0.462312	-1.96722	22.0199	-52.7389
  43	1	5	-0.483102	-3.27248	26.1182	-51.031
  44	1	6	0.144532	-5.72471	23.0146	-55.6332
  45	1	6	0.226042	-2.72877	26.4611	-53.6476
  46	1	3	0.12103	-6.05845	24.4342	-57.9073
  47	1	3	-0.09864	-5.19998	23.4553	-58.4392
  48	1	3	-0.194398	-5.67936	22.5488	-59.4016
  49	1	3	-0.091961	-7.01429	22.6242	-59.8349
  50	1	3	-0.197799	-7.86818	23.6101	-59.3116
  51	1	3	-0.102777	-7.38692	24.5182	-58.3521
  52	1	6	0.132074	-7.38487	21.924	-60.5801
  53	1	6	0.154044	-8.89888	23.6734	-59.6514
  54	1	6	0.145155	-4.16665	23.4058	-58.108
  55	1	6	0.14558	-8.03874	25.2861	-57.9458
  56	1	9	-0.24014	-5.60967	25.3413	-56.9752
  57	1	6	0.152938	-4.47705	22.5064	-53.5535
  58	1	6	0.151751	-5.01633	21.7925	-59.8139
  59	1	1	0.48116	-3.36377	11.8203	-53.3803
  60	1	2	0.034009	-3.74188	13.0778	-52.8952
  61	1	3	0.028921	-2.61822	13.9811	-53.2269
  62	1	2	0.071556	-2.09525	11.8459	-53.9804
  63	1	3	0.025276	-1.63363	13.2529	-53.8564
  64	1	5	-0.381907	-4.75192	13.3961	-52.287
  65	1	5	-0.393799	-1.48227	10.9354	-54.5169
  66	1	3	-0.008998	-2.49089	15.3519	-53.0002
  67	1	3	-0.064503	-0.447371	13.8603	-54.277
  68	1	3	-0.16756	-0.288997	15.2441	-54.0448
  69	1	3	-0.085161	-1.30079	16.0121	-53.3999
  70	1	6	0.158939	-3.31384	15.8839	-52.5299
  71	1	6	0.163781	0.32296	13.2753	-54.7746
  72	1	6	0.161401	0.628745	15.708	-54.3915
  73	1	7	-0.078003	-1.19141	17.5494	-53.1879
  74	1	7	0.303704	0.291979	18.0842	-53.138
  75	1	8	-0.1084	1.0696	17.337	-52.3226
  76	1	8	-0.101508	0.346098	19.348	-52.6575
  77	1	8	-0.111714	0.898657	18.1077	-54.346
  78	1	7	0.380371	-1.94258	18.207	-54.4087
  79	1	8	-0.124028	-1.51857	17.7026	-55.5903
  80	1	8	-0.119704	-1.77373	19.5449	-54.4835
  81	1	8	-0.115877	-3.2736	17.9686	-54.3616
  82	1	3	-0.024709	-1.82107	17.8859	-51.8033
  83	1	3	-0.076489	-1.42828	17.1195	-50.6745
  84	1	3	-0.052344	-1.96478	17.4264	-49.4192
  85	1	3	-0.054202	-2.74066	18.9559	-51.6043
  86	1	3	-0.149083	-3.2683	19.2496	-50.3307
  87	1	3	-0.063027	-2.8602	18.4614	-49.25
  88	1	2	0.499526	-3.12703	18.6125	-47.7949
  89	1	1	-0.036881	-2.33061	17.6609	-47.1691
  90	1	2	0.443545	-1.62662	16.881	-48.0783
  91	1	3	0.038197	-2.169	17.5737	-45.7602
  92	1	3	-0.408621	-3.28765	17.4494	-44.9182
  93	1	3	0.252781	-3.12599	17.4131	-43.5233
  94	1	3	-0.169778	-0.885321	17.6554	-45.1896
  95	1	3	-0.113042	-0.721277	17.6235	-43.7947
  96	1	3	0.016958	-1.84348	17.5061	-42.9556
  97	1	6	0.167832	-3.94721	20.0868	-50.1824
  98	1	6	0.134138	-3.04544	19.5945	-52.426
  99	1	6	0.145229	-0.69887	16.3162	-50.7602
 100	1	5	-0.462312	-0.823284	15.9942	-47.8451
 101	1	5	-0.483102	-3.8198	19.4764	-47.2822
 102	1	6	0.144532	0.273433	17.7086	-43.3692
 103	1	6	0.226042	-4.29056	17.4059	-45.3324
 104	1	3	0.12103	-0.684813	18.0902	-40.8706
 105	1	3	-0.09864	0.152889	17.2067	-40.1717
 106	1	3	-0.194398	1.14552	17.7004	-39.3162
 107	1	3	-0.091961	1.27435	19.0837	-39.1387
 108	1	3	-0.197799	0.407711	19.962	-39.8068
 109	1	3	-0.102777	-0.592903	19.4939	-40.6933
 110	1	6	0.132074	2.04529	19.4835	-38.4847
 111	1	6	0.154044	0.547312	21.0326	-39.6666
 112	1	6	0.145155	0.0130663	16.1349	-40.2824
 113	1	6	0.14558	-1.5556	19.8527	-40.3465
 114	1	9	-0.24014	-1.72791	17.533	-41.5806
 115	1	6	0.152938	-0.0102793	17.7534	-45.8287
 116	1	6	0.151751	1.79258	17.0126	-38.7779
 117	1	1	0.48116	4.88404	17.8914	-38.4137
 118	1	2	0.034009	4.68399	18.5241	-39.6478
 119	1	3	0.028921	4.40937	17.4299	-40.6138
 120	1	2	0.071556	4.7681	16.5002	-38.5095
 121	1	3	0.025276	4.4576	16.2305	-39.9363
 122	1	5	-0.381907	4.76504	19.7127	-39.9148
 123	1	5	-0.393799	4.94445	15.6574	-37.6433
 124	1	3	-0.008998	4.1914	17.4902	-41.9953
 125	1	3	-0.064503	4.27061	15.0172	-40.6009
 126	1	3	-0.16756	4.05836	15.0532	-41.9944
 127	1	3	-0.085161	4.03092	16.2772	-42.7228
 128	1	6	0.158939	4.18181	18.4699	-42.4616
 129	1	6	0.163781	4.31802	14.0771	-40.0554
 130	1	6	0.161401	3.93366	14.108	-42.5181
 131	1	7	-0.078003	3.91757	16.2203	-44.2809
 132	1	7	0.303704	3.70022	17.6318	-44.9472
 133	1	8	-0.1084	2.61136	18.2484	-44.4425
 134	1	8	-0.101508	3.48063	17.5462	-46.2783
 135	1	8	-0.111714	4.75781	18.4596	-44.791
 136	1	7	0.380371	5.28384	15.6125	-44.7952
 137	1	8	-0.124028	6.3412	16.1651	-44.1566
 138	1	8	-0.119704	5.51205	15.7942	-46.1149
 139	1	8	-0.115877	5.35384	14.2801	-44.5765
 140	1	3	-0.024709	2.68504	15.3599	-44.6885
 141	1	3	-0.076489	2.61183	14.7338	-45.9603
 142	1	3	-0.052344	1.43374	14.0751	-46.3298
 143	1	3	-0.054202	1.54551	15.2791	-43.8377
 144	1	3	-0.149083	0.37155	14.5995	-44.2252
 145	1	3	-0.063027	0.340932	14.0123	-45.4934
 146	1	2	0.499526	-0.75008	13.2909	-46.2062
 147	1	1	-0.036881	-0.221078	12.94	-47.4438
 148	1	2	0.443545	1.08476	13.3905	-47.6008
 149	1	3	0.038197	-0.916556	12.1817	-48.4277
 150	1	3	-0.408621	-2.21957	12.5362	-48.8257
 151	1	3	0.252781	-2.8976	11.7808	-49.7984
 152	1	3	-0.169778	-0.301376	11.0623	-49.0193
 153	1	3	-0.113042	-0.973541	10.3083	-49.9943
 154	1	3	0.016958	-2.27233	10.6625	-50.3849
 155	1	6	0.167832	-0.505197	14.5688	-43.5811
 156	1	6	0.134138	1.54587	15.7781	-42.8731
 157	1	6	0.145229	3.42038	14.7852	-46.6811
 158	1	5	-0.462312	1.83211	13.2234	-48.5508
 159	1	5	-0.483102	-1.85489	13.0325	-45.7561
 160	1	6	0.144532	-0.487869	9.45178	-50.4543
 161	1	6	0.226042	-2.71755	13.3874	-48.3703
 162	1	3	0.12103	-4.11391	10.1672	-51.8994
 163	1	3	-0.09864	-5.26573	9.85264	-51.1609
 164	1	3	-0.194398	-6.5341	10.0349	-51.7302
 165	1	3	-0.091961	-6.63881	10.5096	-53.0447
 166	1	3	-0.197799	-5.47893	10.8058	-53.7798
 167	1	3	-0.102777	-4.187	10.657	-53.2192
 168	1	6	0.132074	-7.61924	10.6544	-53.493
 169	1	6	0.154044	-5.586	11.187	-54.7937
 170	1	6	0.145155	-5.16818	9.46074	-50.1523
 171	1	6	0.14558	-3.59588	10.0154	-53.8621
 172	1	9	-0.24014	-2.87759	9.90246	-51.3617
 173	1	6	0.152938	0.707818	10.7788	-48.7306
 174	1	6	0.151751	-7.42969	9.80279	-51.1591
 175	1	1	0.48116	-2.67027	10.7245	-25.8054
 176	1	2	0.034009	-2.10098	9.86039	-26.7484
 177	1	3	0.028921	-2.69998	10.2478	-28.0467
 178	1	2	0.071556	-3.51383	11.6721	-26.4002
 179	1	3	0.025276	-3.52416	11.3331	-27.8447
 180	1	5	-0.381907	-1.26474	8.9861	-26.5842
 181	1	5	-0.393799	-4.12762	12.5871	-25.873
 182	1	3	-0.008998	-2.55567	9.65179	-29.3024
 183	1	3	-0.064503	-4.22862	11.9119	-28.9017
 184	1	3	-0.16756	-4.08391	11.3388	-30.1822
 185	1	3	-0.085161	-3.26314	10.197	-30.4071
 186	1	6	0.158939	-1.91888	8.77723	-29.3771
 187	1	6	0.163781	-4.87857	12.7668	-28.728
 188	1	6	0.161401	-4.6388	11.7798	-31.0068
 189	1	7	-0.078003	-3.22264	9.56809	-31.832
 190	1	7	0.303704	-2.07685	8.50073	-32.0222
 191	1	8	-0.1084	-0.869382	8.98609	-31.6538
 192	1	8	-0.101508	-1.94573	8.13193	-33.317
 193	1	8	-0.111714	-2.28746	7.36659	-31.3168
 194	1	7	0.380371	-4.62098	8.8654	-32.0461
 195	1	8	-0.124028	-4.9583	8.10045	-30.9824
 196	1	8	-0.119704	-4.65955	8.0535	-33.1265
 197	1	8	-0.115877	-5.62065	9.76319	-32.1994
 198	1	3	-0.024709	-2.92334	10.7014	-32.854
 199	1	3	-0.076489	-1.92684	11.6593	-32.5347
 200	1	3	-0.052344	-1.58543	12.6313	-33.481
 201	1	3	-0.054202	-3.53517	10.7681	-34.1391
 202	1	3	-0.149083	-3.1785	11.7597	-35.0772
 203	1	3	-0.063027	-2.19109	12.6834	-34.7182
 204	1	2	0.499526	-1.55571	13.7793	-35.5011
 205	1	1	-0.036881	-0.579606	14.3123	-34.6682
 206	1	2	0.443545	-0.542076	13.6871	-33.4286
 207	1	3	0.038197	0.329345	15.3299	-35.0621
 208	1	3	-0.408621	-0.137485	16.5599	-35.5575
 209	1	3	0.252781	0.772763	17.5486	-35.9656
 210	1	3	-0.169778	1.7148	15.1012	-34.9835
 211	1	3	-0.113042	2.6272	16.083	-35.4014
 212	1	3	0.016958	2.1578	17.3197	-35.8843
 213	1	6	0.167832	-3.63301	11.7916	-36.0659
 214	1	6	0.134138	-4.27629	10.0379	-34.4439
 215	1	6	0.145229	-1.39798	11.6345	-31.5845
 216	1	5	-0.462312	0.21081	13.9074	-32.4955
 217	1	5	-0.483102	-1.81863	14.0902	-36.6512
 218	1	6	0.144532	3.69196	15.8689	-35.3611
 219	1	6	0.226042	-1.20243	16.7485	-35.6556
 220	1	3	0.12103	4.3729	18.335	-36.1158
 221	1	3	-0.09864	4.8484	18.2862	-34.7932
 222	1	3	-0.194398	6.22504	18.3559	-34.5379
 223	1	3	-0.091961	7.11984	18.4714	-35.6096
 224	1	3	-0.197799	6.63249	18.5495	-36.9244
 225	1	3	-0.102777	5.24472	18.5672	-37.201
 226	1	6	0.132074	8.19161	18.4915	-35.4231
 227	1	6	0.154044	7.34658	18.625	-37.7433
 228	1	6	0.145155	4.14668	18.1785	-33.9704
 229	1	6	0.14558	5.01047	19.5703	-37.5374
 230	1	9	-0.24014	3.01672	18.2934	-36.3535
 231	1	6	0.152938	2.08968	14.1522	-34.6075
 232	1	6	0.151751	6.5968	18.2984	-33.5175
 233	1	1	0.48116	-2.6906	-1.00922	-16.1737
 234	1	2	0.034009	-2.39805	-0.298333	-17.342
 235	1	3	0.028921	-1.73702	-1.27291	-18.2397
 236	1	2	0.071556	-2.28848	-2.35124	-16.2564
 237	1	3	0.025276	-1.67688	-2.49308	-17.6039
 238	1	5	-0.381907	-2.64796	0.865269	-17.614
 239	1	5	-0.393799	-2.41003	-3.23949	-15.426
 240	1	3	-0.008998	-1.21375	-1.08299	-19.5197
 241	1	3	-0.064503	-1.0955	-3.60147	-18.227
 242	1	3	-0.16756	-0.566874	-3.43561	-19.5266
 243	1	3	-0.085161	-0.62015	-2.18032	-20.1972
 244	1	6	0.158939	-1.25666	-0.0888326	-19.9583
 245	1	6	0.163781	-1.04368	-4.55739	-17.7104
 246	1	6	0.161401	-0.0960587	-4.2962	-19.9906
 247	1	7	-0.078003	0.0164052	-1.93705	-21.5956
 248	1	7	0.303704	1.45301	-1.34157	-21.3224
 249	1	8	-0.1084	1.4003	-0.169639	-20.6486
 250	1	8	-0.101508	2.15421	-1.12732	-22.4586
 251	1	8	-0.111714	2.20194	-2.15855	-20.5478
 252	1	7	0.380371	0.165731	-3.23983	-22.479
 253	1	8	-0.124028	1.14358	-4.07606	-22.0644
 254	1	8	-0.119704	0.450709	-2.92827	-23.7639
 255	1	8	-0.115877	-0.968617	-3.97412	-22.5077
 256	1	3	-0.024709	-0.931491	-0.966714	-22.3674
 257	1	3	-0.076489	-0.517471	0.309398	-22.8325
 258	1	3	-0.052344	-1.46718	1.16781	-23.3962
 259	1	3	-0.054202	-2.30086	-1.32445	-22.536
 260	1	3	-0.149083	-3.23394	-0.455553	-23.1392
 261	1	3	-0.063027	-2.7847	0.801634	-23.5543
 262	1	2	0.499526	-3.5375	1.98072	-24.0646
 263	1	1	-0.036881	-2.61361	3.02131	-24.1162
 264	1	2	0.443545	-1.33287	2.5953	-23.7733
 265	1	3	0.038197	-2.94756	4.39418	-24.3134
 266	1	3	-0.408621	-2.07773	5.24325	-25.0228
 267	1	3	0.252781	-2.2949	6.62869	-25.0438
 268	1	3	-0.169778	-4.08497	4.9522	-23.6932
 269	1	3	-0.113042	-4.319	6.33802	-23.7325
 270	1	3	0.016958	-3.40372	7.18121	-24.3781
 271	1	6	0.167832	-4.28435	-0.726315	-23.2288
 272	1	6	0.134138	-2.66514	-2.27339	-22.1529
 273	1	6	0.145229	0.495301	0.681173	-22.7205
 274	1	5	-0.462312	-0.316325	3.25821	-23.6531
 275	1	5	-0.483102	-4.73704	2.01842	-24.2818
 276	1	6	0.144532	-5.17323	6.7647	-23.2142
 277	1	6	0.226042	-1.17911	4.85453	-25.4928
 278	1	3	0.12103	-2.50424	9.35809	-23.8524
 279	1	3	-0.09864	-1.6219	8.9156	-22.8481
 280	1	3	-0.194398	-0.569588	9.73675	-22.4206
 281	1	3	-0.091961	-0.397	10.9977	-23.005
 282	1	3	-0.197799	-1.28845	11.4384	-23.9966
 283	1	3	-0.102777	-2.39544	10.6546	-24.4006
 284	1	6	0.132074	0.433425	11.6295	-22.6972
 285	1	6	0.154044	-1.12873	12.4178	-24.4454
 286	1	6	0.145155	-1.74824	7.93051	-22.4073
 287	1	6	0.14558	-3.29072	11.1786	-24.085
 288	1	9	-0.24014	-3.54489	8.54652	-24.2613
 289	1	6	0.152938	-4.7715	4.3194	-23.1362
 290	1	6	0.151751	0.118555	9.38781	-21.6541
 291	1	1	0.48116	9.2676	-1.43829	-7.78417
 292	1	2	0.034009	7.91651	-1.77348	-7.60746
 293	1	3	0.028921	7.84121	-3.23871	-7.82387
 294	1	2	0.071556	10.0453	-2.55413	-8.11486
 295	1	3	0.025276	9.10028	-3.69906	-8.13961
 296	1	5	-0.381907	6.9706	-1.04623	-7.34712
 297	1	5	-0.393799	11.2446	-2.61174	-8.33684
 298	1	3	-0.008998	6.74348	-4.1006	-7.73017
 299	1	3	-0.064503	9.32907	-5.05137	-8.40082
 300	1	3	-0.16756	8.23013	-5.93457	-8.34245
 301	1	3	-0.085161	6.91833	-5.48058	-8.01842
 302	1	6	0.158939	5.78174	-3.69129	-7.43284
 303	1	6	0.163781	10.3317	-5.40358	-8.63438
 304	1	6	0.161401	8.4276	-6.9847	-8.52928
 305	1	7	-0.078003	5.71479	-6.46234	-7.87767
 306	1	7	0.303704	5.80119	-7.69378	-8.86134
 307	1	8	-0.1084	6.70961	-8.62588	-8.4961
 308	1	8	-0.101508	6.12023	-7.30886	-10.1174
 309	1	8	-0.111714	4.61688	-8.34192	-8.94593
 310	1	7	0.380371	5.7516	-6.98106	-6.38878
 311	1	8	-0.124028	4.87143	-7.98088	-6.15325
 312	1	8	-0.119704	5.48713	-5.98346	-5.5142
 313	1	8	-0.115877	6.96872	-7.46024	-6.04393
 314	1	3	-0.024709	4.39291	-5.71238	-8.24357
 315	1	3	-0.076489	4.33142	-4.97215	-9.45547
 316	1	3	-0.052344	3.14755	-4.29887	-9.79094
 317	1	3	-0.054202	3.2207	-5.76016	-7.432
 318	1	3	-0.149083	2.04153	-5.07491	-7.78733
 319	1	3	-0.063027	2.03681	-4.34386	-8.9779
 320	1	2	0.499526	0.964446	-3.52277	-9.60017
 321	1	1	-0.036881	1.50525	-3.02078	-10.7789
 322	1	2	0.443545	2.81805	-3.44945	-10.9683
 323	1	3	0.038197	0.801136	-2.15308	-11.6689
 324	1	3	-0.408621	-0.555545	-2.37947	-11.978
 325	1	3	0.252781	-1.24885	-1.51322	-12.8394
 326	1	3	-0.169778	1.44631	-1.04011	-12.2425
 327	1	3	-0.113042	0.757805	-0.18067	-13.1155
 328	1	3	0.016958	-0.592385	-0.411302	-13.4171
 329	1	6	0.167832	1.15558	-5.10972	-7.15545
 330	1	6	0.134138	3.19396	-6.32588	-6.50855
 331	1	6	0.145229	5.18834	-4.90863	-10.1226
 332	1	5	-0.462312	3.56999	-3.19506	-11.8936
 333	1	5	-0.483102	-0.148711	-3.33458	-9.13906
 334	1	6	0.144532	1.26909	0.670131	-13.5582
 335	1	6	0.226042	-1.08728	-3.22799	-11.555
 336	1	3	0.12103	-2.57822	0.611929	-14.4549
 337	1	3	-0.09864	-3.12853	1.86973	-14.1656
 338	1	3	-0.194398	-4.48105	2.12878	-14.4251
 339	1	3	-0.091961	-5.279	1.12673	-14.9896
 340	1	3	-0.197799	-4.71726	-0.120951	-15.3047
 341	1	3	-0.102777	-3.35374	-0.408627	-15.0535
 342	1	6	0.132074	-6.32771	1.32387	-15.1991
 343	1	6	0.154044	-5.35107	-0.875118	-15.7673
 344	1	6	0.145155	-2.49795	2.64619	-13.7425
 345	1	6	0.14558	-3.32364	-1.28086	-14.4166
 346	1	9	-0.24014	-1.2184	0.468508	-14.2763
 347	1	6	0.152938	2.49203	-0.839668	-12.0209
 348	1	6	0.151751	-4.90511	3.10073	-14.1866
 349	1	1	0.48116	2.77908	0.321508	8.85281
 350	1	2	0.034009	1.88979	-0.0754827	7.84602
 351	1	3	0.028921	2.28026	0.713758	6.64558
 352	1	2	0.071556	3.7061	1.26455	8.39937
 353	1	3	0.025276	3.34559	1.52062	6.98646
 354	1	5	-0.381907	0.992033	-0.901135	7.89942
 355	1	5	-0.393799	4.63129	1.77755	9.011
 356	1	3	-0.008998	1.76927	0.686634	5.34063
 357	1	3	-0.064503	3.91846	2.40006	6.06848
 358	1	3	-0.16756	3.42273	2.38571	4.75097
 359	1	3	-0.085161	2.38512	1.49754	4.3457
 360	1	6	0.158939	0.950956	0.00718522	5.12521
 361	1	6	0.163781	4.73947	3.05075	6.36538
 362	1	6	0.161401	3.90083	3.03328	4.01985
 363	1	7	-0.078003	2.06476	1.38454	2.82022
 364	1	7	0.303704	1.31319	2.70634	2.40001
 365	1	8	-0.1084	2.1424	3.77437	2.3789
 366	1	8	-0.101508	0.32354	3.00682	3.27107
 367	1	8	-0.111714	0.740389	2.63682	1.17752
 368	1	7	0.380371	1.17814	0.134412	2.45082
 369	1	8	-0.124028	1.6984	-1.01132	2.94827
 370	1	8	-0.119704	-0.089513	0.234038	2.91003
 371	1	8	-0.115877	1.09677	-0.0529781	1.11379
 372	1	3	-0.024709	3.4235	1.18351	2.08316
 373	1	3	-0.076489	3.69197	1.70437	0.786222
 374	1	3	-0.052344	4.95187	1.47052	0.209138
 375	1	3	-0.054202	4.42729	0.39114	2.71118
 376	1	3	-0.149083	5.69085	0.193904	2.13236
 377	1	3	-0.063027	5.92834	0.764638	0.882581
 378	1	2	0.499526	7.10557	0.618162	-0.00193895
 379	1	1	-0.036881	6.73444	1.18729	-1.20817
 380	1	2	0.443545	5.46936	1.76477	-1.16195
 381	1	3	0.038197	7.4832	0.934969	-2.38414
 382	1	3	-0.408621	8.73355	1.54546	-2.58616
 383	1	3	0.252781	9.59155	1.07814	-3.59772
 384	1	3	-0.169778	7.07968	-0.11376	-3.22764
 385	1	3	-0.113042	7.93808	-0.588987	-4.23048
 386	1	3	0.016958	9.19796	0.000310398	-4.41274
 387	1	6	0.167832	6.44912	-0.417106	2.61818
 388	1	6	0.134138	4.23319	-0.083909	3.669
 389	1	6	0.145229	2.94759	2.2524	0.21657
 390	1	5	-0.462312	4.83319	2.24174	-2.08599
 391	1	5	-0.483102	8.12082	-0.00536967	0.260644
 392	1	6	0.144532	7.64499	-1.44431	-4.83052
 393	1	6	0.226042	9.07778	2.32096	-1.90873
 394	1	3	0.12103	10.5392	0.030913	-6.41719
 395	1	3	-0.09864	11.7341	0.765424	-6.35721
 396	1	3	-0.194398	12.2573	1.34786	-7.52029
 397	1	3	-0.091961	11.5939	1.16536	-8.74097
 398	1	3	-0.197799	10.4043	0.419901	-8.79024
 399	1	3	-0.102777	9.8195	-0.123424	-7.62114
 400	1	6	0.132074	12.015	1.57947	-9.65453
 401	1	6	0.154044	9.92822	0.260163	-9.75597
 402	1	6	0.145155	12.263	0.857928	-5.41272
 403	1	6	0.14558	8.87755	0.392353	-7.47799
 404	1	9	-0.24014	10.0848	-0.590828	-5.28109
 405	1	6	0.152938	6.12721	-0.609999	-3.06034
 406	1	6	0.151751	13.1903	1.90481	-7.48312
 407	1	1	0.48116	-3.36281	14.3619	19.2333
 408	1	2	0.034009	-2.83286	13.4576	18.2998
 409	1	3	0.028921	-1.66299	12.8314	18.9702
 410	1	2	0.071556	-2.66312	14.3305	20.4451
 411	1	3	0.025276	-1.58971	13.3272	20.2538
 412	1	5	-0.381907	-3.29028	13.1177	17.2208
 413	1	5	-0.393799	-2.89463	14.9466	21.4743
 414	1	3	-0.008998	-0.737514	11.8925	18.49
 415	1	3	-0.064503	-0.626051	12.8729	21.1519
 416	1	3	-0.16756	0.284683	11.897	20.7042
 417	1	3	-0.085161	0.256289	11.3853	19.3727
 418	1	6	0.158939	-0.797455	11.578	17.4512
 419	1	6	0.163781	-0.588282	13.2652	22.1661
 420	1	6	0.161401	1.03411	11.5725	21.4148
 421	1	7	-0.078003	1.34713	10.3841	18.8665
 422	1	7	0.303704	2.55521	11.2739	18.3797
 423	1	8	-0.1084	2.26074	11.8985	17.2174
 424	1	8	-0.101508	3.70034	10.5786	18.1929
 425	1	8	-0.111714	2.86122	12.2436	19.2708
 426	1	7	0.380371	1.8371	9.39931	20.0003
 427	1	8	-0.124028	2.53969	8.35754	19.4973
 428	1	8	-0.119704	0.790706	8.86386	20.6684
 429	1	8	-0.115877	2.64881	9.97413	20.9166
 430	1	3	-0.024709	0.787887	9.45648	17.7397
 431	1	3	-0.076489	1.60541	8.99703	16.6702
 432	1	3	-0.052344	1.10519	8.03833	15.7815
 433	1	3	-0.054202	-0.520298	8.90558	17.8572
 434	1	3	-0.149083	-1.01867	7.96143	16.9337
 435	1	3	-0.063027	-0.173388	7.54025	15.8993
 436	1	2	0.499526	-0.345088	6.46703	14.8813
 437	1	1	-0.036881	0.882717	6.35732	14.2341
 438	1	2	0.443545	1.80879	7.28455	14.7075
 439	1	3	0.038197	1.18304	5.31465	13.3077
 440	1	3	-0.408621	0.313547	5.03535	12.2353
 441	1	3	0.252781	0.570277	3.95685	11.3731
 442	1	3	-0.169778	2.32482	4.50758	13.4865
 443	1	3	-0.113042	2.58007	3.42131	12.631
 444	1	3	0.016958	1.68372	3.12672	11.5907
 445	1	6	0.167832	-2.01099	7.52968	17.0505
 446	1	6	0.134138	-1.15122	9.18585	18.6972
 447	1	6	0.145229	2.63448	9.3097	16.5432
 448	1	5	-0.462312	3.00402	7.35161	14.4678
 449	1	5	-0.483102	-1.31872	5.73994	14.7727
 450	1	6	0.144532	3.46387	2.80629	12.7769
 451	1	6	0.226042	-0.576137	5.63617	12.0688
 452	1	3	0.12103	2.11189	0.748555	11.1216
 453	1	3	-0.09864	1.70405	0.288216	12.3893
 454	1	3	-0.194398	1.76616	-1.08074	12.6929
 455	1	3	-0.091961	2.15231	-1.98895	11.6981
 456	1	3	-0.197799	2.56018	-1.51372	10.4417
 457	1	3	-0.102777	2.74458	-0.12939	10.2116
 458	1	6	0.132074	2.09834	-3.05908	11.8863
 459	1	6	0.154044	2.79554	-2.23286	9.65867
 460	1	6	0.145155	1.27767	0.977176	13.1126
 461	1	6	0.14558	3.78876	-0.00310579	10.4757
 462	1	9	-0.24014	1.91384	2.06503	10.7439
 463	1	6	0.152938	3.01531	4.71877	14.2989
 464	1	6	0.151751	1.4242	-1.44374	13.6593
 465	1	1	0.48116	-4.31221	12.1049	3.85744
 466	1	2	0.034009	-3.90269	13.4145	3.56348
 467	1	3	0.028921	-2.81996	13.7129	4.53688
 468	1	2	0.071556	-3.58964	11.5509	4.9144
 469	1	3	0.025276	-2.62605	12.5955	5.31853
 470	1	5	-0.381907	-4.3354	14.1816	2.717
 471	1	5	-0.393799	-3.75812	10.4828	5.47632
 472	1	3	-0.008998	-2.07489	14.8827	4.73238
 473	1	3	-0.064503	-1.65477	12.5609	6.31394
 474	1	3	-0.16756	-0.894603	13.7241	6.5322
 475	1	3	-0.085161	-1.10273	14.9086	5.76939
 476	1	6	0.158939	-2.27075	15.7341	4.08917
 477	1	6	0.163781	-1.51165	11.6578	6.89874
 478	1	6	0.161401	-0.136726	13.6982	7.31114
 479	1	7	-0.078003	-0.223766	16.1533	6.07584
 480	1	7	0.303704	1.16042	15.9005	5.35962
 481	1	8	-0.1084	2.0043	16.9517	5.46754
 482	1	8	-0.101508	1.0081	15.6525	4.03877
 483	1	8	-0.111714	1.80178	14.8159	5.85119
 484	1	7	0.380371	-0.828176	17.5156	5.54707
 485	1	8	-0.124028	-0.756158	17.656	4.2046
 486	1	8	-0.119704	-0.182891	18.5786	6.07876
 487	1	8	-0.115877	-2.13217	17.6617	5.8714
 488	1	3	-0.024709	-0.127362	16.2728	7.6294
 489	1	3	-0.076489	-1.32824	16.3447	8.38853
 490	1	3	-0.052344	-1.25665	16.4173	9.78596
 491	1	3	-0.054202	1.11125	16.2672	8.33512
 492	1	3	-0.149083	1.16009	16.2848	9.74262
 493	1	3	-0.063027	-0.046184	16.3613	10.444
 494	1	2	0.499526	-0.310824	16.3234	11.9064
 495	1	1	-0.036881	-1.68836	16.4269	12.0356
 496	1	2	0.443545	-2.33797	16.4904	10.8105
 497	1	3	0.038197	-2.33335	16.4397	13.2968
 498	1	3	-0.408621	-2.66536	15.2302	13.9272
 499	1	3	0.252781	-3.14215	15.233	15.2461
 500	1	3	-0.169778	-2.53344	17.6541	13.9776
 501	1	3	-0.113042	-2.98732	17.6584	15.3074
 502	1	3	0.016958	-3.28389	16.445	15.9456
 503	1	6	0.167832	2.10678	16.2313	10.2752
 504	1	6	0.134138	2.05958	16.2207	7.81326
 505	1	6	0.145229	-2.30614	16.3174	7.9134
 506	1	5	-0.462312	-3.53383	16.6051	10.6
 507	1	5	-0.483102	0.513445	16.0958	12.7776
 508	1	6	0.144532	-3.08892	18.5941	15.8492
 509	1	6	0.226042	-2.50571	14.2814	13.4259
 510	1	3	0.12103	-4.69986	15.7464	17.781
 511	1	3	-0.09864	-5.94895	15.8402	17.1405
 512	1	3	-0.194398	-7.08549	15.2612	17.7231
 513	1	3	-0.091961	-6.96485	14.5828	18.9426
 514	1	3	-0.197799	-5.71499	14.4978	19.5769
 515	1	3	-0.102777	-4.56484	15.1254	19.0415
 516	1	6	0.132074	-7.83774	14.1155	19.3941
 517	1	6	0.154044	-5.64246	13.9573	20.5206
 518	1	6	0.145155	-6.03611	16.3883	16.206
 519	1	6	0.14558	-4.27853	15.9216	19.7205
 520	1	9	-0.24014	-3.63408	16.4552	17.2764
 521	1	6	0.152938	-2.28873	18.5943	13.4911
 522	1	6	0.151751	-8.05434	15.3406	17.235
 523	1	1	0.48116	-12.2732	6.84779	16.7647
 524	1	2	0.034009	-11.7377	8.11033	16.467
 525	1	3	0.028921	-10.2974	8.01458	16.8231
 526	1	2	0.071556	-11.3222	5.98967	17.3278
 527	1	3	0.025276	-10.0483	6.74895	17.3088
 528	1	5	-0.381907	-12.3012	9.09679	16.0149
 529	1	5	-0.393799	-11.4836	4.87074	17.7906
 530	1	3	-0.008998	-9.28513	8.97664	16.7433
 531	1	3	-0.064503	-8.76424	6.35903	17.6964
 532	1	3	-0.16756	-7.72698	7.31215	17.615
 533	1	3	-0.085161	-7.96742	8.63676	17.1498
 534	1	6	0.158939	-9.5326	9.97589	16.3992
 535	1	6	0.163781	-8.58325	5.34892	18.0601
 536	1	6	0.161401	-6.74181	7.0042	17.9483
 537	1	7	-0.078003	-6.87854	9.74884	17.1758
 538	1	7	0.303704	-7.09502	10.5247	18.5329
 539	1	8	-0.1084	-6.12921	11.4388	18.7755
 540	1	8	-0.101508	-7.10731	9.68815	19.5961
 541	1	8	-0.111714	-8.2854	11.1668	18.5745
 542	1	7	0.380371	-5.39476	9.20324	17.1365
 543	1	8	-0.124028	-4.98778	8.64361	18.2985
 544	1	8	-0.119704	-4.51024	10.189	16.8658
 545	1	8	-0.115877	-5.21639	8.26255	16.1827
 546	1	3	-0.024709	-7.06892	10.6326	15.9044
 547	1	3	-0.076489	-7.05206	10.0079	14.6296
 548	1	3	-0.052344	-7.2272	10.7885	13.48
 549	1	3	-0.054202	-7.26184	12.0439	15.9528
 550	1	3	-0.149083	-7.48616	12.8029	14.7863
 551	1	3	-0.063027	-7.46949	12.141	13.5557
 552	1	2	0.499526	-7.6158	12.6661	12.1729
 553	1	1	-0.036881	-7.3688	11.5872	11.3287
 554	1	2	0.443545	-7.15321	10.4128	12.0434
 555	1	3	0.038197	-7.29246	11.6901	9.90686
 556	1	3	-0.408621	-7.6097	10.259	8.84709
 557	1	3	0.252781	-7.41465	10.3937	7.06039
 558	1	3	-0.169778	-6.76468	13.2341	9.16705
 559	1	3	-0.113042	-6.5455	13.3471	7.35896
 560	1	3	0.016958	-6.85107	11.9318	6.33447
 561	1	6	0.167832	-7.65763	13.8754	14.8367
 562	1	6	0.134138	-7.25525	12.5806	16.8925
 563	1	6	0.145229	-6.89784	8.93754	14.5236
 564	1	5	-0.462312	-6.84906	9.31266	11.6163
 565	1	5	-0.483102	-7.87412	13.8198	11.8741
 566	1	6	0.144532	-6.22807	14.2835	6.90466
 567	1	6	0.226042	-7.88995	9.30087	9.28207
 568	1	3	0.12103	-6.48902	11.1661	4.05999
 569	1	3	-0.09864	-7.32907	10.0553	3.87379
 570	1	3	-0.194398	-6.99631	9.08174	2.92145
 571	1	3	-0.091961	-5.81475	9.21816	2.17964
 572	1	3	-0.197799	-4.99951	10.3487	2.35901
 573	1	3	-0.102777	-5.38632	11.4068	3.21549
 574	1	6	0.132074	-5.52296	8.44086	1.47598
 575	1	6	0.154044	-4.07304	10.4217	1.79169
 576	1	6	0.145155	-8.23219	9.94713	4.46662
 577	1	6	0.14558	-5.70943	12.207	2.5598
 578	1	9	-0.24014	-6.80975	12.133	4.97798
 579	1	6	0.152938	-6.53833	14.099	9.78809
 580	1	6	0.151751	-7.63433	8.21209	2.78029
 581	1	1	0.48116	-3.14443	4.94277	7.28171
 582	1	2	0.034009	-3.09205	4.7109	8.66473
 583	1	3	0.028921	-3.3237	3.25347	8.81706
 584	1	2	0.071556	-3.45507	3.78647	6.55751
 585	1	3	0.025276	-3.51888	2.70582	7.56824
 586	1	5	-0.381907	-2.78124	5.47945	9.56342
 587	1	5	-0.393799	-3.55175	3.63967	5.34877
 588	1	3	-0.008998	-3.25547	2.45606	9.96266
 589	1	3	-0.064503	-3.63412	1.32726	7.39281
 590	1	3	-0.16756	-3.54662	0.502428	8.53238
 591	1	3	-0.085161	-3.35897	1.04535	9.83439
 592	1	6	0.158939	-3.08187	2.93203	10.9242
 593	1	6	0.163781	-3.74845	0.90566	6.39567
 594	1	6	0.161401	-3.60329	-0.568131	8.36681
 595	1	7	-0.078003	-3.19228	0.164629	11.107
 596	1	7	0.303704	-3.59164	-1.35252	10.9075
 597	1	8	-0.1084	-2.73188	-2.03704	10.1199
 598	1	8	-0.101508	-3.63586	-2.00972	12.089
 599	1	8	-0.111714	-4.81915	-1.50228	10.3601
 600	1	7	0.380371	-1.66654	0.231487	11.4995
 601	1	8	-0.124028	-1.28424	1.47229	11.8752
 602	1	8	-0.119704	-0.871921	-0.100449	10.4583
 603	1	8	-0.115877	-1.35316	-0.596579	12.5211
 604	1	3	-0.024709	-4.14949	0.749143	12.1839
 605	1	3	-0.076489	-5.50419	0.949141	11.8227
 606	1	3	-0.052344	-6.38224	1.51086	12.7516
 607	1	3	-0.054202	-3.74139	1.12048	13.4992
 608	1	3	-0.149083	-4.63892	1.72103	14.4095
 609	1	3	-0.063027	-5.96337	1.91403	14.0009
 610	1	2	0.499526	-7.10924	2.58992	14.6748
 611	1	1	-0.036881	-8.14777	2.55409	13.7536
 612	1	2	0.443545	-7.81035	1.86965	12.5995
 613	1	3	0.038197	-9.37387	3.24476	13.9093
 614	1	3	-0.408621	-9.65234	4.3532	13.091
 615	1	3	0.252781	-10.8364	5.08268	13.2698
 616	1	3	-0.169778	-10.3067	2.84848	14.8807
 617	1	3	-0.113042	-11.5062	3.56142	15.0419
 618	1	3	0.016958	-11.7669	4.69551	14.247
 619	1	6	0.167832	-4.31113	2.04775	15.3948
 620	1	6	0.134138	-2.71873	0.979463	13.8313
 621	1	6	0.145229	-5.86927	0.704045	10.8282
 622	1	5	-0.462312	-8.5235	1.59395	11.6531
 623	1	5	-0.483102	-7.09852	3.11696	15.7748
 624	1	6	0.144532	-12.2058	3.24925	15.812
 625	1	6	0.226042	-8.95029	4.66457	12.323
 626	1	3	0.12103	-13.7118	5.42211	15.5226
 627	1	3	-0.09864	-14.6693	4.39926	15.6082
 628	1	3	-0.194398	-15.4998	4.31317	16.7346
 629	1	3	-0.091961	-15.3745	5.25975	17.7604
 630	1	3	-0.197799	-14.4268	6.29028	17.6535
 631	1	3	-0.102777	-13.6209	6.43687	16.5004
 632	1	6	0.132074	-16.0077	5.19436	18.6423
 633	1	6	0.154044	-14.3437	7.00933	18.4661
 634	1	6	0.145155	-14.7435	3.66597	14.8083
 635	1	6	0.14558	-13.9473	7.34862	16.0143
 636	1	9	-0.24014	-12.8904	5.47721	14.4198
 637	1	6	0.152938	-10.0986	1.99753	15.5244
 638	1	6	0.151751	-16.2282	3.51201	16.8184
 639	1	1	0.48116	6.34081	14.1868	13.365
 640	1	2	0.034009	7.30874	13.4552	12.6617
 641	1	3	0.028921	7.2457	12.0812	13.2173