pySIMM System Object

2321 atoms
2560 bonds
4397 angles
6870 dihedrals
800 impropers

9 atom types
11 bond types
19 angle types
8 dihedral types
4 improper types

-214.392260 214.392260 xlo xhi
-214.392260 214.392260 ylo yhi
-214.392260 214.392260 zlo zhi

Masses

   1	14.01	# n
   2	12.01	# c
   3	12.01	# ca
   4	1.008	# hn
   5	16.0	# o
   6	1.008	# ha
   7	12.01	# c3
   8	19.0	# f
   9	16.0	# os

Pair Coeffs

   1	0.17	3.249998523775958	# n
   2	0.086	3.3996695084235347	# c
   3	0.086	3.3996695084235347	# ca
   4	0.0157	1.069078461768407	# hn
   5	0.21	2.959921901149463	# o
   6	0.015	2.59964245953351	# ha
   7	0.1094	3.3996695084235347	# c3
   8	0.061	3.1181455134911875	# f
   9	0.17	3.0000123434657784	# os

Bond Coeffs

   1	427.6	1.3789	# c,n
   2	461.1	1.3984	# ca,ca
   3	356.9	1.3497	# c3,f
   4	345.9	1.4906	# c,ca
   5	345.8	1.086	# ca,ha
   6	384.2	1.4121	# ca,n
   7	637.7	1.2183	# c,o
   8	321.0	1.5156	# c3,ca
   9	300.9	1.5375	# c3,c3
  10	376.6	1.3696	# ca,os
  11	403.2	1.0129	# hn,n

Angle Coeffs

   1	62.86	111.51	# c3,c3,c3
   2	63.74	127.08	# c,n,c
   3	48.18	119.88	# ca,ca,ha
   4	68.72	122.6	# ca,c,o
   5	63.15	112.07	# c3,c3,ca
   6	70.89	107.36	# f,c3,f
   7	67.87	120.19	# ca,ca,n
   8	63.56	112.24	# ca,c3,ca
   9	63.82	123.71	# c,n,ca
  10	67.68	115.25	# ca,c,n
  11	69.58	119.2	# ca,ca,os
  12	48.33	117.55	# c,n,hn
  13	74.22	123.05	# n,c,o
  14	64.28	120.33	# c,ca,ca
  15	66.11	109.24	# c3,c3,f
  16	63.48	119.89	# ca,os,ca
  17	63.53	120.77	# c3,ca,ca
  18	66.62	120.02	# ca,ca,ca
  19	49.75	116.02	# ha,ca,n

Dihedral Coeffs

   1	1	0.0	2	0	# X,c3,ca,X
   2	1	0.9	2	180	# X,ca,os,X
   3	1	2.5	2	180	# X,c,n,X
   4	1	0.45	2	180	# X,ca,n,X
   5	2	2.5	2	180	2.0	1	0	# hn,n,c,o
   6	1	3.625	2	180	# X,ca,ca,X
   7	1	1.0	2	180	# X,c,ca,X
   8	1	0.15555555555555556	3	0	# X,c3,c3,X

Improper Coeffs

   1	10.5	-1	2	# c,X,X,o
   2	1.1	-1	2	# ca,ca,ca,c3
   3	1.1	-1	2	# n,X,X,hn
   4	1.1	-1	2	# ca,X,X,ha

Atoms

   1	1	1	0.48116	14.9429	-34.7026	-26.1762
   2	1	2	0.034009	13.9947	-35.6249	-26.6435
   3	1	3	0.028921	14.7429	-36.5485	-27.5289
   4	1	2	0.071556	16.2387	-35.0225	-26.6098
   5	1	3	0.025276	16.0698	-36.1779	-27.5269
   6	1	5	-0.381907	12.7834	-35.6265	-26.4909
   7	1	5	-0.393799	17.2844	-34.4291	-26.3941
   8	1	3	-0.008998	14.2567	-37.5585	-28.3656
   9	1	3	-0.064503	16.9824	-36.7702	-28.402
  10	1	3	-0.16756	16.5129	-37.7858	-29.26
  11	1	3	-0.085161	15.1572	-38.2223	-29.2399
  12	1	6	0.158939	13.1943	-37.7754	-28.3436
  13	1	6	0.163781	18.0114	-36.4183	-28.4506
  14	1	6	0.161401	17.2201	-38.2165	-29.9652
  15	1	7	-0.078003	14.6842	-39.327	-30.2318
  16	1	7	0.303704	13.4405	-40.1425	-29.7048
  17	1	8	-0.1084	13.5982	-40.5183	-28.4157
  18	1	8	-0.101508	13.2569	-41.2786	-30.4158
  19	1	8	-0.111714	12.2762	-39.4589	-29.774
  20	1	7	0.380371	14.2925	-38.5901	-31.5659
  21	1	8	-0.124028	13.4642	-37.5464	-31.3453
  22	1	8	-0.119704	13.6775	-39.3952	-32.4614
  23	1	8	-0.115877	15.3783	-38.0682	-32.1695
  24	1	3	-0.024709	15.8402	-40.3568	-30.4135
  25	1	3	-0.076489	16.2836	-40.8128	-31.6852
  26	1	3	-0.052344	17.3404	-41.7293	-31.7467
  27	1	3	-0.054202	16.4781	-40.8795	-29.253
  28	1	3	-0.149083	17.5329	-41.8094	-29.3375
  29	1	3	-0.063027	17.9448	-42.2177	-30.6093
  30	1	2	0.499526	19.0016	-43.1794	-31.0191
  31	1	1	-0.036881	18.9661	-43.2106	-32.4101
  32	1	2	0.443545	18.0004	-42.3501	-32.9256
  33	1	3	0.038197	19.8116	-44.0379	-33.2067
  34	1	3	-0.408621	20.0304	-45.3821	-32.8499
  35	1	3	0.252781	20.8786	-46.1964	-33.6171
  36	1	3	-0.169778	20.4507	-43.5269	-34.3536
  37	1	3	-0.113042	21.2939	-44.3419	-35.1301
  38	1	3	0.016958	21.5003	-45.6859	-34.7677
  39	1	6	0.167832	18.0154	-42.2021	-28.4444
  40	1	6	0.134138	16.1577	-40.5519	-28.267
  41	1	6	0.145229	15.8393	-40.4843	-32.619
  42	1	5	-0.462312	17.7497	-42.1031	-34.0936
  43	1	5	-0.483102	19.7318	-43.7981	-30.2632
  44	1	6	0.144532	21.7937	-43.9289	-36.0022
  45	1	6	0.226042	19.5721	-45.8027	-31.9593
  46	1	3	0.12103	22.5464	-46.4424	-36.8413
  47	1	3	-0.09864	21.4711	-46.2309	-37.7241
  48	1	3	-0.194398	21.6972	-46.1931	-39.1115
  49	1	3	-0.091961	22.9954	-46.3765	-39.6175
  50	1	3	-0.197799	24.0669	-46.6028	-38.7369
  51	1	3	-0.102777	23.8397	-46.6401	-37.3498
  52	1	6	0.132074	23.1698	-46.3506	-40.6907
  53	1	6	0.154044	25.0701	-46.7524	-39.128
  54	1	6	0.145155	20.466	-46.1034	-37.3328
  55	1	6	0.14558	24.6619	-46.8191	-36.6631
  56	1	9	-0.24014	22.3544	-46.5018	-35.4793
  57	1	6	0.152938	20.2992	-42.491	-34.6454
  58	1	6	0.151751	20.8665	-46.028	-39.793
  59	1	1	0.48116	16.8753	-32.6935	-40.3244
  60	1	2	0.034009	17.4641	-33.3882	-39.2608
  61	1	3	0.028921	16.6772	-34.6356	-39.1215
  62	1	2	0.071556	15.7867	-33.3904	-40.8702
  63	1	3	0.025276	15.6738	-34.6325	-40.0647
  64	1	5	-0.381907	18.3906	-33.049	-38.5413
  65	1	5	-0.393799	15.0671	-33.0765	-41.8059
  66	1	3	-0.008998	16.8446	-35.6964	-38.2286
  67	1	3	-0.064503	14.764	-35.6887	-40.1533
  68	1	3	-0.16756	14.9041	-36.765	-39.2508
  69	1	3	-0.085161	15.9373	-36.7875	-38.2706
  70	1	6	0.158939	17.6737	-35.6629	-37.5268
  71	1	6	0.163781	13.9766	-35.6742	-40.9036
  72	1	6	0.161401	14.2022	-37.5876	-39.3413
  73	1	7	-0.078003	16.1538	-37.9929	-37.3096
  74	1	7	0.303704	14.8328	-38.7983	-36.9936
  75	1	8	-0.1084	13.8019	-37.979	-36.6878
  76	1	8	-0.101508	14.9976	-39.6162	-35.9282
  77	1	8	-0.111714	14.4171	-39.5827	-38.0131
  78	1	7	0.380371	17.184	-38.9432	-38.0299
  79	1	8	-0.124028	16.8008	-39.2413	-39.2926
  80	1	8	-0.119704	17.3546	-40.1223	-37.3903
  81	1	8	-0.115877	18.3998	-38.3605	-38.1427
  82	1	3	-0.024709	16.6611	-37.4388	-35.9444
  83	1	3	-0.076489	15.935	-36.3839	-35.3332
  84	1	3	-0.052344	16.3609	-35.8891	-34.0967
  85	1	3	-0.054202	17.7959	-37.9612	-35.2567
  86	1	3	-0.149083	18.212	-37.4415	-34.0139
  87	1	3	-0.063027	17.4709	-36.3955	-33.4556
  88	1	2	0.499526	17.5859	-35.7308	-32.1297
  89	1	1	-0.036881	16.5005	-34.8664	-32.0516
  90	1	2	0.443545	15.7276	-34.886	-33.2053
  91	1	3	0.038197	16.1705	-34.1121	-30.8941
  92	1	3	-0.408621	17.126	-33.2768	-30.2892
  93	1	3	0.252781	16.8103	-32.5674	-29.1191
  94	1	3	-0.169778	14.8887	-34.2167	-30.3236
  95	1	3	-0.113042	14.5699	-33.5096	-29.1534
  96	1	3	0.016958	15.5342	-32.6869	-28.5432
  97	1	6	0.167832	19.0664	-37.8601	-33.4857
  98	1	6	0.134138	18.3683	-38.7891	-35.6597
  99	1	6	0.145229	15.0435	-35.9648	-35.796
 100	1	5	-0.462312	14.6988	-34.2744	-33.433
 101	1	5	-0.483102	18.4153	-35.9872	-31.272
 102	1	6	0.144532	13.5855	-33.6239	-28.7111
 103	1	6	0.226042	18.1278	-33.1928	-30.7002
 104	1	3	0.12103	14.3262	-32.4486	-26.4384
 105	1	3	-0.09864	13.1208	-31.7321	-26.4315
 106	1	3	-0.194398	12.1368	-32.025	-25.4813
 107	1	3	-0.091961	12.394	-32.9871	-24.4963
 108	1	3	-0.197799	13.6186	-33.6758	-24.4886
 109	1	3	-0.102777	14.5876	-33.4814	-25.5043
 110	1	6	0.132074	11.643	-33.2047	-23.7394
 111	1	6	0.154044	13.7832	-34.4321	-23.7232
 112	1	6	0.145155	12.9619	-30.9407	-27.1585
 113	1	6	0.14558	15.5653	-33.3345	-25.0587
 114	1	9	-0.24014	15.2901	-32.058	-27.3405
 115	1	6	0.152938	14.1381	-34.8575	-30.7814
 116	1	6	0.151751	11.198	-31.4806	-25.4871
 117	1	1	0.48116	8.25746	-32.0582	-24.5839
 118	1	2	0.034009	8.8078	-33.2317	-25.1195
 119	1	3	0.028921	8.86176	-33.0089	-26.5886
 120	1	2	0.071556	7.93715	-31.127	-25.577
 121	1	3	0.025276	8.34975	-31.7567	-26.854
 122	1	5	-0.381907	9.17091	-34.2397	-24.5342
 123	1	5	-0.393799	7.4082	-30.0327	-25.4577
 124	1	3	-0.008998	9.32271	-33.8487	-27.6111
 125	1	3	-0.064503	8.28056	-31.2611	-28.1562
 126	1	3	-0.16756	8.7375	-32.0886	-29.2004
 127	1	3	-0.085161	9.25309	-33.3938	-28.9584
 128	1	6	0.158939	9.71463	-34.822	-27.3328
 129	1	6	0.163781	7.87819	-30.2685	-28.3479
 130	1	6	0.161401	8.68597	-31.7049	-30.2169
 131	1	7	-0.078003	9.68571	-34.2578	-30.1849
 132	1	7	0.303704	10.4541	-35.5744	-29.7949
 133	1	8	-0.1084	11.5373	-35.3028	-29.0391
 134	1	8	-0.101508	10.9268	-36.2265	-30.8799
 135	1	8	-0.111714	9.68574	-36.4572	-29.1181
 136	1	7	0.380371	8.3572	-34.645	-30.949
 137	1	8	-0.124028	7.40532	-35.078	-30.0906
 138	1	8	-0.119704	8.51189	-35.6277	-31.8642
 139	1	8	-0.115877	7.82788	-33.5901	-31.6086
 140	1	3	-0.024709	10.6772	-33.4265	-31.0493
 141	1	3	-0.076489	10.7667	-33.5825	-32.4577
 142	1	3	-0.052344	11.7354	-32.8545	-33.1605
 143	1	3	-0.054202	11.5935	-32.5421	-30.4112
 144	1	3	-0.149083	12.5561	-31.814	-31.1379
 145	1	3	-0.063027	12.6053	-31.997	-32.5218
 146	1	2	0.499526	13.5173	-31.4112	-33.5399
 147	1	1	-0.036881	13.1154	-31.9498	-34.757
 148	1	2	0.443545	12.0574	-32.8406	-34.6124
 149	1	3	0.038197	13.7007	-31.6007	-36.0061
 150	1	3	-0.408621	15.0993	-31.5906	-36.1602
 151	1	3	0.252781	15.6783	-31.1881	-37.3736
 152	1	3	-0.169778	12.8889	-31.2296	-37.0949
 153	1	3	-0.113042	13.4647	-30.8375	-38.315
 154	1	3	0.016958	14.8597	-30.805	-38.4536
 155	1	6	0.167832	13.265	-31.1538	-30.6416
 156	1	6	0.134138	11.58	-32.4291	-29.3308
 157	1	6	0.145229	10.1307	-34.2655	-33.0108
 158	1	5	-0.462312	11.4591	-33.449	-35.4846
 159	1	5	-0.483102	14.3937	-30.5883	-33.3283
 160	1	6	0.144532	12.8335	-30.5528	-39.1528
 161	1	6	0.226042	15.7448	-31.8595	-35.3287
 162	1	3	0.12103	16.7365	-30.3771	-39.9248
 163	1	3	-0.09864	17.4968	-29.3063	-39.4281
 164	1	3	-0.194398	18.8685	-29.232	-39.7068
 165	1	3	-0.091961	19.4671	-30.2274	-40.4907
 166	1	3	-0.197799	18.6939	-31.2871	-40.994
 167	1	3	-0.102777	17.3059	-31.3857	-40.7296
 168	1	6	0.132074	20.5339	-30.1851	-40.6993
 169	1	6	0.154044	19.1877	-32.0605	-41.5794
 170	1	6	0.145155	17.0172	-28.5401	-38.8251
 171	1	6	0.14558	16.7824	-31.3915	-41.6786
 172	1	9	-0.24014	15.3875	-30.4126	-39.664
 173	1	6	0.152938	11.8061	-31.2407	-36.9964
 174	1	6	0.151751	19.4644	-28.4118	-39.3135
 175	1	1	0.48116	10.7845	-19.1505	-20.8591
 176	1	2	0.034009	11.0738	-18.6605	-22.1397
 177	1	3	0.028921	12.3908	-19.2468	-22.4973
 178	1	2	0.071556	11.8241	-19.9381	-20.3473
 179	1	3	0.025276	12.8336	-19.9999	-21.4309
 180	1	5	-0.381907	10.3576	-18.0141	-22.8881
 181	1	5	-0.393799	11.8563	-20.5792	-19.3077
 182	1	3	-0.008998	13.0538	-19.2535	-23.7312
 183	1	3	-0.064503	13.9845	-20.7816	-21.5236
 184	1	3	-0.16756	14.6578	-20.8161	-22.7597
 185	1	3	-0.085161	14.1938	-20.0886	-23.8939
 186	1	6	0.158939	12.6174	-18.6839	-24.5447
 187	1	6	0.163781	14.2999	-21.3994	-20.6854
 188	1	6	0.161401	15.5052	-21.4902	-22.8532
 189	1	7	-0.078003	14.8498	-20.3859	-25.2807
 190	1	7	0.303704	14.0809	-19.7558	-26.5047
 191	1	8	-0.1084	12.7787	-20.1202	-26.5309
 192	1	8	-0.101508	14.5915	-20.1686	-27.687
 193	1	8	-0.111714	14.1224	-18.4046	-26.5061
 194	1	7	0.380371	16.3192	-19.8084	-25.2424
 195	1	8	-0.124028	16.3323	-18.5301	-24.8019
 196	1	8	-0.119704	16.934	-19.8077	-26.4464
 197	1	8	-0.115877	17.1232	-20.5063	-24.4093
 198	1	3	-0.024709	14.7781	-21.9301	-25.4664
 199	1	3	-0.076489	13.6016	-22.599	-25.0418
 200	1	3	-0.052344	13.5454	-23.9908	-25.1007
 201	1	3	-0.054202	15.8318	-22.7132	-26.0203
 202	1	3	-0.149083	15.7441	-24.123	-26.09
 203	1	3	-0.063027	14.5848	-24.74	-25.6009
 204	1	2	0.499526	14.2176	-26.178	-25.4581
 205	1	1	-0.036881	12.9664	-26.1918	-24.8443
 206	1	2	0.443545	12.4888	-24.9071	-24.6138
 207	1	3	0.038197	12.2695	-27.3654	-24.4307
 208	1	3	-0.408621	12.9473	-28.4213	-23.7925
 209	1	3	0.252781	12.2424	-29.543	-23.3248
 210	1	3	-0.169778	10.8743	-27.4593	-24.5986
 211	1	3	-0.113042	10.1642	-28.5714	-24.1204
 212	1	3	0.016958	10.8458	-29.6152	-23.4688
 213	1	6	0.167832	16.5611	-24.7209	-26.4903
 214	1	6	0.134138	16.7388	-22.2449	-26.3876
 215	1	6	0.145229	12.7527	-22.06	-24.6278
 216	1	5	-0.462312	11.4573	-24.5656	-24.0599
 217	1	5	-0.483102	14.9087	-27.1275	-25.7863
 218	1	6	0.144532	9.08704	-28.6097	-24.253
 219	1	6	0.226042	14.0249	-28.3881	-23.6571
 220	1	3	0.12103	8.85031	-30.7734	-22.6769
 221	1	3	-0.09864	8.35422	-29.8317	-21.758
 222	1	3	-0.194398	7.0048	-29.861	-21.3805
 223	1	3	-0.091961	6.15769	-30.8348	-21.925
 224	1	3	-0.197799	6.66664	-31.7835	-22.827
 225	1	3	-0.102777	8.0347	-31.8052	-23.1897
 226	1	6	0.132074	5.10352	-30.8488	-21.6562
 227	1	6	0.154044	5.98484	-32.5194	-23.2503
 228	1	6	0.145155	9.01715	-29.0739	-21.3491
 229	1	6	0.14558	8.4516	-32.7369	-22.8265
 230	1	9	-0.24014	10.1828	-30.7424	-23.0264
 231	1	6	0.152938	10.3255	-26.6548	-25.0828
 232	1	6	0.151751	6.615	-29.1241	-20.6822
 233	1	1	0.48116	7.79315	-1.52257	-18.7082
 234	1	2	0.034009	7.63697	-2.90938	-18.8127
 235	1	3	0.028921	7.89101	-3.22436	-20.2394
 236	1	2	0.071556	8.20364	-0.942783	-19.9155
 237	1	3	0.025276	8.23416	-2.05967	-20.8911
 238	1	5	-0.381907	7.32616	-3.71216	-17.9468
 239	1	5	-0.393799	8.4482	0.22923	-20.158
 240	1	3	-0.008998	7.74116	-4.43277	-20.926
 241	1	3	-0.064503	8.46661	-2.04174	-22.2672
 242	1	3	-0.16756	8.31167	-3.24736	-22.9821
 243	1	3	-0.085161	7.93794	-4.45984	-22.3316
 244	1	6	0.158939	7.43276	-5.31808	-20.3755
 245	1	6	0.163781	8.71696	-1.11006	-22.7703
 246	1	6	0.161401	8.45453	-3.20192	-24.0561
 247	1	7	-0.078003	7.64501	-5.78423	-23.0995
 248	1	7	0.303704	6.07438	-5.95725	-23.0909
 249	1	8	-0.1084	5.60991	-6.29068	-21.8654
 250	1	8	-0.101508	5.62536	-6.90059	-23.9488
 251	1	8	-0.111714	5.44916	-4.80745	-23.433
 252	1	7	0.380371	8.15487	-5.78334	-24.5912
 253	1	8	-0.124028	7.45934	-4.94205	-25.3899
 254	1	8	-0.119704	8.06486	-7.00984	-25.1548
 255	1	8	-0.115877	9.45962	-5.43569	-24.6727
 256	1	3	-0.024709	8.3988	-6.94508	-22.3905
 257	1	3	-0.076489	7.85043	-8.25023	-22.2849
 258	1	3	-0.052344	8.62375	-9.26654	-21.7124
 259	1	3	-0.054202	9.72286	-6.73006	-21.912
 260	1	3	-0.149083	10.4821	-7.76728	-21.3321
 261	1	3	-0.063027	9.90131	-9.03689	-21.2489
 262	1	2	0.499526	10.4557	-10.3275	-20.7558
 263	1	1	-0.036881	9.45801	-11.271	-20.9734
 264	1	2	0.443545	8.31707	-10.7089	-21.5341
 265	1	3	0.038197	9.59055	-12.6555	-20.6751
 266	1	3	-0.408621	9.25036	-13.6253	-21.6371
 267	1	3	0.252781	9.35369	-14.9928	-21.3374
 268	1	3	-0.169778	10.055	-13.0739	-19.4138
 269	1	3	-0.113042	10.1528	-14.442	-19.1079
 270	1	3	0.016958	9.78214	-15.4023	-20.0608
 271	1	6	0.167832	11.4987	-7.59834	-20.9818
 272	1	6	0.134138	10.1834	-5.75018	-22.0108
 273	1	6	0.145229	6.86316	-8.50277	-22.6574
 274	1	5	-0.462312	7.2758	-11.2619	-21.8454
 275	1	5	-0.483102	11.5689	-10.4985	-20.2879
 276	1	6	0.144532	10.5016	-14.7614	-18.1299
 277	1	6	0.226042	8.88304	-13.3302	-22.6158
 278	1	3	0.12103	9.00198	-17.7138	-20.1693
 279	1	3	-0.09864	7.64098	-17.4297	-20.3978
 280	1	3	-0.194398	6.7641	-18.4482	-20.7974
 281	1	3	-0.091961	7.24591	-19.7543	-20.9474
 282	1	3	-0.197799	8.59401	-20.0368	-20.6782
 283	1	3	-0.102777	9.49367	-19.0326	-20.2469
 284	1	6	0.132074	6.57686	-20.5484	-21.2725
 285	1	6	0.154044	8.94804	-21.0592	-20.8047
 286	1	6	0.145155	7.26213	-16.4207	-20.2644
 287	1	6	0.14558	9.82537	-19.2848	-19.246
 288	1	9	-0.24014	9.86174	-16.734	-19.7191
 289	1	6	0.152938	10.3369	-12.3378	-18.6646
 290	1	6	0.151751	5.71817	-18.2244	-20.9933
 291	1	1	0.48116	-5.41843	-3.85396	-10.8014
 292	1	2	0.034009	-4.89974	-2.61242	-11.1959
 293	1	3	0.028921	-5.5441	-2.31675	-12.4978
 294	1	2	0.071556	-6.29753	-4.38491	-11.7535
 295	1	3	0.025276	-6.37178	-3.36672	-12.8285
 296	1	5	-0.381907	-4.10992	-1.88744	-10.6112
 297	1	5	-0.393799	-6.91685	-5.43711	-11.7237
 298	1	3	-0.008998	-5.44667	-1.17857	-13.3015
 299	1	3	-0.064503	-7.14789	-3.34018	-13.9887
 300	1	3	-0.16756	-7.0731	-2.19689	-14.8108
 301	1	3	-0.085161	-6.22618	-1.09825	-14.4848
 302	1	6	0.158939	-4.79667	-0.365633	-12.9876
 303	1	6	0.163781	-7.80783	-4.17153	-14.2278
 304	1	6	0.161401	-7.70586	-2.18035	-15.6918
 305	1	7	-0.078003	-6.17706	0.215086	-15.318
 306	1	7	0.303704	-6.81868	0.0901418	-16.7526
 307	1	8	-0.1084	-8.16504	-0.0354425	-16.7244
 308	1	8	-0.101508	-6.32875	-0.970909	-17.4331
 309	1	8	-0.111714	-6.55005	1.17533	-17.5143
 310	1	7	0.380371	-6.98377	1.2882	-14.484
 311	1	8	-0.124028	-7.24571	2.42305	-15.1707
 312	1	8	-0.119704	-6.32596	1.65349	-13.36
 313	1	8	-0.115877	-8.18025	0.805004	-14.0776
 314	1	3	-0.024709	-4.68301	0.586651	-15.5443
 315	1	3	-0.076489	-3.76074	-0.433917	-15.9038
 316	1	3	-0.052344	-2.42278	-0.0923997	-16.1466
 317	1	3	-0.054202	-4.20941	1.92756	-15.4653
 318	1	3	-0.149083	-2.86285	2.2501	-15.7184
 319	1	3	-0.063027	-1.9913	1.21295	-16.0587
 320	1	2	0.499526	-0.547176	1.25335	-16.3926
 321	1	1	-0.036881	-0.182373	-0.0603228	-16.6676
 322	1	2	0.443545	-1.25657	-0.936916	-16.534
 323	1	3	0.038197	1.1461	-0.434192	-17.0278
 324	1	3	-0.408621	1.8547	0.330572	-17.9735
 325	1	3	0.252781	3.20748	0.0695484	-18.2349
 326	1	3	-0.169778	1.79541	-1.52117	-16.4079
 327	1	3	-0.113042	3.14577	-1.80476	-16.6914
 328	1	3	0.016958	3.86725	-0.972736	-17.5663
 329	1	6	0.167832	-2.5064	3.27702	-15.6608
 330	1	6	0.134138	-4.87479	2.74663	-15.2187
 331	1	6	0.145229	-4.07297	-1.47114	-16.0046
 332	1	5	-0.462312	-1.2669	-2.1462	-16.6886
 333	1	5	-0.483102	0.143755	2.25818	-16.4247
 334	1	6	0.144532	3.64149	-2.64636	-16.2139
 335	1	6	0.226042	1.38321	1.17354	-18.4707
 336	1	3	0.12103	6.25303	-1.00125	-16.951
 337	1	3	-0.09864	6.05585	-0.953289	-15.5568
 338	1	3	-0.194398	7.15026	-0.806602	-14.6939
 339	1	3	-0.091961	8.44309	-0.702577	-15.2214
 340	1	3	-0.197799	8.63262	-0.729312	-16.6111
 341	1	3	-0.102777	7.53686	-0.791308	-17.5035
 342	1	6	0.132074	9.29806	-0.608778	-14.5564
 343	1	6	0.154044	9.6459	-0.658728	-17.0036
 344	1	6	0.145155	5.06355	-1.04762	-15.1323
 345	1	6	0.14558	7.47488	0.191601	-17.9568
 346	1	9	-0.24014	5.20135	-1.1884	-17.8326
 347	1	6	0.152938	1.25776	-2.14023	-15.6935
 348	1	6	0.151751	6.99371	-0.792391	-13.6188
 349	1	1	0.48116	-5.9401	9.90413	2.54907
 350	1	2	0.034009	-5.10523	8.77903	2.55952
 351	1	3	0.028921	-5.78051	7.77561	1.69233
 352	1	2	0.071556	-7.03325	9.7363	1.6866
 353	1	3	0.025276	-6.91255	8.35172	1.15949
 354	1	5	-0.381907	-4.03916	8.62384	3.13518
 355	1	5	-0.393799	-7.92634	10.5296	1.4279
 356	1	3	-0.008998	-5.46072	6.43117	1.46026
 357	1	3	-0.064503	-7.75856	7.62952	0.314112
 358	1	3	-0.16756	-7.45045	6.27449	0.0627974
 359	1	3	-0.085161	-6.32313	5.63357	0.652891
 360	1	6	0.158939	-4.57922	6.03796	1.95348
 361	1	6	0.163781	-8.64719	8.09791	-0.103727
 362	1	6	0.161401	-8.12525	5.70583	-0.572482
 363	1	7	-0.078003	-6.15127	4.08257	0.48193
 364	1	7	0.303704	-7.37772	3.41832	1.23151
 365	1	8	-0.1084	-8.51613	3.51171	0.508208
 366	1	8	-0.101508	-7.62089	4.01788	2.41994
 367	1	8	-0.111714	-7.21459	2.10602	1.51131
 368	1	7	0.380371	-4.81298	3.54165	1.1152
 369	1	8	-0.124028	-3.7344	4.18452	0.614382
 370	1	8	-0.119704	-4.80011	3.67069	2.4584
 371	1	8	-0.115877	-4.59855	2.23023	0.867702
 372	1	3	-0.024709	-6.11128	3.6852	-1.02524
 373	1	3	-0.076489	-6.36155	2.34644	-1.43277
 374	1	3	-0.052344	-6.21618	1.99933	-2.78056
 375	1	3	-0.054202	-5.70939	4.61967	-2.02244
 376	1	3	-0.149083	-5.60681	4.25702	-3.3839
 377	1	3	-0.063027	-5.87099	2.92763	-3.73703
 378	1	2	0.499526	-5.80947	2.23159	-5.05516
 379	1	1	-0.036881	-6.11056	0.896854	-4.79429
 380	1	2	0.443545	-6.34226	0.673802	-3.44118
 381	1	3	0.038197	-6.22937	-0.120794	-5.78876
 382	1	3	-0.408621	-6.9828	0.111647	-6.9541
 383	1	3	0.252781	-7.18722	-0.917553	-7.88764
 384	1	3	-0.169778	-5.66249	-1.39693	-5.59229
 385	1	3	-0.113042	-5.86583	-2.43127	-6.52529
 386	1	3	0.016958	-6.64169	-2.19503	-7.67578
 387	1	6	0.167832	-5.29681	4.97811	-4.13764
 388	1	6	0.134138	-5.45147	5.6382	-1.74695
 389	1	6	0.145229	-6.62117	1.5617	-0.72948
 390	1	5	-0.462312	-6.53722	-0.388602	-2.87757
 391	1	5	-0.483102	-5.56122	2.7557	-6.12883
 392	1	6	0.144532	-5.44838	-3.41534	-6.33268
 393	1	6	0.226042	-7.42682	1.08484	-7.14088
 394	1	3	0.12103	-6.27166	-4.39262	-8.68246
 395	1	3	-0.09864	-6.78354	-5.51172	-8.00746
 396	1	3	-0.194398	-6.16806	-6.76328	-8.15572
 397	1	3	-0.091961	-5.04618	-6.8874	-8.9863
 398	1	3	-0.197799	-4.55077	-5.76486	-9.66966
 399	1	3	-0.102777	-5.15961	-4.49307	-9.54438
 400	1	6	0.132074	-4.57311	-7.85805	-9.1181
 401	1	6	0.154044	-3.69489	-5.89045	-10.3302
 402	1	6	0.145155	-7.66888	-5.405	-7.38717
 403	1	6	0.14558	-4.40755	-3.78921	-9.2093
 404	1	9	-0.24014	-6.93864	-3.19247	-8.58225
 405	1	6	0.152938	-5.08655	-1.6011	-4.69252
 406	1	6	0.151751	-6.56979	-7.63576	-7.64659
 407	1	1	0.48116	-2.70517	2.08569	18.0511
 408	1	2	0.034009	-3.10064	2.82835	16.9247
 409	1	3	0.028921	-3.76877	4.03902	17.4592
 410	1	2	0.071556	-3.11643	2.69203	19.2453
 411	1	3	0.025276	-3.7701	3.95834	18.8345
 412	1	5	-0.381907	-2.84633	2.64065	15.7468
 413	1	5	-0.393799	-2.86966	2.35271	20.3939
 414	1	3	-0.008998	-4.25221	5.16646	16.7809
 415	1	3	-0.064503	-4.25191	5.00629	19.6166
 416	1	3	-0.16756	-4.71581	6.16145	18.9579
 417	1	3	-0.085161	-4.71391	6.27756	17.5368
 418	1	6	0.158939	-4.24215	5.16552	15.6943
 419	1	6	0.163781	-4.24747	4.9331	20.7017
 420	1	6	0.161401	-5.09653	6.96375	19.5806
 421	1	7	-0.078003	-5.27612	7.55911	16.8472
 422	1	7	0.303704	-6.8451	7.46854	16.9664
 423	1	8	-0.1084	-7.31325	6.41773	16.2582
 424	1	8	-0.101508	-7.46895	8.58721	16.5313
 425	1	8	-0.111714	-7.27791	7.27739	18.2327
 426	1	7	0.380371	-4.76937	8.8772	17.5615
 427	1	8	-0.124028	-4.93433	9.96465	16.7736
 428	1	8	-0.119704	-3.45117	8.80888	17.8574
 429	1	8	-0.115877	-5.40273	9.16303	18.7205
 430	1	3	-0.024709	-4.79301	7.66455	15.3589
 431	1	3	-0.076489	-5.68693	7.86097	14.2678
 432	1	3	-0.052344	-5.17582	8.08345	12.9842
 433	1	3	-0.054202	-3.39655	7.67354	15.0735
 434	1	3	-0.149083	-2.90085	7.90424	13.7713
 435	1	3	-0.063027	-3.82328	8.12469	12.7409
 436	1	2	0.499526	-3.62377	8.45292	11.3003
 437	1	1	-0.036881	-4.89976	8.58915	10.7556
 438	1	2	0.443545	-5.89158	8.37321	11.7122
 439	1	3	0.038197	-5.15564	8.9459	9.39323
 440	1	3	-0.408621	-4.38879	8.39491	8.34666
 441	1	3	0.252781	-4.63902	8.73974	7.00753
 442	1	3	-0.169778	-6.17603	9.86296	9.06656
 443	1	3	-0.113042	-6.44065	10.2028	7.72778
 444	1	3	0.016958	-5.67259	9.64111	6.69605
 445	1	6	0.167832	-1.83187	7.9306	13.5692
 446	1	6	0.134138	-2.67975	7.52256	15.8767
 447	1	6	0.145229	-6.76416	7.88152	14.3776
 448	1	5	-0.462312	-7.10238	8.47626	11.5946
 449	1	5	-0.483102	-2.54496	8.62487	10.7558
 450	1	6	0.144532	-7.24066	10.8975	7.48992
 451	1	6	0.226042	-3.58743	7.69419	8.55567
 452	1	3	0.12103	-5.29483	10.912	4.6429
 453	1	3	-0.09864	-4.34457	11.7598	5.24712
 454	1	3	-0.194398	-3.7396	12.7841	4.50595
 455	1	3	-0.091961	-4.0689	12.9495	3.15506
 456	1	3	-0.197799	-5.00954	12.0994	2.5553
 457	1	3	-0.102777	-5.68875	11.1042	3.29746
 458	1	6	0.132074	-3.5864	13.7279	2.56778
 459	1	6	0.154044	-5.23958	12.2395	1.49965
 460	1	6	0.145155	-4.07353	11.6307	6.29117
 461	1	6	0.14558	-6.72833	11.4055	3.35431
 462	1	9	-0.24014	-5.96211	9.95451	5.38499
 463	1	6	0.152938	-6.77932	10.3079	9.85329
 464	1	6	0.151751	-3.00787	13.437	4.97533
 465	1	1	0.48116	3.81967	-0.652428	5.09865
 466	1	2	0.034009	3.36467	-1.97358	5.0859
 467	1	3	0.028921	1.93217	-1.89293	5.4501
 468	1	2	0.071556	2.82123	0.25296	5.46507
 469	1	3	0.025276	1.60138	-0.572193	5.66565
 470	1	5	-0.381907	3.97437	-2.99217	4.80022
 471	1	5	-0.393799	2.91109	1.46221	5.59379
 472	1	3	-0.008998	0.989183	-2.91891	5.53192
 473	1	3	-0.064503	0.285772	-0.200855	5.95465
 474	1	3	-0.16756	-0.68963	-1.21897	6.0062
 475	1	3	-0.085161	-0.3606	-2.59356	5.82572
 476	1	6	0.158939	1.32804	-3.92965	5.3395
 477	1	6	0.163781	0.0226364	0.843287	6.10787
 478	1	6	0.161401	-1.72036	-0.928642	6.1882
 479	1	7	-0.078003	-1.48871	-3.67142	5.86978
 480	1	7	0.303704	-2.19892	-3.59284	4.46562
 481	1	8	-0.1084	-3.05155	-4.61309	4.22138
 482	1	8	-0.101508	-1.30425	-3.60471	3.45093
 483	1	8	-0.111714	-2.8939	-2.44494	4.33847
 484	1	7	0.380371	-0.946241	-5.13333	6.10213
 485	1	8	-0.124028	-0.27748	-5.63759	5.04043
 486	1	8	-0.119704	-1.94375	-6.00891	6.36269
 487	1	8	-0.115877	-0.115252	-5.18217	7.16797
 488	1	3	-0.024709	-2.44335	-3.37932	7.06944
 489	1	3	-0.076489	-1.91626	-2.82467	8.2648
 490	1	3	-0.052344	-2.76501	-2.623	9.35842
 491	1	3	-0.054202	-3.8181	-3.75691	7.06249
 492	1	3	-0.149083	-4.65095	-3.56825	8.18678
 493	1	3	-0.063027	-4.09385	-2.98775	9.33044
 494	1	2	0.499526	-4.68135	-2.71395	10.6742
 495	1	1	-0.036881	-3.63618	-2.21202	11.4346
 496	1	2	0.443545	-2.4587	-2.09629	10.7099
 497	1	3	0.038197	-3.7085	-1.89212	12.8132
 498	1	3	-0.408621	-4.41369	-0.760341	13.2564
 499	1	3	0.252781	-4.26538	-0.310528	14.5778
 500	1	3	-0.169778	-2.96326	-2.64949	13.7343
 501	1	3	-0.113042	-2.85574	-2.23512	15.0714
 502	1	3	0.016958	-3.46139	-1.03348	15.4743
 503	1	6	0.167832	-5.69447	-3.88091	8.17734
 504	1	6	0.134138	-4.25796	-4.23694	6.19685
 505	1	6	0.145229	-0.862877	-2.56902	8.36242
 506	1	5	-0.462312	-1.38126	-1.66944	11.0866
 507	1	5	-0.483102	-5.83317	-2.91175	11.0183
 508	1	6	0.144532	-2.22336	-2.78186	15.7657
 509	1	6	0.226042	-5.0374	-0.192978	12.5797
 510	1	3	0.12103	-1.91444	0.188827	16.8699
 511	1	3	-0.09864	-0.87138	0.128558	15.9177
 512	1	3	-0.194398	0.357309	0.753478	16.1721
 513	1	3	-0.091961	0.559928	1.39815	17.3972
 514	1	3	-0.197799	-0.487112	1.46903	18.3283
 515	1	3	-0.102777	-1.78326	0.983005	18.0284
 516	1	6	0.132074	1.525	1.84161	17.6271
 517	1	6	0.154044	-0.309582	1.97688	19.2759
 518	1	6	0.145155	-1.00082	-0.399144	14.9778
 519	1	6	0.14558	-2.23248	0.475628	18.8762
 520	1	9	-0.24014	-3.11678	-0.469856	16.6784
 521	1	6	0.152938	-2.4158	-3.52666	13.3989
 522	1	6	0.151751	1.15597	0.706773	15.4349
 523	1	1	0.48116	6.97108	10.8982	15.431
 524	1	2	0.034009	6.76029	9.57084	15.8278
 525	1	3	0.028921	5.30142	9.47701	16.0868
 526	1	2	0.071556	5.82554	11.6856	15.5596
 527	1	3	0.025276	4.75503	10.7357	15.9474
 528	1	5	-0.381907	7.55992	8.64794	15.8678
 529	1	5	-0.393799	5.67261	12.8616	15.2679
 530	1	3	-0.008998	4.49872	8.35058	16.3042
 531	1	3	-0.064503	3.3805	10.9445	16.058
 532	1	3	-0.16756	2.55592	9.82607	16.2944
 533	1	3	-0.085161	3.09035	8.50855	16.3878
 534	1	6	0.158939	4.96573	7.37456	16.3762
 535	1	6	0.163781	2.96675	11.9431	15.9352
 536	1	6	0.161401	1.49143	10.0084	16.3907
 537	1	7	-0.078003	2.18894	7.26869	16.6611
 538	1	7	0.303704	2.13882	7.1239	18.2318
 539	1	8	-0.1084	1.25051	6.19446	18.653
 540	1	8	-0.101508	1.78663	8.28153	18.8366
 541	1	8	-0.111714	3.34704	6.80395	18.7471
 542	1	7	0.380371	0.715265	7.42937	16.1144
 543	1	8	-0.124028	-0.0608665	8.25335	16.8544
 544	1	8	-0.119704	0.0642495	6.24345	16.0793
 545	1	8	-0.115877	0.697422	7.91122	14.8515
 546	1	3	-0.024709	2.77476	6.01739	15.9265
 547	1	3	-0.076489	3.07588	6.08439	14.5348
 548	1	3	-0.052344	3.51586	4.92627	13.866
 549	1	3	-0.054202	2.94752	4.76537	16.5844
 550	1	3	-0.149083	3.40608	3.62468	15.9027
 551	1	3	-0.063027	3.6711	3.73489	14.5386
 552	1	2	0.499526	4.09561	2.69222	13.5764
 553	1	1	-0.036881	4.14764	3.31373	12.3345
 554	1	2	0.443545	3.84063	4.67287	12.4272
 555	1	3	0.038197	4.47419	2.6098	11.133
 556	1	3	-0.408621	5.26213	3.44027	9.73202
 557	1	3	0.252781	5.64708	2.5207	8.23044
 558	1	3	-0.169778	4.06281	0.867308	11.0045
 559	1	3	-0.113042	4.43819	-0.0426866	9.46854
 560	1	3	0.016958	5.20582	0.789805	8.10354
 561	1	6	0.167832	3.55067	2.67837	16.4172
 562	1	6	0.134138	2.74499	4.64641	17.6407
 563	1	6	0.145229	2.94526	7.0072	13.9748
 564	1	5	-0.462312	3.80174	5.49915	11.5311
 565	1	5	-0.483102	4.31456	1.52545	13.8572
 566	1	6	0.144532	4.20114	-1.10119	9.38697
 567	1	6	0.226042	5.48338	4.50526	9.77456
 568	1	3	0.12103	5.87461	0.376326	5.7791
 569	1	3	-0.09864	7.03364	1.11154	5.47719
 570	1	3	-0.194398	7.34776	1.3965	4.13691
 571	1	3	-0.091961	6.4617	1.00785	3.12189
 572	1	3	-0.197799	5.32876	0.244494	3.44529
 573	1	3	-0.102777	5.15	-0.261619	4.75343
 574	1	6	0.132074	6.6418	1.31124	2.0921
 575	1	6	0.154044	4.63139	-0.0282766	2.65425
 576	1	6	0.145155	7.68	1.46204	6.27647
 577	1	6	0.14558	5.62622	-1.23488	4.71471
 578	1	9	-0.24014	5.61726	-0.0154012	7.06931
 579	1	6	0.152938	3.56691	0.349924	11.8225
 580	1	6	0.151751	8.23185	1.98062	3.89226
 581	1	1	0.48116	-0.82516	6.83102	4.41413
 582	1	2	0.034009	-0.952888	8.15908	4.84492
 583	1	3	0.028921	-0.292721	8.96764	3.79121
 584	1	2	0.071556	-0.20397	6.73756	3.15924
 585	1	3	0.025276	0.169443	8.12317	2.80704
 586	1	5	-0.381907	-1.36241	8.58268	5.91581
 587	1	5	-0.393799	0.082619	5.74572	2.5063
 588	1	3	-0.008998	-0.00248757	10.3322	3.77455
 589	1	3	-0.064503	0.956539	8.59031	1.754
 590	1	3	-0.16756	1.294	9.95741	1.73766
 591	1	3	-0.085161	0.850218	10.845	2.76047
 592	1	6	0.158939	-0.375443	10.9551	4.5833
 593	1	6	0.163781	1.33769	7.90205	1.00222
 594	1	6	0.161401	1.93468	10.2933	0.928508
 595	1	7	-0.078003	1.28897	12.3372	2.83152
 596	1	7	0.303704	2.59912	12.6448	2.01324
 597	1	8	-0.1084	2.40667	12.6169	0.675406
 598	1	8	-0.101508	3.08913	13.8724	2.29886
 599	1	8	-0.111714	3.5921	11.7724	2.30242
 600	1	7	0.380371	0.0930506	13.1738	2.24363
 601	1	8	-0.124028	-0.961715	13.1714	3.08501
 602	1	8	-0.119704	-0.35114	12.664	1.07189
 603	1	8	-0.115877	0.406816	14.4669	2.00408
 604	1	3	-0.024709	1.61368	12.6732	4.31926
 605	1	3	-0.076489	2.31084	11.7149	5.09973
 606	1	3	-0.052344	2.58041	11.9923	6.44335
 607	1	3	-0.054202	1.27143	13.9137	4.93224
 608	1	3	-0.149083	1.58285	14.1839	6.28256
 609	1	3	-0.063027	2.23829	13.1921	7.02095
 610	1	2	0.499526	2.75341	13.196	8.41864
 611	1	1	-0.036881	3.40785	11.9746	8.58947
 612	1	2	0.443545	3.29507	11.1771	7.45294
 613	1	3	0.038197	4.21365	11.6313	9.72268
 614	1	3	-0.408621	4.28072	10.3065	10.2003
 615	1	3	0.252781	5.17712	9.9584	11.2265
 616	1	3	-0.169778	5.02126	12.6053	10.3441
 617	1	3	-0.113042	5.89123	12.2672	11.3945
 618	1	3	0.016958	6.00723	10.9287	11.8138
 619	1	6	0.167832	1.33386	15.1398	6.74029
 620	1	6	0.134138	0.771017	14.6942	4.37069
 621	1	6	0.145229	2.63157	10.7637	4.67926
 622	1	5	-0.462312	3.73614	10.0607	7.25364
 623	1	5	-0.483102	2.67136	14.1329	9.19498
 624	1	6	0.144532	6.48882	13.047	11.8571
 625	1	6	0.226042	3.67488	9.52248	9.75249
 626	1	3	0.12103	7.93251	11.314	13.3016
 627	1	3	-0.09864	8.81999	12.0049	12.4576
 628	1	3	-0.194398	9.73701	12.9129	13.0062
 629	1	3	-0.091961	9.72156	13.1566	14.3869
 630	1	3	-0.197799	8.85195	12.4261	15.2151
 631	1	3	-0.102777	8.11733	11.3316	14.7011
 632	1	6	0.132074	10.3715	13.9175	14.8124
 633	1	6	0.154044	8.83276	12.6452	16.2804
 634	1	6	0.145155	8.753	11.8792	11.3806
 635	1	6	0.14558	8.79769	10.5035	14.8657
 636	1	9	-0.24014	6.92513	10.5273	12.7694
 637	1	6	0.152938	4.99375	13.6384	10.0082
 638	1	6	0.151751	10.4026	13.4751	12.3582
 639	1	1	0.48116	-9.91793	2.12572	15.5819
 640	1	2	0.034009	-10.7019	2.09366	14.4223