pySIMM System Object

2727 atoms
3008 bonds
5167 angles
8074 dihedrals
940 impropers

9 atom types
11 bond types
19 angle types
8 dihedral types
4 improper types

-226.520152 226.520152 xlo xhi
-226.520152 226.520152 ylo yhi
-226.520152 226.520152 zlo zhi

Masses

   1	14.01	# n
   2	12.01	# c
   3	12.01	# ca
   4	1.008	# hn
   5	16.0	# o
   6	1.008	# ha
   7	12.01	# c3
   8	19.0	# f
   9	16.0	# os

Pair Coeffs

   1	0.17	3.249998523775958	# n
   2	0.086	3.3996695084235347	# c
   3	0.086	3.3996695084235347	# ca
   4	0.0157	1.069078461768407	# hn
   5	0.21	2.959921901149463	# o
   6	0.015	2.59964245953351	# ha
   7	0.1094	3.3996695084235347	# c3
   8	0.061	3.1181455134911875	# f
   9	0.17	3.0000123434657784	# os

Bond Coeffs

   1	427.6	1.3789	# c,n
   2	461.1	1.3984	# ca,ca
   3	356.9	1.3497	# c3,f
   4	345.9	1.4906	# c,ca
   5	345.8	1.086	# ca,ha
   6	384.2	1.4121	# ca,n
   7	637.7	1.2183	# c,o
   8	321.0	1.5156	# c3,ca
   9	300.9	1.5375	# c3,c3
  10	376.6	1.3696	# ca,os
  11	403.2	1.0129	# hn,n

Angle Coeffs

   1	62.86	111.51	# c3,c3,c3
   2	63.74	127.08	# c,n,c
   3	48.18	119.88	# ca,ca,ha
   4	68.72	122.6	# ca,c,o
   5	63.15	112.07	# c3,c3,ca
   6	70.89	107.36	# f,c3,f
   7	67.87	120.19	# ca,ca,n
   8	63.56	112.24	# ca,c3,ca
   9	63.82	123.71	# c,n,ca
  10	67.68	115.25	# ca,c,n
  11	69.58	119.2	# ca,ca,os
  12	48.33	117.55	# c,n,hn
  13	74.22	123.05	# n,c,o
  14	64.28	120.33	# c,ca,ca
  15	66.11	109.24	# c3,c3,f
  16	63.48	119.89	# ca,os,ca
  17	63.53	120.77	# c3,ca,ca
  18	66.62	120.02	# ca,ca,ca
  19	49.75	116.02	# ha,ca,n

Dihedral Coeffs

   1	1	0.0	2	0	# X,c3,ca,X
   2	1	0.9	2	180	# X,ca,os,X
   3	1	2.5	2	180	# X,c,n,X
   4	1	0.45	2	180	# X,ca,n,X
   5	2	2.5	2	180	2.0	1	0	# hn,n,c,o
   6	1	3.625	2	180	# X,ca,ca,X
   7	1	1.0	2	180	# X,c,ca,X
   8	1	0.15555555555555556	3	0	# X,c3,c3,X

Improper Coeffs

   1	10.5	-1	2	# c,X,X,o
   2	1.1	-1	2	# ca,ca,ca,c3
   3	1.1	-1	2	# n,X,X,hn
   4	1.1	-1	2	# ca,X,X,ha

Atoms

   1	1	1	0.48116	-27.5492	-29.9148	16.0092
   2	1	2	0.034009	-28.7669	-29.9383	15.3165
   3	1	3	0.028921	-29.3352	-31.2834	15.5674
   4	1	2	0.071556	-27.3237	-31.1007	16.7229
   5	1	3	0.025276	-28.4678	-31.9811	16.3796
   6	1	5	-0.381907	-29.2178	-29.114	14.5364
   7	1	5	-0.393799	-26.356	-31.4137	17.3997
   8	1	3	-0.008998	-30.4727	-31.8786	15.0143
   9	1	3	-0.064503	-28.6681	-33.3351	16.6497
  10	1	3	-0.16756	-29.7997	-33.9609	16.0885
  11	1	3	-0.085161	-30.7362	-33.2462	15.2866
  12	1	6	0.158939	-31.0924	-31.2862	14.3499
  13	1	6	0.163781	-27.9364	-33.8977	17.2269
  14	1	6	0.161401	-29.9146	-35.0282	16.2612
  15	1	7	-0.078003	-31.9347	-33.9876	14.6251
  16	1	7	0.303704	-33.2225	-33.0815	14.4926
  17	1	8	-0.1084	-33.4683	-32.3837	15.6236
  18	1	8	-0.101508	-34.3241	-33.8273	14.2484
  19	1	8	-0.111714	-33.1559	-32.1723	13.4947
  20	1	7	0.380371	-31.4571	-34.407	13.1851
  21	1	8	-0.124028	-30.9797	-33.364	12.4732
  22	1	8	-0.119704	-32.4376	-34.9723	12.4457
  23	1	8	-0.115877	-30.4344	-35.2798	13.2494
  24	1	3	-0.024709	-32.3282	-35.2029	15.5225
  25	1	3	-0.076489	-32.3659	-36.5425	15.0477
  26	1	3	-0.052344	-32.7057	-37.5685	15.9359
  27	1	3	-0.054202	-32.6498	-34.9709	16.8909
  28	1	3	-0.149083	-33.0135	-36.0175	17.7622
  29	1	3	-0.063027	-33.0354	-37.3176	17.2496
  30	1	2	0.499526	-33.3729	-38.6125	17.9003
  31	1	1	-0.036881	-33.2046	-39.5807	16.9167
  32	1	2	0.443545	-32.7925	-39.0327	15.7078
  33	1	3	0.038197	-33.4395	-40.9702	17.1149
  34	1	3	-0.408621	-34.6283	-41.4108	17.7261
  35	1	3	0.252781	-34.8738	-42.7826	17.9006
  36	1	3	-0.169778	-32.4934	-41.9232	16.6909
  37	1	3	-0.113042	-32.7368	-43.2966	16.8609
  38	1	3	0.016958	-33.9389	-43.7282	17.4493
  39	1	6	0.167832	-33.2636	-35.8261	18.8042
  40	1	6	0.134138	-32.6053	-33.9629	17.2938
  41	1	6	0.145229	-32.1418	-36.8171	14.0224
  42	1	5	-0.462312	-32.5001	-39.6123	14.6759
  43	1	5	-0.483102	-33.7273	-38.762	19.0575
  44	1	6	0.144532	-32.0013	-44.0255	16.5308
  45	1	6	0.226042	-35.3655	-40.6976	18.084
  46	1	3	0.12103	-33.9617	-46.0201	16.6367
  47	1	3	-0.09864	-34.0642	-45.7162	15.2654
  48	1	3	-0.194398	-33.8081	-46.7081	14.3029
  49	1	3	-0.091961	-33.4603	-48.0074	14.7084
  50	1	3	-0.197799	-33.3748	-48.3165	16.0764
  51	1	3	-0.102777	-33.6295	-47.3232	17.0388
  52	1	6	0.132074	-33.2637	-48.7751	13.9635
  53	1	6	0.154044	-33.1134	-49.3238	16.3906
  54	1	6	0.145155	-34.3441	-44.7157	14.949
  55	1	6	0.14558	-33.5665	-47.5555	18.0978
  56	1	9	-0.24014	-34.2076	-45.0703	17.6043
  57	1	6	0.152938	-31.5687	-41.6013	16.2193
  58	1	6	0.151751	-33.8832	-46.4696	13.245
  59	1	1	0.48116	-25.1282	-41.0757	7.50856
  60	1	2	0.034009	-25.4918	-40.7722	8.82557
  61	1	3	0.028921	-26.9587	-40.5747	8.79178
  62	1	2	0.071556	-26.2333	-41.0852	6.64399
  63	1	3	0.025276	-27.3987	-40.7404	7.49755
  64	1	5	-0.381907	-24.7783	-40.6299	9.80635
  65	1	5	-0.393799	-26.2677	-41.3276	5.44704
  66	1	3	-0.008998	-27.8373	-40.2838	9.83674
  67	1	3	-0.064503	-28.7489	-40.5911	7.17113
  68	1	3	-0.16756	-29.6533	-40.2756	8.20809
  69	1	3	-0.085161	-29.218	-40.1143	9.55494
  70	1	6	0.158939	-27.4413	-40.2057	10.8458
  71	1	6	0.163781	-29.0841	-40.724	6.14492
  72	1	6	0.161401	-30.702	-40.1832	7.94558
  73	1	7	-0.078003	-30.2048	-39.8602	10.7323
  74	1	7	0.303704	-31.5231	-39.1064	10.3066
  75	1	8	-0.1084	-31.2567	-38.0305	9.53272
  76	1	8	-0.101508	-32.1973	-38.6427	11.3842
  77	1	8	-0.111714	-32.3924	-39.8809	9.61933
  78	1	7	0.380371	-30.5733	-41.2874	11.2924
  79	1	8	-0.124028	-30.966	-42.1298	10.3091
  80	1	8	-0.119704	-31.5768	-41.2665	12.1968
  81	1	8	-0.115877	-29.5073	-41.8777	11.8807
  82	1	3	-0.024709	-29.4959	-38.9412	11.7724
  83	1	3	-0.076489	-28.8314	-37.7746	11.3101
  84	1	3	-0.052344	-28.1821	-36.9466	12.2327
  85	1	3	-0.054202	-29.5099	-39.1965	13.1743
  86	1	3	-0.149083	-28.8544	-38.3464	14.0877
  87	1	3	-0.063027	-28.1857	-37.2268	13.5828
  88	1	2	0.499526	-27.5053	-36.1104	14.2916
  89	1	1	-0.036881	-27.1616	-35.1948	13.3037
  90	1	2	0.443545	-27.5069	-35.6375	12.0324
  91	1	3	0.038197	-26.6054	-33.9138	13.5687
  92	1	3	-0.408621	-25.4443	-33.7844	14.3511
  93	1	3	0.252781	-24.9157	-32.5136	14.6338
  94	1	3	-0.169778	-27.2301	-32.755	13.0706
  95	1	3	-0.113042	-26.7094	-31.4827	13.3591
  96	1	3	0.016958	-25.5517	-31.3582	14.1465
  97	1	6	0.167832	-28.8858	-38.5393	15.158
  98	1	6	0.134138	-30.0408	-40.0479	13.585
  99	1	6	0.145229	-28.8243	-37.506	10.2553
 100	1	5	-0.462312	-27.3671	-35.0552	10.9705
 101	1	5	-0.483102	-27.3673	-36.0115	15.5
 102	1	6	0.144532	-27.2167	-30.5966	12.9899
 103	1	6	0.226042	-24.9548	-34.6613	14.7649
 104	1	3	0.12103	-25.8072	-28.9856	14.7023
 105	1	3	-0.09864	-25.6143	-27.9125	13.8176
 106	1	3	-0.194398	-26.2419	-26.6818	14.0504
 107	1	3	-0.091961	-27.0311	-26.5183	15.1961
 108	1	3	-0.197799	-27.1839	-27.5789	16.1013
 109	1	3	-0.102777	-26.6009	-28.8479	15.8681
 110	1	6	0.132074	-27.528	-25.5715	15.3906
 111	1	6	0.154044	-27.8151	-27.4274	16.9754
 112	1	6	0.145155	-24.9594	-28.0364	12.9598
 113	1	6	0.14558	-26.0028	-29.1281	16.7277
 114	1	9	-0.24014	-25.0506	-30.1208	14.4937
 115	1	6	0.152938	-28.1289	-32.8387	12.4635
 116	1	6	0.151751	-26.0941	-25.8544	13.3612
 117	1	1	0.48116	-28.6788	-24.0864	12.6672
 118	1	2	0.034009	-29.3943	-25.275	12.8633
 119	1	3	0.028921	-28.9681	-26.1787	11.7645
 120	1	2	0.071556	-27.8437	-24.1525	11.5457
 121	1	3	0.025276	-28.0484	-25.5118	10.9847
 122	1	5	-0.381907	-30.245	-25.5195	13.7045
 123	1	5	-0.393799	-27.1424	-23.2774	11.0615
 124	1	3	-0.008998	-29.4114	-27.4669	11.4448
 125	1	3	-0.064503	-27.5021	-26.1052	9.84555
 126	1	3	-0.16756	-27.94	-27.4005	9.50009
 127	1	3	-0.085161	-28.9119	-28.101	10.2716
 128	1	6	0.158939	-30.1468	-27.9193	12.1013
 129	1	6	0.163781	-26.7827	-25.5643	9.2343
 130	1	6	0.161401	-27.5258	-27.8575	8.60459
 131	1	7	-0.078003	-29.434	-29.4823	9.75257
 132	1	7	0.303704	-30.4046	-30.1997	10.7666
 133	1	8	-0.1084	-29.8023	-30.3993	11.9586
 134	1	8	-0.101508	-30.7844	-31.4269	10.3471
 135	1	8	-0.111714	-31.5466	-29.5089	10.9822
 136	1	7	0.380371	-30.2164	-29.1831	8.41116
 137	1	8	-0.124028	-31.0059	-28.091	8.53352
 138	1	8	-0.119704	-31.0281	-30.1832	8.00257
 139	1	8	-0.115877	-29.3741	-28.9406	7.38185
 140	1	3	-0.024709	-28.2409	-30.4598	9.53688
 141	1	3	-0.076489	-28.3766	-31.6117	8.71639
 142	1	3	-0.052344	-27.3295	-32.5395	8.66281
 143	1	3	-0.054202	-27.0248	-30.2928	10.2597
 144	1	3	-0.149083	-25.9733	-31.2275	10.1733
 145	1	3	-0.063027	-26.1627	-32.3556	9.37116
 146	1	2	0.499526	-25.2839	-33.5316	9.13577
 147	1	1	-0.036881	-25.9898	-34.3636	8.27298
 148	1	2	0.443545	-27.2379	-33.8414	7.94912
 149	1	3	0.038197	-25.4728	-35.5868	7.75815
 150	1	3	-0.408621	-24.8337	-36.5074	8.61028
 151	1	3	0.252781	-24.2495	-37.6735	8.09049
 152	1	3	-0.169778	-25.556	-35.8741	6.38223
 153	1	3	-0.113042	-24.9856	-37.0472	5.8605
 154	1	3	0.016958	-24.3167	-37.9406	6.70927
 155	1	6	0.167832	-25.0581	-31.1076	10.7501
 156	1	6	0.134138	-26.8936	-29.4507	10.9324
 157	1	6	0.145229	-29.2877	-31.8305	8.16908
 158	1	5	-0.462312	-28.0801	-34.3061	7.19845
 159	1	5	-0.483102	-24.1556	-33.6796	9.57785
 160	1	6	0.144532	-25.0488	-37.2605	4.79673
 161	1	6	0.226042	-24.7509	-36.3033	9.67434
 162	1	3	0.12103	-23.1072	-40.0389	6.88004
 163	1	3	-0.09864	-21.786	-39.8173	7.30049
 164	1	3	-0.194398	-21.0992	-40.8142	8.00792
 165	1	3	-0.091961	-21.7428	-42.0265	8.29054
 166	1	3	-0.197799	-23.0605	-42.242	7.85357
 167	1	3	-0.102777	-23.7646	-41.2652	7.1078
 168	1	6	0.132074	-21.2254	-42.7957	8.85982
 169	1	6	0.154044	-23.5487	-43.1802	8.11065
 170	1	6	0.145155	-21.3019	-38.8706	7.07685
 171	1	6	0.14558	-23.992	-41.6953	6.13937
 172	1	9	-0.24014	-23.7487	-39.0656	6.15176
 173	1	6	0.152938	-26.0569	-35.1815	5.71014
 174	1	6	0.151751	-20.0794	-40.6439	8.34467
 175	1	1	0.48116	-13.7614	-16.5706	13.5773
 176	1	2	0.034009	-14.1502	-17.1667	12.3723
 177	1	3	0.028921	-14.4853	-18.5685	12.7188
 178	1	2	0.071556	-13.8652	-17.4522	14.6614
 179	1	3	0.025276	-14.3364	-18.7336	14.079
 180	1	5	-0.381907	-14.2784	-16.6563	11.2708
 181	1	5	-0.393799	-13.6526	-17.2349	15.8449
 182	1	3	-0.008998	-14.8887	-19.6163	11.8864
 183	1	3	-0.064503	-14.618	-19.9555	14.6941
 184	1	3	-0.16756	-15.0453	-21.0221	13.8762
 185	1	3	-0.085161	-15.183	-20.8788	12.4662
 186	1	6	0.158939	-14.9507	-19.4257	10.8204
 187	1	6	0.163781	-14.502	-20.0719	15.7696
 188	1	6	0.161401	-15.2529	-21.9801	14.3478
 189	1	7	-0.078003	-15.5786	-22.1199	11.6166
 190	1	7	0.303704	-16.0911	-21.7605	10.1642
 191	1	8	-0.1084	-17.0246	-20.7823	10.1756
 192	1	8	-0.101508	-16.6729	-22.826	9.56789
 193	1	8	-0.111714	-15.109	-21.3457	9.33306
 194	1	7	0.380371	-14.2749	-23.0007	11.4891
 195	1	8	-0.124028	-13.2217	-22.2779	11.0436
 196	1	8	-0.119704	-14.4207	-24.0407	10.6368
 197	1	8	-0.115877	-13.8901	-23.5131	12.6802
 198	1	3	-0.024709	-16.7626	-22.8364	12.3333
 199	1	3	-0.076489	-17.9084	-22.0716	12.6748
 200	1	3	-0.052344	-19.0275	-22.7162	13.2148
 201	1	3	-0.054202	-16.7883	-24.2372	12.5979
 202	1	3	-0.149083	-17.917	-24.8623	13.1681
 203	1	3	-0.063027	-19.0348	-24.0725	13.4553
 204	1	2	0.499526	-20.3955	-24.4559	13.9213
 205	1	1	-0.036881	-21.1472	-23.2868	13.8853
 206	1	2	0.443545	-20.3838	-22.1859	13.5115
 207	1	3	0.038197	-22.5576	-23.2422	14.0803
 208	1	3	-0.408621	-23.1611	-23.8832	15.1778
 209	1	3	0.252781	-24.558	-23.8688	15.3281
 210	1	3	-0.169778	-23.3761	-22.5937	13.1355
 211	1	3	-0.113042	-24.7723	-22.576	13.283
 212	1	3	0.016958	-25.3691	-23.2039	14.3914
 213	1	6	0.167832	-17.9421	-25.9376	13.3367
 214	1	6	0.134138	-15.95	-24.8745	12.3408
 215	1	6	0.145229	-17.955	-21.0027	12.4811
 216	1	5	-0.462312	-20.7486	-21.0324	13.3631
 217	1	5	-0.483102	-20.7651	-25.5848	14.1968
 218	1	6	0.144532	-25.3824	-22.0879	12.5274
 219	1	6	0.226042	-22.5586	-24.425	15.9014
 220	1	3	0.12103	-27.6432	-22.3797	13.9844
 221	1	3	-0.09864	-27.431	-20.9932	14.0897
 222	1	3	-0.194398	-28.3816	-20.0952	13.5836
 223	1	3	-0.091961	-29.543	-20.5891	12.9756
 224	1	3	-0.197799	-29.7575	-21.9744	12.8968
 225	1	3	-0.102777	-28.8439	-22.8995	13.4555
 226	1	6	0.132074	-30.2748	-19.8993	12.56
 227	1	6	0.154044	-30.6628	-22.337	12.4115
 228	1	6	0.145155	-26.5269	-20.6179	14.5615
 229	1	6	0.14558	-29.3431	-23.3792	14.2892
 230	1	9	-0.24014	-26.7396	-23.2573	14.5438
 231	1	6	0.152938	-22.9312	-22.1078	12.2703
 232	1	6	0.151751	-28.2133	-19.023	13.6522
 233	1	1	0.48116	-1.66896	-16.5838	2.69891
 234	1	2	0.034009	-2.74102	-15.9109	3.28968
 235	1	3	0.028921	-3.82169	-15.9371	2.27673
 236	1	2	0.071556	-1.9895	-17.0827	1.42797
 237	1	3	0.025276	-3.37252	-16.6134	1.16454
 238	1	5	-0.381907	-2.80703	-15.4	4.3962
 239	1	5	-0.393799	-1.31195	-17.7769	0.685579
 240	1	3	-0.008998	-5.11423	-15.4169	2.34508
 241	1	3	-0.064503	-4.17822	-16.7569	0.0326075
 242	1	3	-0.16756	-5.483	-16.2197	0.0700709
 243	1	3	-0.085161	-5.98604	-15.5738	1.23591
 244	1	6	0.158939	-5.43331	-14.9288	3.2622
 245	1	6	0.163781	-3.80058	-17.2731	-0.847275
 246	1	6	0.161401	-6.09334	-16.3362	-0.819534
 247	1	7	-0.078003	-7.45721	-15.0891	1.38585
 248	1	7	0.303704	-7.43285	-13.5099	1.38514
 249	1	8	-0.1084	-6.79584	-13.0009	2.46346
 250	1	8	-0.101508	-8.66718	-12.9585	1.36819
 251	1	8	-0.111714	-6.77675	-13.028	0.305198
 252	1	7	0.380371	-8.42744	-15.5807	0.240298
 253	1	8	-0.124028	-8.17753	-15.0022	-0.956451
 254	1	8	-0.119704	-9.71988	-15.318	0.539446
 255	1	8	-0.115877	-8.36515	-16.918	0.0491761
 256	1	3	-0.024709	-7.97624	-15.7225	2.70893
 257	1	3	-0.076489	-8.64149	-14.9823	3.72171
 258	1	3	-0.052344	-9.02957	-15.6442	4.89464
 259	1	3	-0.054202	-7.75095	-17.1126	2.92737
 260	1	3	-0.149083	-8.16005	-17.7593	4.10806
 261	1	3	-0.063027	-8.80032	-16.9906	5.08166
 262	1	2	0.499526	-9.29168	-17.3691	6.43102
 263	1	1	-0.036881	-9.76963	-16.1939	6.99865
 264	1	2	0.443545	-9.66736	-15.1127	6.12735
 265	1	3	0.038197	-10.2379	-16.092	8.33956
 266	1	3	-0.408621	-11.3983	-15.3552	8.63638
 267	1	3	0.252781	-11.8226	-15.2069	9.96566
 268	1	3	-0.169778	-9.52589	-16.6983	9.39417
 269	1	3	-0.113042	-9.94498	-16.543	10.727
 270	1	3	0.016958	-11.0808	-15.7746	11.0203
 271	1	6	0.167832	-7.97221	-18.8189	4.27033
 272	1	6	0.134138	-7.23519	-17.7049	2.1758
 273	1	6	0.145229	-8.84537	-13.9196	3.63542
 274	1	5	-0.462312	-9.97323	-13.9488	6.32442
 275	1	5	-0.483102	-9.22654	-18.4811	6.92741
 276	1	6	0.144532	-9.38395	-17.0038	11.535
 277	1	6	0.226042	-11.9671	-14.87	7.84827
 278	1	3	0.12103	-12.4292	-14.7377	12.7637
 279	1	3	-0.09864	-12.4023	-13.3924	12.3513
 280	1	3	-0.194398	-13.4202	-12.5139	12.7477
 281	1	3	-0.091961	-14.4644	-12.9881	13.552
 282	1	3	-0.197799	-14.4564	-14.3203	13.9963
 283	1	3	-0.102777	-13.3835	-15.1942	13.6988
 284	1	6	0.132074	-15.2848	-12.3271	13.8239
 285	1	6	0.154044	-15.2845	-14.6713	14.6104
 286	1	6	0.145155	-11.6038	-13.0396	11.7039
 287	1	6	0.14558	-12.82	-15.2963	14.6197
 288	1	9	-0.24014	-11.443	-15.6052	12.3426
 289	1	6	0.152938	-8.63452	-17.2847	9.18549
 290	1	6	0.151751	-13.4163	-11.4819	12.4048
 291	1	1	0.48116	-6.71751	-13.0301	-6.2287
 292	1	2	0.034009	-5.3312	-13.1183	-6.43082
 293	1	3	0.028921	-5.12038	-14.3949	-7.15685
 294	1	2	0.071556	-7.39789	-14.1142	-6.80438
 295	1	3	0.025276	-6.34207	-14.9934	-7.36384
 296	1	5	-0.381907	-4.44504	-12.3884	-6.01369
 297	1	5	-0.393799	-8.59312	-14.3643	-6.79384
 298	1	3	-0.008998	-3.92723	-15.0236	-7.51966
 299	1	3	-0.064503	-6.43851	-16.2608	-7.94442
 300	1	3	-0.16756	-5.24352	-16.9308	-8.2838
 301	1	3	-0.085161	-3.96824	-16.3418	-8.05003
 302	1	6	0.158939	-2.98818	-14.5098	-7.32954
 303	1	6	0.163781	-7.41187	-16.7238	-8.09195
 304	1	6	0.161401	-5.33183	-17.9228	-8.71435
 305	1	7	-0.078003	-2.62759	-17.084	-8.34026
 306	1	7	0.303704	-2.75193	-18.6556	-8.32779
 307	1	8	-0.1084	-3.39325	-19.1562	-9.40795
 308	1	8	-0.101508	-3.41219	-19.0957	-7.23283
 309	1	8	-0.111714	-1.53541	-19.2466	-8.30012
 310	1	7	0.380371	-2.16142	-16.6067	-9.76782
 311	1	8	-0.124028	-1.10133	-17.2985	-10.244
 312	1	8	-0.119704	-1.82186	-15.2976	-9.76474
 313	1	8	-0.115877	-3.14638	-16.7349	-10.6861
 314	1	3	-0.024709	-1.63314	-16.7146	-7.19687
 315	1	3	-0.076489	-2.10469	-16.7131	-5.85637
 316	1	3	-0.052344	-1.26734	-16.2464	-4.83735
 317	1	3	-0.054202	-0.28076	-16.3333	-7.4334
 318	1	3	-0.149083	0.556367	-15.8959	-6.38687
 319	1	3	-0.063027	0.0249116	-15.8446	-5.09501
 320	1	2	0.499526	0.62894	-15.3743	-3.82106
 321	1	1	-0.036881	-0.367453	-15.5083	-2.86298
 322	1	2	0.443545	-1.54252	-16.0296	-3.39188
 323	1	3	0.038197	-0.188686	-15.1773	-1.49359
 324	1	3	-0.408621	0.871297	-15.7513	-0.770222
 325	1	3	0.252781	1.03093	-15.4733	0.594418
 326	1	3	-0.169778	-1.06331	-14.2837	-0.846173
 327	1	3	-0.113042	-0.900601	-13.9942	0.520437
 328	1	3	0.016958	0.129958	-14.6125	1.24618
 329	1	6	0.167832	1.57961	-15.5771	-6.57634
 330	1	6	0.134138	0.140328	-16.3439	-8.43204
 331	1	6	0.145229	-3.12331	-17.0078	-5.61321
 332	1	5	-0.462312	-2.60166	-16.24	-2.82417
 333	1	5	-0.483102	1.76531	-14.9563	-3.67722
 334	1	6	0.144532	-1.59221	-13.3255	1.02704
 335	1	6	0.226042	1.56305	-16.4339	-1.25439
 336	1	3	0.12103	0.285598	-15.4694	3.52155
 337	1	3	-0.09864	1.0941	-15.2533	4.64721
 338	1	3	-0.194398	1.21613	-16.2424	5.63162
 339	1	3	-0.091961	0.477349	-17.4273	5.5177
 340	1	3	-0.197799	-0.346457	-17.6309	4.399
 341	1	3	-0.102777	-0.38821	-16.7031	3.33054
 342	1	6	0.132074	0.532605	-18.1832	6.29899
 343	1	6	0.154044	-0.929382	-18.5488	4.33909
 344	1	6	0.145155	1.62209	-14.3096	4.75303
 345	1	6	0.14558	0.125503	-17.1906	2.51193
 346	1	9	-0.24014	0.188938	-14.4342	2.61024
 347	1	6	0.152938	-1.88182	-13.8281	-1.39832
 348	1	6	0.151751	1.86136	-16.0738	6.48752
 349	1	1	0.48116	-4.17891	5.9712	-4.25514
 350	1	2	0.034009	-3.49215	4.85344	-3.75827
 351	1	3	0.028921	-4.49536	3.7595	-3.72162
 352	1	2	0.071556	-5.51345	5.67293	-4.55793
 353	1	3	0.025276	-5.69404	4.24736	-4.19072
 354	1	5	-0.381907	-2.30501	4.73124	-3.49858
 355	1	5	-0.393799	-6.33095	6.37318	-5.1346
 356	1	3	-0.008998	-4.34566	2.42575	-3.3274
 357	1	3	-0.064503	-6.81413	3.42261	-4.30523
 358	1	3	-0.16756	-6.68265	2.07058	-3.92492
 359	1	3	-0.085161	-5.46201	1.54492	-3.41255
 360	1	6	0.158939	-3.36978	2.12236	-2.96522
 361	1	6	0.163781	-7.75635	3.8229	-4.67349
 362	1	6	0.161401	-7.55502	1.43001	-4.01882
 363	1	7	-0.078003	-5.42638	0.0609597	-2.91549
 364	1	7	0.303704	-6.45056	-0.0299378	-1.71038
 365	1	8	-0.1084	-7.73239	-0.0858695	-2.13706
 366	1	8	-0.101508	-6.35705	1.049	-0.899095
 367	1	8	-0.111714	-6.27845	-1.10668	-0.912393
 368	1	7	0.380371	-3.9991	-0.383708	-2.41407
 369	1	8	-0.124028	-3.077	-0.25675	-3.39543
 370	1	8	-0.119704	-3.58009	0.328928	-1.34355
 371	1	8	-0.115877	-3.95068	-1.68589	-2.05273
 372	1	3	-0.024709	-5.78964	-0.905032	-4.08356
 373	1	3	-0.076489	-6.30141	-2.20431	-3.82713
 374	1	3	-0.052344	-6.49918	-3.08738	-4.89597
 375	1	3	-0.054202	-5.49292	-0.559941	-5.43401
 376	1	3	-0.149083	-5.70435	-1.46532	-6.49847
 377	1	3	-0.063027	-6.20706	-2.73733	-6.19598
 378	1	2	0.499526	-6.45481	-3.92747	-7.06347
 379	1	1	-0.036881	-6.88137	-4.93786	-6.20595
 380	1	2	0.443545	-6.94616	-4.50366	-4.88556
 381	1	3	0.038197	-7.15098	-6.28599	-6.59053
 382	1	3	-0.408621	-8.30746	-6.9335	-6.11821
 383	1	3	0.252781	-8.49144	-8.30822	-6.33202
 384	1	3	-0.169778	-6.22131	-7.02681	-7.34843
 385	1	3	-0.113042	-6.41701	-8.40278	-7.58356
 386	1	3	0.016958	-7.54148	-9.0565	-7.05242
 387	1	6	0.167832	-5.4539	-1.1988	-7.52384
 388	1	6	0.134138	-5.05974	0.409238	-5.6673
 389	1	6	0.145229	-6.50196	-2.55859	-2.82115
 390	1	5	-0.462312	-7.2547	-5.14375	-3.89424
 391	1	5	-0.483102	-6.25769	-3.99261	-8.26509
 392	1	6	0.144532	-5.67308	-8.97378	-8.13299
 393	1	6	0.226042	-9.03102	-6.3968	-5.51211
 394	1	3	0.12103	-8.21551	-11.2213	-6.20554
 395	1	3	-0.09864	-9.59887	-11.1566	-5.96307
 396	1	3	-0.194398	-10.1537	-11.8347	-4.86794
 397	1	3	-0.091961	-9.31665	-12.5544	-4.0052
 398	1	3	-0.197799	-7.93958	-12.6293	-4.26812
 399	1	3	-0.102777	-7.37113	-12.0364	-5.42221
 400	1	6	0.132074	-9.73414	-13.0612	-3.1378
 401	1	6	0.154044	-7.30918	-13.2025	-3.58987
 402	1	6	0.145155	-10.2329	-10.5583	-6.61072
 403	1	6	0.14558	-6.47569	-11.4847	-5.16224
 404	1	9	-0.24014	-7.65272	-10.4295	-7.18559
 405	1	6	0.152938	-5.32149	-6.54566	-7.72435
 406	1	6	0.151751	-11.222	-11.781	-4.67377
 407	1	1	0.48116	-2.89319	18.9172	9.03569
 408	1	2	0.034009	-2.98496	17.7841	8.20936
 409	1	3	0.028921	-3.34907	18.3036	6.8575
 410	1	2	0.071556	-3.17761	20.0969	8.34162
 411	1	3	0.025276	-3.45144	19.6768	6.95164
 412	1	5	-0.381907	-2.77367	16.6159	8.49498
 413	1	5	-0.393799	-3.21342	21.2434	8.76318
 414	1	3	-0.008998	-3.65142	17.6314	5.65776
 415	1	3	-0.064503	-3.84908	20.4548	5.86896
 416	1	3	-0.16756	-4.11738	19.807	4.65261
 417	1	3	-0.085161	-4.02098	18.3925	4.50917
 418	1	6	0.158939	-3.62559	16.545	5.64023
 419	1	6	0.163781	-3.96991	21.5286	5.97585
 420	1	6	0.161401	-4.44615	20.4344	3.83372
 421	1	7	-0.078003	-4.44638	17.7166	3.16411
 422	1	7	0.303704	-6.01979	17.641	3.19497
 423	1	8	-0.1084	-6.44963	16.7251	4.09207
 424	1	8	-0.101508	-6.55342	17.3337	1.99566
 425	1	8	-0.111714	-6.58518	18.8161	3.54666
 426	1	7	0.380371	-3.98818	18.5498	1.89892
 427	1	8	-0.124028	-4.06355	17.821	0.759896
 428	1	8	-0.119704	-2.699	18.9432	2.0081
 429	1	8	-0.115877	-4.72303	19.6597	1.66253
 430	1	3	-0.024709	-3.77783	16.3173	2.98253
 431	1	3	-0.076489	-4.4586	15.2309	2.36557
 432	1	3	-0.052344	-3.74939	14.0691	2.04502
 433	1	3	-0.054202	-2.38991	16.161	3.25962
 434	1	3	-0.149083	-1.70103	14.9637	2.96629
 435	1	3	-0.063027	-2.41253	13.9279	2.34904
 436	1	2	0.499526	-1.94736	12.6276	1.7903
 437	1	1	-0.036881	-3.03975	12.1013	1.11586
 438	1	2	0.443545	-4.17733	12.89	1.24488
 439	1	3	0.038197	-2.9501	10.9733	0.260156
 440	1	3	-0.408621	-3.06597	9.6679	0.762826
 441	1	3	0.252781	-3.02714	8.56879	-0.112376
 442	1	3	-0.169778	-2.73643	11.1641	-1.11434
 443	1	3	-0.113042	-2.70351	10.0705	-1.99669
 444	1	3	0.016958	-2.85112	8.76244	-1.49526
 445	1	6	0.167832	-0.635252	14.8622	3.16024
 446	1	6	0.134138	-1.82905	16.9944	3.67796
 447	1	6	0.145229	-5.49894	15.2781	2.0668
 448	1	5	-0.462312	-5.25381	12.76	0.686776
 449	1	5	-0.483102	-0.811006	12.1862	1.83251
 450	1	6	0.144532	-2.58026	10.2478	-3.06139
 451	1	6	0.226042	-3.26891	9.49998	1.8158
 452	1	3	0.12103	-2.58072	7.65461	-3.6681
 453	1	3	-0.09864	-1.30292	8.0578	-4.09735
 454	1	3	-0.194398	-0.997349	8.08715	-5.46654
 455	1	3	-0.091961	-1.97238	7.71537	-6.40076
 456	1	3	-0.197799	-3.23825	7.29825	-5.96188
 457	1	3	-0.102777	-3.56288	7.22549	-4.58631
 458	1	6	0.132074	-1.7452	7.73609	-7.46466
 459	1	6	0.154044	-3.97877	7.00301	-6.70497
 460	1	6	0.145155	-0.553897	8.34411	-3.36453
 461	1	6	0.14558	-4.46106	7.803	-4.39224
 462	1	9	-0.24014	-2.89373	7.6592	-2.32511
 463	1	6	0.152938	-2.6157	12.172	-1.49917
 464	1	6	0.151751	-0.0120686	8.39461	-5.80339
 465	1	1	0.48116	-4.94578	4.05805	11.6729
 466	1	2	0.034009	-5.98164	4.21807	12.6064
 467	1	3	0.028921	-6.92747	5.1818	11.989
 468	1	2	0.071556	-5.17683	4.79328	10.5037
 469	1	3	0.025276	-6.4503	5.51317	10.7386
 470	1	5	-0.381907	-6.1135	3.69583	13.702
 471	1	5	-0.393799	-4.5011	4.85481	9.4879
 472	1	3	-0.008998	-8.08256	5.77043	12.5214
 473	1	3	-0.064503	-7.11305	6.43461	9.92987
 474	1	3	-0.16756	-8.26955	7.04744	10.4514
 475	1	3	-0.085161	-8.76108	6.75588	11.7567
 476	1	6	0.158939	-8.3965	5.48534	13.52
 477	1	6	0.163781	-6.71345	6.6952	8.95148
 478	1	6	0.161401	-8.76515	7.79927	9.84701
 479	1	7	-0.078003	-9.98174	7.56426	12.2946
 480	1	7	0.303704	-11.2777	6.9236	11.6639
 481	1	8	-0.1084	-12.423	7.45415	12.1491
 482	1	8	-0.101508	-11.3353	5.58846	11.8727
 483	1	8	-0.111714	-11.3178	7.0745	10.3299
 484	1	7	0.380371	-10.1382	7.54052	13.8657
 485	1	8	-0.124028	-10.5634	6.349	14.3425
 486	1	8	-0.119704	-11.0292	8.46724	14.2851
 487	1	8	-0.115877	-8.98025	7.81567	14.5054
 488	1	3	-0.024709	-9.72752	9.04408	11.8714
 489	1	3	-0.076489	-8.48351	9.64136	12.2113
 490	1	3	-0.052344	-8.15833	10.8972	11.6872
 491	1	3	-0.054202	-10.6318	9.79535	11.0666
 492	1	3	-0.149083	-10.269	11.0414	10.5177
 493	1	3	-0.063027	-9.00289	11.5517	10.8171
 494	1	2	0.499526	-8.33203	12.8004	10.3716
 495	1	1	-0.036881	-7.16426	12.8756	11.1159
 496	1	2	0.443545	-6.95551	11.749	11.8991
 497	1	3	0.038197	-6.38443	14.0569	11.1822
 498	1	3	-0.408621	-5.01325	14.0642	10.8714
 499	1	3	0.252781	-4.29506	15.2742	10.8884
 500	1	3	-0.169778	-7.01577	15.253	11.5648
 501	1	3	-0.113042	-6.29947	16.4558	11.6028
 502	1	3	0.016958	-4.94248	16.4717	11.2555
 503	1	6	0.167832	-10.9493	11.5853	9.86466
 504	1	6	0.134138	-11.6108	9.40997	10.8021
 505	1	6	0.145229	-7.75089	9.12354	12.8247
 506	1	5	-0.462312	-6.04717	11.5367	12.6841
 507	1	5	-0.483102	-8.67957	13.5235	9.45227
 508	1	6	0.144532	-6.79936	17.3823	11.8689
 509	1	6	0.226042	-4.50363	13.1448	10.6003
 510	1	3	0.12103	-2.97549	17.9276	11.2489
 511	1	3	-0.09864	-2.24079	17.4302	12.3411
 512	1	3	-0.194398	-0.90557	17.8202	12.5278
 513	1	3	-0.091961	-0.314358	18.7084	11.6207
 514	1	3	-0.197799	-1.06474	19.2154	10.5482
 515	1	3	-0.102777	-2.43978	18.9176	10.4
 516	1	6	0.132074	0.727187	18.9976	11.7425
 517	1	6	0.154044	-0.583795	19.8997	9.84964
 518	1	6	0.145155	-2.71673	16.7617	13.0541
 519	1	6	0.14558	-2.97647	19.8134	10.6933
 520	1	9	-0.24014	-4.32767	17.7002	11.1878
 521	1	6	0.152938	-8.07278	15.2519	11.8154
 522	1	6	0.151751	-0.328645	17.4345	13.3663
 523	1	1	0.48116	7.08311	14.7198	9.6954
 524	1	2	0.034009	5.81566	14.9492	10.2561
 525	1	3	0.028921	4.91024	15.168	9.09555
 526	1	2	0.071556	7.0714	14.8147	8.30086
 527	1	3	0.025276	5.66191	15.0787	7.94486
 528	1	5	-0.381907	5.48424	14.8997	11.4312
 529	1	5	-0.393799	7.98297	14.6371	7.50711
 530	1	3	-0.008998	3.52842	15.3931	9.04269
 531	1	3	-0.064503	5.08273	15.1842	6.68428
 532	1	3	-0.16756	3.70135	15.4395	6.60501
 533	1	3	-0.085161	2.90011	15.5474	7.7744
 534	1	6	0.158939	2.96596	15.4622	9.9717
 535	1	6	0.163781	5.6995	15.0779	5.79649
 536	1	6	0.161401	3.27481	15.552	5.6156
 537	1	7	-0.078003	1.38852	15.9004	7.71402
 538	1	7	0.303704	1.30553	17.4428	8.05349
 539	1	8	-0.1084	0.0646465	17.9547	7.91039
 540	1	8	-0.101508	2.10862	18.1783	7.25089
 541	1	8	-0.111714	1.71751	17.7228	9.31033
 542	1	7	0.380371	0.709711	15.6658	6.30391
 543	1	8	-0.124028	1.09395	16.5573	5.3657
 544	1	8	-0.119704	-0.636417	15.7614	6.37413
 545	1	8	-0.115877	0.971722	14.4442	5.78983
 546	1	3	-0.024709	0.665294	14.9626	8.72776
 547	1	3	-0.076489	0.815494	13.5522	8.60334
 548	1	3	-0.052344	0.185238	12.7081	9.53242
 549	1	3	-0.054202	-0.124464	15.4571	9.80226
 550	1	3	-0.149083	-0.709868	14.595	10.7477
 551	1	3	-0.063027	-0.538694	13.2194	10.5838
 552	1	2	0.499526	-1.03235	12.0914	11.4106
 553	1	1	-0.036881	-0.577387	10.9279	10.7958
 554	1	2	0.443545	0.147731	11.2214	9.63978
 555	1	3	0.038197	-0.867732	9.60308	11.2659
 556	1	3	-0.408621	0.120943	8.18202	10.7133
 557	1	3	0.252781	-0.392571	6.50427	11.1268
 558	1	3	-0.169778	-2.35061	9.31559	12.2389
 559	1	3	-0.113042	-2.88061	7.60744	12.6054
 560	1	3	0.016958	-1.90878	6.23067	12.0434
 561	1	6	0.167832	-1.28232	14.9851	11.5834
 562	1	6	0.134138	-0.297168	16.5168	9.93107
 563	1	6	0.145229	1.41958	13.1153	7.81092
 564	1	5	-0.462312	0.593707	10.443	8.81468
 565	1	5	-0.483102	-1.66345	12.2113	12.4459
 566	1	6	0.144532	-3.79278	7.43013	13.1715
 567	1	6	0.226042	1.00911	8.32188	10.1006
 568	1	3	0.12103	-2.59152	3.90023	11.6259
 569	1	3	-0.09864	-1.63313	3.42611	10.7118
 570	1	3	-0.194398	-1.86753	2.24047	10.001
 571	1	3	-0.091961	-3.03993	1.51112	10.2317
 572	1	3	-0.197799	-3.98601	1.98176	11.1542
 573	1	3	-0.102777	-3.80462	3.20535	11.8404
 574	1	6	0.132074	-3.21113	0.577045	9.69982
 575	1	6	0.154044	-4.88333	1.39006	11.3283
 576	1	6	0.145155	-0.694023	3.94809	10.5733
 577	1	6	0.14558	-3.93729	3.0582	12.9063
 578	1	9	-0.24014	-2.32222	4.97902	12.4429
 579	1	6	0.152938	-2.98099	10.1445	12.5564
 580	1	6	0.151751	-1.12345	1.86167	9.30503
 581	1	1	0.48116	-4.76689	4.00131	6.59882
 582	1	2	0.034009	-4.05872	5.14881	6.20647
 583	1	3	0.028921	-2.65021	4.70018	6.07346
 584	1	2	0.071556	-3.92731	2.91012	6.84558
 585	1	3	0.025276	-2.5729	3.38135	6.46693
 586	1	5	-0.381907	-4.49674	6.24595	5.88694
 587	1	5	-0.393799	-4.22607	1.76035	7.13476
 588	1	3	-0.008998	-1.57365	5.33878	5.44881
 589	1	3	-0.064503	-1.40068	2.64415	6.29795
 590	1	3	-0.16756	-0.307705	3.2655	5.6598
 591	1	3	-0.085161	-0.380869	4.61118	5.19683
 592	1	6	0.158939	-1.71518	6.34414	5.06837
 593	1	6	0.163781	-1.37441	1.59423	6.57764
 594	1	6	0.161401	0.563547	2.64927	5.46934
 595	1	7	-0.078003	0.70234	5.2468	4.27536
 596	1	7	0.303704	2.06717	4.44098	4.2306
 597	1	8	-0.1084	1.98362	3.26456	3.56938
 598	1	8	-0.101508	3.03642	5.15642	3.61801
 599	1	8	-0.111714	2.55289	4.14502	5.45737
 600	1	7	0.380371	0.0965913	5.24374	2.81148
 601	1	8	-0.124028	-0.986032	6.04639	2.69147
 602	1	8	-0.119704	-0.331815	4.01373	2.44681
 603	1	8	-0.115877	0.984515	5.64284	1.87237
 604	1	3	-0.024709	1.03907	6.67394	4.81129
 605	1	3	-0.076489	1.559	6.80278	6.12626
 606	1	3	-0.052344	2.04975	8.04418	6.55154
 607	1	3	-0.054202	0.958788	7.85143	4.00811
 608	1	3	-0.149083	1.39908	9.10478	4.47895
 609	1	3	-0.063027	1.96458	9.1661	5.75445
 610	1	2	0.499526	2.69775	10.2743	6.42054
 611	1	1	-0.036881	3.26364	9.7082	7.5526
 612	1	2	0.443545	2.86849	8.38857	7.74577
 613	1	3	0.038197	4.24613	10.3624	8.33888
 614	1	3	-0.408621	4.08533	10.4717	9.72642
 615	1	3	0.252781	5.09224	11.0657	10.4983
 616	1	3	-0.169778	5.4141	10.8704	7.73654
 617	1	3	-0.113042	6.42254	11.4699	8.5119
 618	1	3	0.016958	6.26102	11.5628	9.90578
 619	1	6	0.167832	1.37745	9.98771	3.84086
 620	1	6	0.134138	0.598721	7.82095	2.98637
 621	1	6	0.145229	1.65424	5.94521	6.78634
 622	1	5	-0.462312	3.24954	7.60949	8.60676
 623	1	5	-0.483102	2.86659	11.3994	5.97664
 624	1	6	0.144532	7.32385	11.8419	8.03153
 625	1	6	0.226042	3.19569	10.0802	10.2118
 626	1	3	0.12103	8.3013	12.8525	10.3299
 627	1	3	-0.09864	9.4791	12.199	9.93238
 628	1	3	-0.194398	10.6287	12.9419	9.63513
 629	1	3	-0.091961	10.5963	14.3367	9.75652
 630	1	3	-0.197799	9.40898	14.9811	10.138
 631	1	3	-0.102777	8.22789	14.2562	10.4196
 632	1	6	0.132074	11.4902	14.923	9.55957
 633	1	6	0.154044	9.41433	16.065	10.2355
 634	1	6	0.145155	9.50448	11.1172	9.86966
 635	1	6	0.14558	7.86356	14.5431	11.3992
 636	1	9	-0.24014	7.21401	12.1134	10.7343
 637	1	6	0.152938	5.5467	10.7908	6.66084
 638	1	6	0.151751	11.5428	12.4381	9.33382