

################################################################################
##################################    Init    ##################################
################################################################################
units           real
atom_style      full
pair_style      lj/cut/coul/long 12.0  12.0
kspace_style    pppm 1e-4
bond_style      harmonic
angle_style     harmonic
dihedral_style  fourier
improper_style  cvff
special_bonds   amber
pair_modify     mix arithmetic
read_data       temp.lmps
  orthogonal box = (-108.105 -108.105 -108.105) to (108.105 108.105 108.105)
  1 by 1 by 1 MPI processor grid
  reading atoms ...
  116 atoms
  reading velocities ...
  116 velocities
  scanning bonds ...
  3 = max bonds/atom
  scanning angles ...
  6 = max angles/atom
  scanning dihedrals ...
  24 = max dihedrals/atom
  scanning impropers ...
  2 = max impropers/atom
  reading bonds ...
  127 bonds
  reading angles ...
  214 angles
  reading dihedrals ...
  330 dihedrals
  reading impropers ...
  40 impropers
  4 = max # of 1-2 neighbors
  10 = max # of 1-3 neighbors
  19 = max # of 1-4 neighbors
  22 = max # of special neighbors
  special bonds CPU = 0.000320911 secs
  read_data CPU = 0.00428605 secs
################################################################################

timestep        1
fix             pysimm_md all nve/limit 0.1
run             2000
PPPM initialization ...
  using 12-bit tables for long-range coulomb (../kspace.cpp:332)
  G vector (1/distance) = 0.14617
  grid = 36 36 36
  stencil order = 5
  estimated absolute RMS force accuracy = 0.00192357
  estimated relative force accuracy = 5.79279e-06
  using double precision KISS FFT
  3d grid and FFT values/proc = 68921 46656
Neighbor list info ...
  update every 1 steps, delay 10 steps, check yes
  max neighbors/atom: 2000, page size: 100000
  master list distance cutoff = 14
  ghost atom cutoff = 14
  binsize = 7, bins = 31 31 31
  1 neighbor lists, perpetual/occasional/extra = 1 0 0
  (1) pair lj/cut/coul/long, perpetual
      attributes: half, newton on
      pair build: half/bin/newton
      stencil: half/bin/3d/newton
      bin: standard
Per MPI rank memory allocation (min/avg/max) = 24.48 | 24.48 | 24.48 Mbytes
Step Temp E_pair E_mol TotEng Press 
       0    14.190365    216.67564    292.48105    514.02105    4.7409869 
    2000    369.54948    47.128031    246.26376    420.07082   0.67702941 
Loop time of 19.8124 on 1 procs for 2000 steps with 116 atoms

Performance: 8.722 ns/day, 2.752 hours/ns, 100.947 timesteps/s
100.0% CPU use with 1 MPI tasks x no OpenMP threads

MPI task timing breakdown:
Section |  min time  |  avg time  |  max time  |%varavg| %total
---------------------------------------------------------------
Pair    | 0.17965    | 0.17965    | 0.17965    |   0.0 |  0.91
Bond    | 0.1071     | 0.1071     | 0.1071     |   0.0 |  0.54
Kspace  | 19.508     | 19.508     | 19.508     |   0.0 | 98.46
Neigh   | 0.0061591  | 0.0061591  | 0.0061591  |   0.0 |  0.03
Comm    | 0.00098324 | 0.00098324 | 0.00098324 |   0.0 |  0.00
Output  | 3.0994e-05 | 3.0994e-05 | 3.0994e-05 |   0.0 |  0.00
Modify  | 0.0046821  | 0.0046821  | 0.0046821  |   0.0 |  0.02
Other   |            | 0.006065   |            |       |  0.03

Nlocal:    116 ave 116 max 116 min
Histogram: 1 0 0 0 0 0 0 0 0 0
Nghost:    0 ave 0 max 0 min
Histogram: 1 0 0 0 0 0 0 0 0 0
Neighs:    3719 ave 3719 max 3719 min
Histogram: 1 0 0 0 0 0 0 0 0 0

Total # of neighbors = 3719
Ave neighs/atom = 32.0603
Ave special neighs/atom = 10.8276
Neighbor list builds = 35
Dangerous builds = 0
unfix pysimm_md
min_style cg
minimize 0.001 0.001 10000 100000
WARNING: Using 'neigh_modify every 1 delay 0 check yes' setting during minimization (../min.cpp:190)
PPPM initialization ...
  using 12-bit tables for long-range coulomb (../kspace.cpp:332)
  G vector (1/distance) = 0.14617
  grid = 36 36 36
  stencil order = 5
  estimated absolute RMS force accuracy = 0.00192357
  estimated relative force accuracy = 5.79279e-06
  using double precision KISS FFT
  3d grid and FFT values/proc = 68921 46656
Per MPI rank memory allocation (min/avg/max) = 25.61 | 25.61 | 25.61 Mbytes
Step Temp E_pair E_mol TotEng Press 
    2000    369.54948    47.128031    246.26376    420.07082   0.67702941 
    2039    369.54948    39.825594    134.69539    301.20002   0.68037236 
Loop time of 0.806097 on 1 procs for 39 steps with 116 atoms

100.0% CPU use with 1 MPI tasks x no OpenMP threads

Minimization stats:
  Stopping criterion = energy tolerance
  Energy initial, next-to-last, final = 
         293.391786591      174.674087143      174.520984986
  Force two-norm initial, final = 417.576 16.6116
  Force max component initial, final = 89.4638 2.93711
  Final line search alpha, max atom move = 0.00690043 0.0202673
  Iterations, force evaluations = 39 78

MPI task timing breakdown:
Section |  min time  |  avg time  |  max time  |%varavg| %total
---------------------------------------------------------------
Pair    | 0.011669   | 0.011669   | 0.011669   |   0.0 |  1.45
Bond    | 0.0046828  | 0.0046828  | 0.0046828  |   0.0 |  0.58
Kspace  | 0.78926    | 0.78926    | 0.78926    |   0.0 | 97.91
Neigh   | 0          | 0          | 0          |   0.0 |  0.00
Comm    | 3.171e-05  | 3.171e-05  | 3.171e-05  |   0.0 |  0.00
Output  | 0          | 0          | 0          |   0.0 |  0.00
Modify  | 0          | 0          | 0          |   0.0 |  0.00
Other   |            | 0.0004544  |            |       |  0.06

Nlocal:    116 ave 116 max 116 min
Histogram: 1 0 0 0 0 0 0 0 0 0
Nghost:    0 ave 0 max 0 min
Histogram: 1 0 0 0 0 0 0 0 0 0
Neighs:    3720 ave 3720 max 3720 min
Histogram: 1 0 0 0 0 0 0 0 0 0

Total # of neighbors = 3720
Ave neighs/atom = 32.069
Ave special neighs/atom = 10.8276
Neighbor list builds = 0
Dangerous builds = 0
write_dump all custom pysimm.dump.tmp id q x y z vx vy vz
quit


################################################################################
##################################    Init    ##################################
################################################################################
units           real
atom_style      full
pair_style      lj/cut/coul/long 12.0  12.0
kspace_style    pppm 1e-4
bond_style      harmonic
angle_style     harmonic
dihedral_style  fourier
improper_style  cvff
special_bonds   amber
pair_modify     mix arithmetic
read_data       temp.lmps
  orthogonal box = (-108.105 -108.105 -108.105) to (108.105 108.105 108.105)
  1 by 1 by 1 MPI processor grid
  reading atoms ...
  174 atoms
  reading velocities ...
  174 velocities
  scanning bonds ...
  3 = max bonds/atom
  scanning angles ...
  6 = max angles/atom
  scanning dihedrals ...
  24 = max dihedrals/atom
  scanning impropers ...
  2 = max impropers/atom
  reading bonds ...
  191 bonds
  reading angles ...
  323 angles
  reading dihedrals ...
  502 dihedrals
  reading impropers ...
  60 impropers
  4 = max # of 1-2 neighbors
  10 = max # of 1-3 neighbors
  19 = max # of 1-4 neighbors
  22 = max # of special neighbors
  special bonds CPU = 0.000368118 secs
  read_data CPU = 0.00477791 secs
################################################################################

timestep        1
fix             pysimm_md all nve/limit 0.1
run             2000
PPPM initialization ...
  using 12-bit tables for long-range coulomb (../kspace.cpp:332)
  G vector (1/distance) = 0.0371624
  grid = 6 6 6
  stencil order = 5
  estimated absolute RMS force accuracy = 0.0418614
  estimated relative force accuracy = 0.000126064
  using double precision KISS FFT
  3d grid and FFT values/proc = 1331 216
Neighbor list info ...
  update every 1 steps, delay 10 steps, check yes
  max neighbors/atom: 2000, page size: 100000
  master list distance cutoff = 14
  ghost atom cutoff = 14
  binsize = 7, bins = 31 31 31
  1 neighbor lists, perpetual/occasional/extra = 1 0 0
  (1) pair lj/cut/coul/long, perpetual
      attributes: half, newton on
      pair build: half/bin/newton
      stencil: half/bin/3d/newton
      bin: standard
Per MPI rank memory allocation (min/avg/max) = 17.96 | 17.96 | 17.96 Mbytes
Step Temp E_pair E_mol TotEng Press 
       0    250.37076    525.87917    374.74285    1029.7332    12.398777 
    2000     378.1782    75.837411    408.66046    679.51686  -0.36619345 
Loop time of 0.811201 on 1 procs for 2000 steps with 174 atoms

Performance: 213.018 ns/day, 0.113 hours/ns, 2465.481 timesteps/s
100.0% CPU use with 1 MPI tasks x no OpenMP threads

MPI task timing breakdown:
Section |  min time  |  avg time  |  max time  |%varavg| %total
---------------------------------------------------------------
Pair    | 0.30234    | 0.30234    | 0.30234    |   0.0 | 37.27
Bond    | 0.16035    | 0.16035    | 0.16035    |   0.0 | 19.77
Kspace  | 0.32789    | 0.32789    | 0.32789    |   0.0 | 40.42
Neigh   | 0.0093834  | 0.0093834  | 0.0093834  |   0.0 |  1.16
Comm    | 0.00074244 | 0.00074244 | 0.00074244 |   0.0 |  0.09
Output  | 2.6941e-05 | 2.6941e-05 | 2.6941e-05 |   0.0 |  0.00
Modify  | 0.0060077  | 0.0060077  | 0.0060077  |   0.0 |  0.74
Other   |            | 0.004469   |            |       |  0.55

Nlocal:    174 ave 174 max 174 min
Histogram: 1 0 0 0 0 0 0 0 0 0
Nghost:    0 ave 0 max 0 min
Histogram: 1 0 0 0 0 0 0 0 0 0
Neighs:    6312 ave 6312 max 6312 min
Histogram: 1 0 0 0 0 0 0 0 0 0

Total # of neighbors = 6312
Ave neighs/atom = 36.2759
Ave special neighs/atom = 10.9425
Neighbor list builds = 36
Dangerous builds = 0
unfix pysimm_md
min_style cg
minimize 0.001 0.001 10000 100000
WARNING: Using 'neigh_modify every 1 delay 0 check yes' setting during minimization (../min.cpp:190)
PPPM initialization ...
  using 12-bit tables for long-range coulomb (../kspace.cpp:332)
  G vector (1/distance) = 0.0371624
  grid = 6 6 6
  stencil order = 5
  estimated absolute RMS force accuracy = 0.0418614
  estimated relative force accuracy = 0.000126064
  using double precision KISS FFT
  3d grid and FFT values/proc = 1331 216
Per MPI rank memory allocation (min/avg/max) = 19.09 | 19.09 | 19.09 Mbytes
Step Temp E_pair E_mol TotEng Press 
    2000     378.1782    75.837411    408.66046    679.51686  -0.36619345 
    2019     378.1782    59.937561    227.35055     482.3071   0.84403112 
Loop time of 0.0483229 on 1 procs for 19 steps with 174 atoms

99.3% CPU use with 1 MPI tasks x no OpenMP threads

Minimization stats:
  Stopping criterion = linesearch alpha is zero
  Energy initial, next-to-last, final = 
         484.497875178      287.288108377      287.288108377
  Force two-norm initial, final = 547.974 26.5288
  Force max component initial, final = 112.109 4.33843
  Final line search alpha, max atom move = 1.38769e-11 6.0204e-11
  Iterations, force evaluations = 19 95

MPI task timing breakdown:
Section |  min time  |  avg time  |  max time  |%varavg| %total
---------------------------------------------------------------
Pair    | 0.023456   | 0.023456   | 0.023456   |   0.0 | 48.54
Bond    | 0.008369   | 0.008369   | 0.008369   |   0.0 | 17.32
Kspace  | 0.016034   | 0.016034   | 0.016034   |   0.0 | 33.18
Neigh   | 0          | 0          | 0          |   0.0 |  0.00
Comm    | 3.7193e-05 | 3.7193e-05 | 3.7193e-05 |   0.0 |  0.08
Output  | 0          | 0          | 0          |   0.0 |  0.00
Modify  | 0          | 0          | 0          |   0.0 |  0.00
Other   |            | 0.0004272  |            |       |  0.88

Nlocal:    174 ave 174 max 174 min
Histogram: 1 0 0 0 0 0 0 0 0 0
Nghost:    0 ave 0 max 0 min
Histogram: 1 0 0 0 0 0 0 0 0 0
Neighs:    6351 ave 6351 max 6351 min
Histogram: 1 0 0 0 0 0 0 0 0 0

Total # of neighbors = 6351
Ave neighs/atom = 36.5
Ave special neighs/atom = 10.9425
Neighbor list builds = 0
Dangerous builds = 0
write_dump all custom pysimm.dump.tmp id q x y z vx vy vz
quit


################################################################################
##################################    Init    ##################################
################################################################################
units           real
atom_style      full
pair_style      lj/cut/coul/long 12.0  12.0
kspace_style    pppm 1e-4
bond_style      harmonic
angle_style     harmonic
dihedral_style  fourier
improper_style  cvff
special_bonds   amber
pair_modify     mix arithmetic
read_data       temp.lmps
  orthogonal box = (-108.105 -108.105 -108.105) to (108.105 108.105 108.105)
  1 by 1 by 1 MPI processor grid
  reading atoms ...
  232 atoms
  reading velocities ...
  232 velocities
  scanning bonds ...
  3 = max bonds/atom
  scanning angles ...
  6 = max angles/atom
  scanning dihedrals ...
  24 = max dihedrals/atom
  scanning impropers ...
  2 = max impropers/atom
  reading bonds ...
  255 bonds
  reading angles ...
  432 angles
  reading dihedrals ...
  674 dihedrals
  reading impropers ...
  80 impropers
  4 = max # of 1-2 neighbors
  10 = max # of 1-3 neighbors
  19 = max # of 1-4 neighbors
  22 = max # of special neighbors
  special bonds CPU = 0.000402927 secs
  read_data CPU = 0.00522685 secs
################################################################################

timestep        1
fix             pysimm_md all nve/limit 0.1
run             2000
PPPM initialization ...
WARNING: System is not charge neutral, net charge = 1.2e-05 (../kspace.cpp:313)
  using 12-bit tables for long-range coulomb (../kspace.cpp:332)
  G vector (1/distance) = 0.053282
  grid = 9 9 9
  stencil order = 5
  estimated absolute RMS force accuracy = 0.0391821
  estimated relative force accuracy = 0.000117996
  using double precision KISS FFT
  3d grid and FFT values/proc = 2744 729
Neighbor list info ...
  update every 1 steps, delay 10 steps, check yes
  max neighbors/atom: 2000, page size: 100000
  master list distance cutoff = 14
  ghost atom cutoff = 14
  binsize = 7, bins = 31 31 31
  1 neighbor lists, perpetual/occasional/extra = 1 0 0
  (1) pair lj/cut/coul/long, perpetual
      attributes: half, newton on
      pair build: half/bin/newton
      stencil: half/bin/3d/newton
      bin: standard
Per MPI rank memory allocation (min/avg/max) = 18.07 | 18.07 | 18.07 Mbytes
Step Temp E_pair E_mol TotEng Press 
       0    286.75665    374.91812    475.05644    1047.4258    8.1226035 
    2000     317.4825    102.70197      478.475    799.78499    1.4364353 
Loop time of 1.30855 on 1 procs for 2000 steps with 232 atoms

Performance: 132.054 ns/day, 0.182 hours/ns, 1528.404 timesteps/s
100.0% CPU use with 1 MPI tasks x no OpenMP threads

MPI task timing breakdown:
Section |  min time  |  avg time  |  max time  |%varavg| %total
---------------------------------------------------------------
Pair    | 0.41003    | 0.41003    | 0.41003    |   0.0 | 31.33
Bond    | 0.214      | 0.214      | 0.214      |   0.0 | 16.35
Kspace  | 0.65764    | 0.65764    | 0.65764    |   0.0 | 50.26
Neigh   | 0.012268   | 0.012268   | 0.012268   |   0.0 |  0.94
Comm    | 0.00078678 | 0.00078678 | 0.00078678 |   0.0 |  0.06
Output  | 2.718e-05  | 2.718e-05  | 2.718e-05  |   0.0 |  0.00
Modify  | 0.0080647  | 0.0080647  | 0.0080647  |   0.0 |  0.62
Other   |            | 0.005737   |            |       |  0.44

Nlocal:    232 ave 232 max 232 min
Histogram: 1 0 0 0 0 0 0 0 0 0
Nghost:    0 ave 0 max 0 min
Histogram: 1 0 0 0 0 0 0 0 0 0
Neighs:    8838 ave 8838 max 8838 min
Histogram: 1 0 0 0 0 0 0 0 0 0

Total # of neighbors = 8838
Ave neighs/atom = 38.0948
Ave special neighs/atom = 11
Neighbor list builds = 35
Dangerous builds = 0
unfix pysimm_md
min_style cg
minimize 0.001 0.001 10000 100000
WARNING: Using 'neigh_modify every 1 delay 0 check yes' setting during minimization (../min.cpp:190)
PPPM initialization ...
  using 12-bit tables for long-range coulomb (../kspace.cpp:332)
  G vector (1/distance) = 0.053282
  grid = 9 9 9
  stencil order = 5
  estimated absolute RMS force accuracy = 0.0391821
  estimated relative force accuracy = 0.000117996
  using double precision KISS FFT
  3d grid and FFT values/proc = 2744 729
Per MPI rank memory allocation (min/avg/max) = 19.19 | 19.19 | 19.19 Mbytes
Step Temp E_pair E_mol TotEng Press 
    2000     317.4825    102.70197      478.475    799.78499    1.4364353 
    2012     317.4825     93.17005    316.89607    628.67413    1.4456889 
Loop time of 0.019664 on 1 procs for 12 steps with 232 atoms

101.7% CPU use with 1 MPI tasks x no OpenMP threads

Minimization stats:
  Stopping criterion = energy tolerance
  Energy initial, next-to-last, final = 
         581.176975153      410.350832763      410.066120513
  Force two-norm initial, final = 581.246 52.5504
  Force max component initial, final = 124.12 9.71392
  Final line search alpha, max atom move = 0.00505802 0.0491332
  Iterations, force evaluations = 12 24

MPI task timing breakdown:
Section |  min time  |  avg time  |  max time  |%varavg| %total
---------------------------------------------------------------
Pair    | 0.0085106  | 0.0085106  | 0.0085106  |   0.0 | 43.28
Bond    | 0.0028863  | 0.0028863  | 0.0028863  |   0.0 | 14.68
Kspace  | 0.0080638  | 0.0080638  | 0.0080638  |   0.0 | 41.01
Neigh   | 0          | 0          | 0          |   0.0 |  0.00
Comm    | 1.2159e-05 | 1.2159e-05 | 1.2159e-05 |   0.0 |  0.06
Output  | 0          | 0          | 0          |   0.0 |  0.00
Modify  | 0          | 0          | 0          |   0.0 |  0.00
Other   |            | 0.0001912  |            |       |  0.97

Nlocal:    232 ave 232 max 232 min
Histogram: 1 0 0 0 0 0 0 0 0 0
Nghost:    0 ave 0 max 0 min
Histogram: 1 0 0 0 0 0 0 0 0 0
Neighs:    8870 ave 8870 max 8870 min
Histogram: 1 0 0 0 0 0 0 0 0 0

Total # of neighbors = 8870
Ave neighs/atom = 38.2328
Ave special neighs/atom = 11
Neighbor list builds = 0
Dangerous builds = 0
write_dump all custom pysimm.dump.tmp id q x y z vx vy vz
quit


################################################################################
##################################    Init    ##################################
################################################################################
units           real
atom_style      full
pair_style      lj/cut/coul/long 12.0  12.0
kspace_style    pppm 1e-4
bond_style      harmonic
angle_style     harmonic
dihedral_style  fourier
improper_style  cvff
special_bonds   amber
pair_modify     mix arithmetic
read_data       temp.lmps
  orthogonal box = (-108.105 -108.105 -108.105) to (108.105 108.105 108.105)
  1 by 1 by 1 MPI processor grid
  reading atoms ...
  290 atoms
  reading velocities ...
  290 velocities
  scanning bonds ...
  3 = max bonds/atom
  scanning angles ...
  6 = max angles/atom
  scanning dihedrals ...
  24 = max dihedrals/atom
  scanning impropers ...
  2 = max impropers/atom
  reading bonds ...
  319 bonds
  reading angles ...
  541 angles
  reading dihedrals ...
  846 dihedrals
  reading impropers ...
  100 impropers
  4 = max # of 1-2 neighbors
  10 = max # of 1-3 neighbors
  19 = max # of 1-4 neighbors
  22 = max # of special neighbors
  special bonds CPU = 0.000441074 secs
  read_data CPU = 0.0057559 secs
################################################################################

timestep        1
fix             pysimm_md all nve/limit 0.1
run             2000
PPPM initialization ...
WARNING: System is not charge neutral, net charge = 1.5e-05 (../kspace.cpp:313)
  using 12-bit tables for long-range coulomb (../kspace.cpp:332)
  G vector (1/distance) = 0.0679836
  grid = 12 12 12
  stencil order = 5
  estimated absolute RMS force accuracy = 0.0338875
  estimated relative force accuracy = 0.000102051
  using double precision KISS FFT
  3d grid and FFT values/proc = 4913 1728
Neighbor list info ...
  update every 1 steps, delay 10 steps, check yes
  max neighbors/atom: 2000, page size: 100000
  master list distance cutoff = 14
  ghost atom cutoff = 14
  binsize = 7, bins = 31 31 31
  1 neighbor lists, perpetual/occasional/extra = 1 0 0
  (1) pair lj/cut/coul/long, perpetual
      attributes: half, newton on
      pair build: half/bin/newton
      stencil: half/bin/3d/newton
      bin: standard
Per MPI rank memory allocation (min/avg/max) = 18.25 | 18.25 | 18.25 Mbytes
Step Temp E_pair E_mol TotEng Press 
       0    256.58971    168.76583    567.65278    957.45888     2.015209 
    2000    274.24037    114.41281     595.1868     945.8451  -0.92959887 
Loop time of 1.95053 on 1 procs for 2000 steps with 290 atoms

Performance: 88.591 ns/day, 0.271 hours/ns, 1025.361 timesteps/s
100.0% CPU use with 1 MPI tasks x no OpenMP threads

MPI task timing breakdown:
Section |  min time  |  avg time  |  max time  |%varavg| %total
---------------------------------------------------------------
Pair    | 0.52161    | 0.52161    | 0.52161    |   0.0 | 26.74
Bond    | 0.26579    | 0.26579    | 0.26579    |   0.0 | 13.63
Kspace  | 1.1293     | 1.1293     | 1.1293     |   0.0 | 57.90
Neigh   | 0.016908   | 0.016908   | 0.016908   |   0.0 |  0.87
Comm    | 0.00098801 | 0.00098801 | 0.00098801 |   0.0 |  0.05
Output  | 2.6941e-05 | 2.6941e-05 | 2.6941e-05 |   0.0 |  0.00
Modify  | 0.0097418  | 0.0097418  | 0.0097418  |   0.0 |  0.50
Other   |            | 0.00621    |            |       |  0.32

Nlocal:    290 ave 290 max 290 min
Histogram: 1 0 0 0 0 0 0 0 0 0
Nghost:    0 ave 0 max 0 min
Histogram: 1 0 0 0 0 0 0 0 0 0
Neighs:    11022 ave 11022 max 11022 min
Histogram: 1 0 0 0 0 0 0 0 0 0

Total # of neighbors = 11022
Ave neighs/atom = 38.0069
Ave special neighs/atom = 11.0345
Neighbor list builds = 39
Dangerous builds = 0
unfix pysimm_md
min_style cg
minimize 0.001 0.001 10000 100000
WARNING: Using 'neigh_modify every 1 delay 0 check yes' setting during minimization (../min.cpp:190)
PPPM initialization ...
  using 12-bit tables for long-range coulomb (../kspace.cpp:332)
  G vector (1/distance) = 0.0679836
  grid = 12 12 12
  stencil order = 5
  estimated absolute RMS force accuracy = 0.0338875
  estimated relative force accuracy = 0.000102051
  using double precision KISS FFT
  3d grid and FFT values/proc = 4913 1728
Per MPI rank memory allocation (min/avg/max) = 19.37 | 19.37 | 19.37 Mbytes
Step Temp E_pair E_mol TotEng Press 
    2000    274.24037    114.41281     595.1868     945.8451  -0.92959887 
    2018    274.24037    114.95449     393.4089    744.60888   0.95768989 
Loop time of 0.0412672 on 1 procs for 18 steps with 290 atoms

101.8% CPU use with 1 MPI tasks x no OpenMP threads

Minimization stats:
  Stopping criterion = energy tolerance
  Energy initial, next-to-last, final = 
         709.599608986      508.825092058      508.363389707
  Force two-norm initial, final = 532.477 44.149
  Force max component initial, final = 100.622 6.96133
  Final line search alpha, max atom move = 0.00469681 0.032696
  Iterations, force evaluations = 18 36

MPI task timing breakdown:
Section |  min time  |  avg time  |  max time  |%varavg| %total
---------------------------------------------------------------
Pair    | 0.015342   | 0.015342   | 0.015342   |   0.0 | 37.18
Bond    | 0.0053387  | 0.0053387  | 0.0053387  |   0.0 | 12.94
Kspace  | 0.02025    | 0.02025    | 0.02025    |   0.0 | 49.07
Neigh   | 0          | 0          | 0          |   0.0 |  0.00
Comm    | 1.359e-05  | 1.359e-05  | 1.359e-05  |   0.0 |  0.03
Output  | 0          | 0          | 0          |   0.0 |  0.00
Modify  | 0          | 0          | 0          |   0.0 |  0.00
Other   |            | 0.0003228  |            |       |  0.78

Nlocal:    290 ave 290 max 290 min
Histogram: 1 0 0 0 0 0 0 0 0 0
Nghost:    0 ave 0 max 0 min
Histogram: 1 0 0 0 0 0 0 0 0 0
Neighs:    11019 ave 11019 max 11019 min
Histogram: 1 0 0 0 0 0 0 0 0 0

Total # of neighbors = 11019
Ave neighs/atom = 37.9966
Ave special neighs/atom = 11.0345
Neighbor list builds = 0
Dangerous builds = 0
write_dump all custom pysimm.dump.tmp id q x y z vx vy vz
quit


################################################################################
##################################    Init    ##################################
################################################################################
units           real
atom_style      full
pair_style      lj/cut/coul/long 12.0  12.0
kspace_style    pppm 1e-4
bond_style      harmonic
angle_style     harmonic
dihedral_style  fourier
improper_style  cvff
special_bonds   amber
pair_modify     mix arithmetic
read_data       temp.lmps
  orthogonal box = (-108.105 -108.105 -108.105) to (108.105 108.105 108.105)
  1 by 1 by 1 MPI processor grid
  reading atoms ...
  348 atoms
  reading velocities ...
  348 velocities
  scanning bonds ...
  3 = max bonds/atom
  scanning angles ...
  6 = max angles/atom
  scanning dihedrals ...
  24 = max dihedrals/atom
  scanning impropers ...
  2 = max impropers/atom
  reading bonds ...
  383 bonds
  reading angles ...
  650 angles
  reading dihedrals ...
  1018 dihedrals
  reading impropers ...
  120 impropers
  4 = max # of 1-2 neighbors
  10 = max # of 1-3 neighbors
  19 = max # of 1-4 neighbors
  22 = max # of special neighbors
  special bonds CPU = 0.000488043 secs
  read_data CPU = 0.00630212 secs
################################################################################

timestep        1
fix             pysimm_md all nve/limit 0.1
run             2000
PPPM initialization ...
WARNING: System is not charge neutral, net charge = 1.8e-05 (../kspace.cpp:313)
  using 12-bit tables for long-range coulomb (../kspace.cpp:332)
  G vector (1/distance) = 0.0679841
  grid = 12 12 12
  stencil order = 5
  estimated absolute RMS force accuracy = 0.037123
  estimated relative force accuracy = 0.000111795
  using double precision KISS FFT
  3d grid and FFT values/proc = 4913 1728
Neighbor list info ...
  update every 1 steps, delay 10 steps, check yes
  max neighbors/atom: 2000, page size: 100000
  master list distance cutoff = 14
  ghost atom cutoff = 14
  binsize = 7, bins = 31 31 31
  1 neighbor lists, perpetual/occasional/extra = 1 0 0
  (1) pair lj/cut/coul/long, perpetual
      attributes: half, newton on
      pair build: half/bin/newton
      stencil: half/bin/3d/newton
      bin: standard
Per MPI rank memory allocation (min/avg/max) = 18.25 | 18.25 | 18.25 Mbytes
Step Temp E_pair E_mol TotEng Press 
       0    230.75336    3096.5846    623.84163    3959.1039    80.694901 
    2000    352.65118     149.6291    789.98095    1304.3717   0.60293526 
Loop time of 2.18893 on 1 procs for 2000 steps with 348 atoms

Performance: 78.943 ns/day, 0.304 hours/ns, 913.688 timesteps/s
100.0% CPU use with 1 MPI tasks x no OpenMP threads

MPI task timing breakdown:
Section |  min time  |  avg time  |  max time  |%varavg| %total
---------------------------------------------------------------
Pair    | 0.65237    | 0.65237    | 0.65237    |   0.0 | 29.80
Bond    | 0.32391    | 0.32391    | 0.32391    |   0.0 | 14.80
Kspace  | 1.1604     | 1.1604     | 1.1604     |   0.0 | 53.01
Neigh   | 0.032398   | 0.032398   | 0.032398   |   0.0 |  1.48
Comm    | 0.0017917  | 0.0017917  | 0.0017917  |   0.0 |  0.08
Output  | 2.8849e-05 | 2.8849e-05 | 2.8849e-05 |   0.0 |  0.00
Modify  | 0.012048   | 0.012048   | 0.012048   |   0.0 |  0.55
Other   |            | 0.006011   |            |       |  0.27

Nlocal:    348 ave 348 max 348 min
Histogram: 1 0 0 0 0 0 0 0 0 0
Nghost:    25 ave 25 max 25 min
Histogram: 1 0 0 0 0 0 0 0 0 0
Neighs:    14214 ave 14214 max 14214 min
Histogram: 1 0 0 0 0 0 0 0 0 0

Total # of neighbors = 14214
Ave neighs/atom = 40.8448
Ave special neighs/atom = 11.0575
Neighbor list builds = 62
Dangerous builds = 0
unfix pysimm_md
min_style cg
minimize 0.001 0.001 10000 100000
WARNING: Using 'neigh_modify every 1 delay 0 check yes' setting during minimization (../min.cpp:190)
PPPM initialization ...
  using 12-bit tables for long-range coulomb (../kspace.cpp:332)
  G vector (1/distance) = 0.0679841
  grid = 12 12 12
  stencil order = 5
  estimated absolute RMS force accuracy = 0.037123
  estimated relative force accuracy = 0.000111795
  using double precision KISS FFT
  3d grid and FFT values/proc = 4913 1728
Per MPI rank memory allocation (min/avg/max) = 19.38 | 19.38 | 19.38 Mbytes
Step Temp E_pair E_mol TotEng Press 
    2000    352.65118     149.6291    789.98095    1304.3717   0.60293526 
    2026    352.65118    131.17845    491.83383    987.77388    2.0220284 
Loop time of 0.140809 on 1 procs for 26 steps with 348 atoms

100.1% CPU use with 1 MPI tasks x no OpenMP threads

Minimization stats:
  Stopping criterion = linesearch alpha is zero
  Energy initial, next-to-last, final = 
         939.610057071      623.012275831      623.012275831
  Force two-norm initial, final = 643.309 38.7042
  Force max component initial, final = 105.495 5.77931
  Final line search alpha, max atom move = 5.43517e-12 3.14115e-11
  Iterations, force evaluations = 26 109

MPI task timing breakdown:
Section |  min time  |  avg time  |  max time  |%varavg| %total
---------------------------------------------------------------
Pair    | 0.056944   | 0.056944   | 0.056944   |   0.0 | 40.44
Bond    | 0.018991   | 0.018991   | 0.018991   |   0.0 | 13.49
Kspace  | 0.063411   | 0.063411   | 0.063411   |   0.0 | 45.03
Neigh   | 0.00053406 | 0.00053406 | 0.00053406 |   0.0 |  0.38
Comm    | 8.0109e-05 | 8.0109e-05 | 8.0109e-05 |   0.0 |  0.06
Output  | 0          | 0          | 0          |   0.0 |  0.00
Modify  | 0          | 0          | 0          |   0.0 |  0.00
Other   |            | 0.0008497  |            |       |  0.60

Nlocal:    348 ave 348 max 348 min
Histogram: 1 0 0 0 0 0 0 0 0 0
Nghost:    24 ave 24 max 24 min
Histogram: 1 0 0 0 0 0 0 0 0 0
Neighs:    14199 ave 14199 max 14199 min
Histogram: 1 0 0 0 0 0 0 0 0 0

Total # of neighbors = 14199
Ave neighs/atom = 40.8017
Ave special neighs/atom = 11.0575
Neighbor list builds = 1
Dangerous builds = 0
write_dump all custom pysimm.dump.tmp id q x y z vx vy vz
quit


################################################################################
##################################    Init    ##################################
################################################################################
units           real
atom_style      full
pair_style      lj/cut/coul/long 12.0  12.0
kspace_style    pppm 1e-4
bond_style      harmonic
angle_style     harmonic
dihedral_style  fourier
improper_style  cvff
special_bonds   amber
pair_modify     mix arithmetic
read_data       temp.lmps
  orthogonal box = (-108.105 -108.105 -108.105) to (108.105 108.105 108.105)
  1 by 1 by 1 MPI processor grid
  reading atoms ...
  406 atoms
  reading velocities ...
  406 velocities
  scanning bonds ...
  3 = max bonds/atom
  scanning angles ...
  6 = max angles/atom
  scanning dihedrals ...
  24 = max dihedrals/atom
  scanning impropers ...
  2 = max impropers/atom
  reading bonds ...
  447 bonds
  reading angles ...
  759 angles
  reading dihedrals ...
  1190 dihedrals
  reading impropers ...
  140 impropers
  4 = max # of 1-2 neighbors
  10 = max # of 1-3 neighbors
  19 = max # of 1-4 neighbors
  22 = max # of special neighbors
  special bonds CPU = 0.000517845 secs
  read_data CPU = 0.00677705 secs
################################################################################

timestep        1
fix             pysimm_md all nve/limit 0.1
run             2000
PPPM initialization ...
WARNING: System is not charge neutral, net charge = 2.1e-05 (../kspace.cpp:313)
  using 12-bit tables for long-range coulomb (../kspace.cpp:332)
  G vector (1/distance) = 0.0813242
  grid = 15 15 15
  stencil order = 5
  estimated absolute RMS force accuracy = 0.0300979
  estimated relative force accuracy = 9.0639e-05
  using double precision KISS FFT
  3d grid and FFT values/proc = 8000 3375
Neighbor list info ...
  update every 1 steps, delay 10 steps, check yes
  max neighbors/atom: 2000, page size: 100000
  master list distance cutoff = 14
  ghost atom cutoff = 14
  binsize = 7, bins = 31 31 31
  1 neighbor lists, perpetual/occasional/extra = 1 0 0
  (1) pair lj/cut/coul/long, perpetual
      attributes: half, newton on
      pair build: half/bin/newton
      stencil: half/bin/3d/newton
      bin: standard
Per MPI rank memory allocation (min/avg/max) = 18.52 | 18.52 | 18.52 Mbytes
Step Temp E_pair E_mol TotEng Press 
       0    304.16272    5297.7721    839.62297    6504.5889    141.22274 
    2000    359.97876    189.20051    907.58655    1531.3635  -0.31863294 
Loop time of 3.18493 on 1 procs for 2000 steps with 406 atoms

Performance: 54.255 ns/day, 0.442 hours/ns, 627.957 timesteps/s
100.0% CPU use with 1 MPI tasks x no OpenMP threads

MPI task timing breakdown:
Section |  min time  |  avg time  |  max time  |%varavg| %total
---------------------------------------------------------------
Pair    | 0.77833    | 0.77833    | 0.77833    |   0.0 | 24.44
Bond    | 0.37208    | 0.37208    | 0.37208    |   0.0 | 11.68
Kspace  | 1.9628     | 1.9628     | 1.9628     |   0.0 | 61.63
Neigh   | 0.048434   | 0.048434   | 0.048434   |   0.0 |  1.52
Comm    | 0.0033426  | 0.0033426  | 0.0033426  |   0.0 |  0.10
Output  | 2.9087e-05 | 2.9087e-05 | 2.9087e-05 |   0.0 |  0.00
Modify  | 0.01348    | 0.01348    | 0.01348    |   0.0 |  0.42
Other   |            | 0.006385   |            |       |  0.20

Nlocal:    406 ave 406 max 406 min
Histogram: 1 0 0 0 0 0 0 0 0 0
Nghost:    151 ave 151 max 151 min
Histogram: 1 0 0 0 0 0 0 0 0 0
Neighs:    16946 ave 16946 max 16946 min
Histogram: 1 0 0 0 0 0 0 0 0 0

Total # of neighbors = 16946
Ave neighs/atom = 41.7389
Ave special neighs/atom = 11.0739
Neighbor list builds = 77
Dangerous builds = 0
unfix pysimm_md
min_style cg
minimize 0.001 0.001 10000 100000
WARNING: Using 'neigh_modify every 1 delay 0 check yes' setting during minimization (../min.cpp:190)
PPPM initialization ...
  using 12-bit tables for long-range coulomb (../kspace.cpp:332)
  G vector (1/distance) = 0.0813242
  grid = 15 15 15
  stencil order = 5
  estimated absolute RMS force accuracy = 0.0300979
  estimated relative force accuracy = 9.0639e-05
  using double precision KISS FFT
  3d grid and FFT values/proc = 8000 3375
Per MPI rank memory allocation (min/avg/max) = 19.65 | 19.65 | 19.65 Mbytes
Step Temp E_pair E_mol TotEng Press 
    2000    359.97876    189.20051    907.58655    1531.3635  -0.31863294 
    2029    359.97876    169.30034    580.10649    1183.9833    2.4206245 
Loop time of 0.108497 on 1 procs for 29 steps with 406 atoms

99.5% CPU use with 1 MPI tasks x no OpenMP threads

Minimization stats:
  Stopping criterion = energy tolerance
  Energy initial, next-to-last, final = 
         1096.78706643      749.702765729      749.406833054
  Force two-norm initial, final = 704.321 37.664
  Force max component initial, final = 136.395 4.7263
  Final line search alpha, max atom move = 0.00471776 0.0222975
  Iterations, force evaluations = 29 58

MPI task timing breakdown:
Section |  min time  |  avg time  |  max time  |%varavg| %total
---------------------------------------------------------------
Pair    | 0.037276   | 0.037276   | 0.037276   |   0.0 | 34.36
Bond    | 0.01213    | 0.01213    | 0.01213    |   0.0 | 11.18
Kspace  | 0.058191   | 0.058191   | 0.058191   |   0.0 | 53.63
Neigh   | 0          | 0          | 0          |   0.0 |  0.00
Comm    | 0.00017095 | 0.00017095 | 0.00017095 |   0.0 |  0.16
Output  | 0          | 0          | 0          |   0.0 |  0.00
Modify  | 0          | 0          | 0          |   0.0 |  0.00
Other   |            | 0.0007288  |            |       |  0.67

Nlocal:    406 ave 406 max 406 min
Histogram: 1 0 0 0 0 0 0 0 0 0
Nghost:    152 ave 152 max 152 min
Histogram: 1 0 0 0 0 0 0 0 0 0
Neighs:    16963 ave 16963 max 16963 min
Histogram: 1 0 0 0 0 0 0 0 0 0

Total # of neighbors = 16963
Ave neighs/atom = 41.7808
Ave special neighs/atom = 11.0739
Neighbor list builds = 0
Dangerous builds = 0
write_dump all custom pysimm.dump.tmp id q x y z vx vy vz
quit


################################################################################
##################################    Init    ##################################
################################################################################
units           real
atom_style      full
pair_style      lj/cut/coul/long 12.0  12.0
kspace_style    pppm 1e-4
bond_style      harmonic
angle_style     harmonic
dihedral_style  fourier
improper_style  cvff
special_bonds   amber
pair_modify     mix arithmetic
read_data       temp.lmps
  orthogonal box = (-108.105 -108.105 -108.105) to (108.105 108.105 108.105)
  1 by 1 by 1 MPI processor grid
  reading atoms ...
  464 atoms
  reading velocities ...
  464 velocities
  scanning bonds ...
  3 = max bonds/atom
  scanning angles ...
  6 = max angles/atom
  scanning dihedrals ...
  24 = max dihedrals/atom
  scanning impropers ...
  2 = max impropers/atom
  reading bonds ...
  511 bonds
  reading angles ...
  868 angles
  reading dihedrals ...
  1362 dihedrals
  reading impropers ...
  160 impropers
  4 = max # of 1-2 neighbors
  10 = max # of 1-3 neighbors
  19 = max # of 1-4 neighbors
  22 = max # of special neighbors
  special bonds CPU = 0.000557899 secs
  read_data CPU = 0.00711393 secs
################################################################################

timestep        1
fix             pysimm_md all nve/limit 0.1
run             2000
PPPM initialization ...
WARNING: System is not charge neutral, net charge = 2.4e-05 (../kspace.cpp:313)
  using 12-bit tables for long-range coulomb (../kspace.cpp:332)
  G vector (1/distance) = 0.0813244
  grid = 15 15 15
  stencil order = 5
  estimated absolute RMS force accuracy = 0.0321763
  estimated relative force accuracy = 9.6898e-05
  using double precision KISS FFT
  3d grid and FFT values/proc = 8000 3375
Neighbor list info ...
  update every 1 steps, delay 10 steps, check yes
  max neighbors/atom: 2000, page size: 100000
  master list distance cutoff = 14
  ghost atom cutoff = 14
  binsize = 7, bins = 31 31 31
  1 neighbor lists, perpetual/occasional/extra = 1 0 0
  (1) pair lj/cut/coul/long, perpetual
      attributes: half, newton on
      pair build: half/bin/newton
      stencil: half/bin/3d/newton
      bin: standard
Per MPI rank memory allocation (min/avg/max) = 18.54 | 18.54 | 18.54 Mbytes
Step Temp E_pair E_mol TotEng Press 
       0    316.64664 3.8307955e+10    902.07635 3.8307956e+10 1.039563e+09 
    2000    369.97196    211.59378     1072.197    1794.3946   0.41403411 
Loop time of 3.46342 on 1 procs for 2000 steps with 464 atoms

Performance: 49.893 ns/day, 0.481 hours/ns, 577.464 timesteps/s
100.0% CPU use with 1 MPI tasks x no OpenMP threads

MPI task timing breakdown:
Section |  min time  |  avg time  |  max time  |%varavg| %total
---------------------------------------------------------------
Pair    | 0.91943    | 0.91943    | 0.91943    |   0.0 | 26.55
Bond    | 0.42378    | 0.42378    | 0.42378    |   0.0 | 12.24
Kspace  | 2.031      | 2.031      | 2.031      |   0.0 | 58.64
Neigh   | 0.061589   | 0.061589   | 0.061589   |   0.0 |  1.78
Comm    | 0.0053027  | 0.0053027  | 0.0053027  |   0.0 |  0.15
Output  | 2.9802e-05 | 2.9802e-05 | 2.9802e-05 |   0.0 |  0.00
Modify  | 0.015445   | 0.015445   | 0.015445   |   0.0 |  0.45
Other   |            | 0.006876   |            |       |  0.20

Nlocal:    464 ave 464 max 464 min
Histogram: 1 0 0 0 0 0 0 0 0 0
Nghost:    271 ave 271 max 271 min
Histogram: 1 0 0 0 0 0 0 0 0 0
Neighs:    19097 ave 19097 max 19097 min
Histogram: 1 0 0 0 0 0 0 0 0 0

Total # of neighbors = 19097
Ave neighs/atom = 41.1573
Ave special neighs/atom = 11.0862
Neighbor list builds = 82
Dangerous builds = 0
unfix pysimm_md
min_style cg
minimize 0.001 0.001 10000 100000
WARNING: Using 'neigh_modify every 1 delay 0 check yes' setting during minimization (../min.cpp:190)
PPPM initialization ...
  using 12-bit tables for long-range coulomb (../kspace.cpp:332)
  G vector (1/distance) = 0.0813244
  grid = 15 15 15
  stencil order = 5
  estimated absolute RMS force accuracy = 0.0321763
  estimated relative force accuracy = 9.6898e-05
  using double precision KISS FFT
  3d grid and FFT values/proc = 8000 3375
Per MPI rank memory allocation (min/avg/max) = 19.67 | 19.67 | 19.67 Mbytes
Step Temp E_pair E_mol TotEng Press 
    2000    369.97196    211.59378     1072.197    1794.3946   0.41403411 
    2030    369.97196    182.21775    653.56503    1346.3867    2.2602072 
Loop time of 0.119132 on 1 procs for 30 steps with 464 atoms

99.9% CPU use with 1 MPI tasks x no OpenMP threads

Minimization stats:
  Stopping criterion = energy tolerance
  Energy initial, next-to-last, final = 
         1283.79074379      836.456511392      835.782775609
  Force two-norm initial, final = 771.964 42.6223
  Force max component initial, final = 125.465 8.64465
  Final line search alpha, max atom move = 0.00383486 0.033151
  Iterations, force evaluations = 30 60

MPI task timing breakdown:
Section |  min time  |  avg time  |  max time  |%varavg| %total
---------------------------------------------------------------
Pair    | 0.042942   | 0.042942   | 0.042942   |   0.0 | 36.05
Bond    | 0.014004   | 0.014004   | 0.014004   |   0.0 | 11.76
Kspace  | 0.061294   | 0.061294   | 0.061294   |   0.0 | 51.45
Neigh   | 0          | 0          | 0          |   0.0 |  0.00
Comm    | 0.00010967 | 0.00010967 | 0.00010967 |   0.0 |  0.09
Output  | 0          | 0          | 0          |   0.0 |  0.00
Modify  | 0          | 0          | 0          |   0.0 |  0.00
Other   |            | 0.0007825  |            |       |  0.66

Nlocal:    464 ave 464 max 464 min
Histogram: 1 0 0 0 0 0 0 0 0 0
Nghost:    271 ave 271 max 271 min
Histogram: 1 0 0 0 0 0 0 0 0 0
Neighs:    19100 ave 19100 max 19100 min
Histogram: 1 0 0 0 0 0 0 0 0 0

Total # of neighbors = 19100
Ave neighs/atom = 41.1638
Ave special neighs/atom = 11.0862
Neighbor list builds = 0
Dangerous builds = 0
write_dump all custom pysimm.dump.tmp id q x y z vx vy vz
quit


################################################################################
##################################    Init    ##################################
################################################################################
units           real
atom_style      full
pair_style      lj/cut/coul/long 12.0  12.0
kspace_style    pppm 1e-4
bond_style      harmonic
angle_style     harmonic
dihedral_style  fourier
improper_style  cvff
special_bonds   amber
pair_modify     mix arithmetic
read_data       temp.lmps
  orthogonal box = (-108.105 -108.105 -108.105) to (108.105 108.105 108.105)
  1 by 1 by 1 MPI processor grid
  reading atoms ...
  522 atoms
  reading velocities ...
  522 velocities
  scanning bonds ...
  3 = max bonds/atom
  scanning angles ...
  6 = max angles/atom
  scanning dihedrals ...
  24 = max dihedrals/atom
  scanning impropers ...
  2 = max impropers/atom
  reading bonds ...
  575 bonds
  reading angles ...
  977 angles
  reading dihedrals ...
  1534 dihedrals
  reading impropers ...
  180 impropers
  4 = max # of 1-2 neighbors
  10 = max # of 1-3 neighbors
  19 = max # of 1-4 neighbors
  22 = max # of special neighbors
  special bonds CPU = 0.000593901 secs
  read_data CPU = 0.00755382 secs
################################################################################

timestep        1
fix             pysimm_md all nve/limit 0.1
run             2000
PPPM initialization ...
WARNING: System is not charge neutral, net charge = 2.7e-05 (../kspace.cpp:313)
  using 12-bit tables for long-range coulomb (../kspace.cpp:332)
  G vector (1/distance) = 0.0813242
  grid = 15 15 15
  stencil order = 5
  estimated absolute RMS force accuracy = 0.0341278
  estimated relative force accuracy = 0.000102775
  using double precision KISS FFT
  3d grid and FFT values/proc = 8000 3375
Neighbor list info ...
  update every 1 steps, delay 10 steps, check yes
  max neighbors/atom: 2000, page size: 100000
  master list distance cutoff = 14
  ghost atom cutoff = 14
  binsize = 7, bins = 31 31 31
  1 neighbor lists, perpetual/occasional/extra = 1 0 0
  (1) pair lj/cut/coul/long, perpetual
      attributes: half, newton on
      pair build: half/bin/newton
      stencil: half/bin/3d/newton
      bin: standard
Per MPI rank memory allocation (min/avg/max) = 18.55 | 18.55 | 18.55 Mbytes
Step Temp E_pair E_mol TotEng Press 
       0     330.3512    11270.289    1008.1598    12791.485    302.73172 
    2000    367.64546    213.49776    1227.9227    2012.3746   -2.7110335 
Loop time of 3.70982 on 1 procs for 2000 steps with 522 atoms

Performance: 46.579 ns/day, 0.515 hours/ns, 539.110 timesteps/s
100.0% CPU use with 1 MPI tasks x no OpenMP threads

MPI task timing breakdown:
Section |  min time  |  avg time  |  max time  |%varavg| %total
---------------------------------------------------------------
Pair    | 1.0319     | 1.0319     | 1.0319     |   0.0 | 27.81
Bond    | 0.4781     | 0.4781     | 0.4781     |   0.0 | 12.89
Kspace  | 2.0926     | 2.0926     | 2.0926     |   0.0 | 56.41
Neigh   | 0.07699    | 0.07699    | 0.07699    |   0.0 |  2.08
Comm    | 0.0060935  | 0.0060935  | 0.0060935  |   0.0 |  0.16
Output  | 2.9087e-05 | 2.9087e-05 | 2.9087e-05 |   0.0 |  0.00
Modify  | 0.017283   | 0.017283   | 0.017283   |   0.0 |  0.47
Other   |            | 0.006825   |            |       |  0.18

Nlocal:    522 ave 522 max 522 min
Histogram: 1 0 0 0 0 0 0 0 0 0
Nghost:    355 ave 355 max 355 min
Histogram: 1 0 0 0 0 0 0 0 0 0
Neighs:    21720 ave 21720 max 21720 min
Histogram: 1 0 0 0 0 0 0 0 0 0

Total # of neighbors = 21720
Ave neighs/atom = 41.6092
Ave special neighs/atom = 11.0958
Neighbor list builds = 91
Dangerous builds = 0
unfix pysimm_md
min_style cg
minimize 0.001 0.001 10000 100000
WARNING: Using 'neigh_modify every 1 delay 0 check yes' setting during minimization (../min.cpp:190)
PPPM initialization ...
  using 12-bit tables for long-range coulomb (../kspace.cpp:332)
  G vector (1/distance) = 0.0813242
  grid = 15 15 15
  stencil order = 5
  estimated absolute RMS force accuracy = 0.0341278
  estimated relative force accuracy = 0.000102775
  using double precision KISS FFT
  3d grid and FFT values/proc = 8000 3375
Per MPI rank memory allocation (min/avg/max) = 19.68 | 19.68 | 19.68 Mbytes
Step Temp E_pair E_mol TotEng Press 
    2000    367.64546    213.49776    1227.9227    2012.3746   -2.7110335 
    2026    367.64546    204.73855    744.62978    1520.3225    2.6979132 
Loop time of 0.112462 on 1 procs for 26 steps with 522 atoms

99.6% CPU use with 1 MPI tasks x no OpenMP threads

Minimization stats:
  Stopping criterion = energy tolerance
  Energy initial, next-to-last, final = 
         1441.42043885      950.317285664      949.368330997
  Force two-norm initial, final = 819.883 54.5603
  Force max component initial, final = 189.051 8.18501
  Final line search alpha, max atom move = 0.00404367 0.0330975
  Iterations, force evaluations = 26 52

MPI task timing breakdown:
Section |  min time  |  avg time  |  max time  |%varavg| %total
---------------------------------------------------------------
Pair    | 0.042719   | 0.042719   | 0.042719   |   0.0 | 37.98
Bond    | 0.013804   | 0.013804   | 0.013804   |   0.0 | 12.27
Kspace  | 0.055058   | 0.055058   | 0.055058   |   0.0 | 48.96
Neigh   | 0          | 0          | 0          |   0.0 |  0.00
Comm    | 0.00013471 | 0.00013471 | 0.00013471 |   0.0 |  0.12
Output  | 0          | 0          | 0          |   0.0 |  0.00
Modify  | 0          | 0          | 0          |   0.0 |  0.00
Other   |            | 0.0007465  |            |       |  0.66

Nlocal:    522 ave 522 max 522 min
Histogram: 1 0 0 0 0 0 0 0 0 0
Nghost:    359 ave 359 max 359 min
Histogram: 1 0 0 0 0 0 0 0 0 0
Neighs:    21731 ave 21731 max 21731 min
Histogram: 1 0 0 0 0 0 0 0 0 0

Total # of neighbors = 21731
Ave neighs/atom = 41.6303
Ave special neighs/atom = 11.0958
Neighbor list builds = 0
Dangerous builds = 0
write_dump all custom pysimm.dump.tmp id q x y z vx vy vz
quit


################################################################################
##################################    Init    ##################################
################################################################################
units           real
atom_style      full
pair_style      lj/cut/coul/long 12.0  12.0
kspace_style    pppm 1e-4
bond_style      harmonic
angle_style     harmonic
dihedral_style  fourier
improper_style  cvff
special_bonds   amber
pair_modify     mix arithmetic
read_data       temp.lmps
  orthogonal box = (-108.105 -108.105 -108.105) to (108.105 108.105 108.105)
  1 by 1 by 1 MPI processor grid
  reading atoms ...
  580 atoms
  reading velocities ...
  580 velocities
  scanning bonds ...
  3 = max bonds/atom
  scanning angles ...
  6 = max angles/atom
  scanning dihedrals ...
  24 = max dihedrals/atom
  scanning impropers ...
  2 = max impropers/atom
  reading bonds ...
  639 bonds
  reading angles ...
  1086 angles
  reading dihedrals ...
  1706 dihedrals
  reading impropers ...
  200 impropers
  4 = max # of 1-2 neighbors
  10 = max # of 1-3 neighbors
  19 = max # of 1-4 neighbors
  22 = max # of special neighbors
  special bonds CPU = 0.000638008 secs
  read_data CPU = 0.00811601 secs
################################################################################

timestep        1
fix             pysimm_md all nve/limit 0.1
run             2000
PPPM initialization ...
WARNING: System is not charge neutral, net charge = 3e-05 (../kspace.cpp:313)
  using 12-bit tables for long-range coulomb (../kspace.cpp:332)
  G vector (1/distance) = 0.0813247
  grid = 15 15 15
  stencil order = 5
  estimated absolute RMS force accuracy = 0.0359747
  estimated relative force accuracy = 0.000108337
  using double precision KISS FFT
  3d grid and FFT values/proc = 8000 3375
Neighbor list info ...
  update every 1 steps, delay 10 steps, check yes
  max neighbors/atom: 2000, page size: 100000
  master list distance cutoff = 14
  ghost atom cutoff = 14
  binsize = 7, bins = 31 31 31
  1 neighbor lists, perpetual/occasional/extra = 1 0 0
  (1) pair lj/cut/coul/long, perpetual
      attributes: half, newton on
      pair build: half/bin/newton
      stencil: half/bin/3d/newton
      bin: standard
Per MPI rank memory allocation (min/avg/max) = 18.56 | 18.56 | 18.56 Mbytes
Step Temp E_pair E_mol TotEng Press 
       0    332.22664 2.1312205e+13    1155.1371 2.1312205e+13 5.7834877e+11 
    2000    428.99088    269.94582    1389.7648    2400.1013    1.0330966 
Loop time of 3.95828 on 1 procs for 2000 steps with 580 atoms

Performance: 43.655 ns/day, 0.550 hours/ns, 505.269 timesteps/s
100.0% CPU use with 1 MPI tasks x no OpenMP threads

MPI task timing breakdown:
Section |  min time  |  avg time  |  max time  |%varavg| %total
---------------------------------------------------------------
Pair    | 1.1388     | 1.1388     | 1.1388     |   0.0 | 28.77
Bond    | 0.52853    | 0.52853    | 0.52853    |   0.0 | 13.35
Kspace  | 2.1587     | 2.1587     | 2.1587     |   0.0 | 54.54
Neigh   | 0.099396   | 0.099396   | 0.099396   |   0.0 |  2.51
Comm    | 0.0070016  | 0.0070016  | 0.0070016  |   0.0 |  0.18
Output  | 2.5988e-05 | 2.5988e-05 | 2.5988e-05 |   0.0 |  0.00
Modify  | 0.019078   | 0.019078   | 0.019078   |   0.0 |  0.48
Other   |            | 0.006834   |            |       |  0.17

Nlocal:    580 ave 580 max 580 min
Histogram: 1 0 0 0 0 0 0 0 0 0
Nghost:    396 ave 396 max 396 min
Histogram: 1 0 0 0 0 0 0 0 0 0
Neighs:    24601 ave 24601 max 24601 min
Histogram: 1 0 0 0 0 0 0 0 0 0

Total # of neighbors = 24601
Ave neighs/atom = 42.4155
Ave special neighs/atom = 11.1034
Neighbor list builds = 107
Dangerous builds = 0
unfix pysimm_md
min_style cg
minimize 0.001 0.001 10000 100000
WARNING: Using 'neigh_modify every 1 delay 0 check yes' setting during minimization (../min.cpp:190)
PPPM initialization ...
  using 12-bit tables for long-range coulomb (../kspace.cpp:332)
  G vector (1/distance) = 0.0813247
  grid = 15 15 15
  stencil order = 5
  estimated absolute RMS force accuracy = 0.0359747
  estimated relative force accuracy = 0.000108337
  using double precision KISS FFT
  3d grid and FFT values/proc = 8000 3375
Per MPI rank memory allocation (min/avg/max) = 19.68 | 19.68 | 19.68 Mbytes
Step Temp E_pair E_mol TotEng Press 
    2000    428.99088    269.94582    1389.7648    2400.1013    1.0330966 
    2026    428.99088    225.05127    836.21481    1801.6567    3.7673756 
Loop time of 0.129405 on 1 procs for 26 steps with 580 atoms

97.4% CPU use with 1 MPI tasks x no OpenMP threads

Minimization stats:
  Stopping criterion = energy tolerance
  Energy initial, next-to-last, final = 
         1659.71059969         1061.88607      1061.26608527
  Force two-norm initial, final = 969.628 41.2073
  Force max component initial, final = 167.513 5.61017
  Final line search alpha, max atom move = 0.00569131 0.0319292
  Iterations, force evaluations = 26 52

MPI task timing breakdown:
Section |  min time  |  avg time  |  max time  |%varavg| %total
---------------------------------------------------------------
Pair    | 0.04893    | 0.04893    | 0.04893    |   0.0 | 37.81
Bond    | 0.015549   | 0.015549   | 0.015549   |   0.0 | 12.02
Kspace  | 0.063948   | 0.063948   | 0.063948   |   0.0 | 49.42
Neigh   | 0          | 0          | 0          |   0.0 |  0.00
Comm    | 0.00014353 | 0.00014353 | 0.00014353 |   0.0 |  0.11
Output  | 0          | 0          | 0          |   0.0 |  0.00
Modify  | 0          | 0          | 0          |   0.0 |  0.00
Other   |            | 0.0008342  |            |       |  0.64

Nlocal:    580 ave 580 max 580 min
Histogram: 1 0 0 0 0 0 0 0 0 0
Nghost:    394 ave 394 max 394 min
Histogram: 1 0 0 0 0 0 0 0 0 0
Neighs:    24609 ave 24609 max 24609 min
Histogram: 1 0 0 0 0 0 0 0 0 0

Total # of neighbors = 24609
Ave neighs/atom = 42.4293
Ave special neighs/atom = 11.1034
Neighbor list builds = 0
Dangerous builds = 0
write_dump all custom pysimm.dump.tmp id q x y z vx vy vz
quit


################################################################################
##################################    Init    ##################################
################################################################################
units           real
atom_style      full
pair_style      lj/cut/coul/long 12.0  12.0
kspace_style    pppm 1e-4
bond_style      harmonic
angle_style     harmonic
dihedral_style  fourier
improper_style  cvff
special_bonds   amber
pair_modify     mix arithmetic
read_data       temp.lmps
  orthogonal box = (-136.203 -136.203 -136.203) to (136.203 136.203 136.203)
  1 by 1 by 1 MPI processor grid
  reading atoms ...
  638 atoms
  reading velocities ...
  638 velocities
  scanning bonds ...
  3 = max bonds/atom
  scanning angles ...
  6 = max angles/atom
  scanning dihedrals ...
  24 = max dihedrals/atom
  scanning impropers ...
  2 = max impropers/atom
  reading bonds ...
  703 bonds
  reading angles ...
  1195 angles
  reading dihedrals ...
  1878 dihedrals
  reading impropers ...
  220 impropers
  4 = max # of 1-2 neighbors
  10 = max # of 1-3 neighbors
  19 = max # of 1-4 neighbors
  22 = max # of special neighbors
  special bonds CPU = 0.000684977 secs
  read_data CPU = 0.0112169 secs
################################################################################

timestep        1
fix             pysimm_md all nve/limit 0.1
run             2000
PPPM initialization ...
WARNING: System is not charge neutral, net charge = 3.3e-05 (../kspace.cpp:313)
  using 12-bit tables for long-range coulomb (../kspace.cpp:332)
  G vector (1/distance) = 0.0675418
  grid = 15 15 15
  stencil order = 5
  estimated absolute RMS force accuracy = 0.0358494
  estimated relative force accuracy = 0.000107959
  using double precision KISS FFT
  3d grid and FFT values/proc = 8000 3375
Neighbor list info ...
  update every 1 steps, delay 10 steps, check yes
  max neighbors/atom: 2000, page size: 100000
  master list distance cutoff = 14
  ghost atom cutoff = 14
  binsize = 7, bins = 39 39 39
  1 neighbor lists, perpetual/occasional/extra = 1 0 0
  (1) pair lj/cut/coul/long, perpetual
      attributes: half, newton on
      pair build: half/bin/newton
      stencil: half/bin/3d/newton
      bin: standard
Per MPI rank memory allocation (min/avg/max) = 18.69 | 18.69 | 18.69 Mbytes
Step Temp E_pair E_mol TotEng Press 
       0    391.21125    239.24451    224192.87    225174.94   -531.92158 
    2000    1277.1992    343.96311    2345.9371    5115.0153   -1.5706735 
Loop time of 4.31831 on 1 procs for 2000 steps with 638 atoms

Performance: 40.016 ns/day, 0.600 hours/ns, 463.144 timesteps/s
100.0% CPU use with 1 MPI tasks x no OpenMP threads

MPI task timing breakdown:
Section |  min time  |  avg time  |  max time  |%varavg| %total
---------------------------------------------------------------
Pair    | 1.3057     | 1.3057     | 1.3057     |   0.0 | 30.24
Bond    | 0.58128    | 0.58128    | 0.58128    |   0.0 | 13.46
Kspace  | 2.2415     | 2.2415     | 2.2415     |   0.0 | 51.91
Neigh   | 0.16148    | 0.16148    | 0.16148    |   0.0 |  3.74
Comm    | 0.002439   | 0.002439   | 0.002439   |   0.0 |  0.06
Output  | 2.7895e-05 | 2.7895e-05 | 2.7895e-05 |   0.0 |  0.00
Modify  | 0.020988   | 0.020988   | 0.020988   |   0.0 |  0.49
Other   |            | 0.004948   |            |       |  0.11

Nlocal:    638 ave 638 max 638 min
Histogram: 1 0 0 0 0 0 0 0 0 0
Nghost:    0 ave 0 max 0 min
Histogram: 1 0 0 0 0 0 0 0 0 0
Neighs:    30911 ave 30911 max 30911 min
Histogram: 1 0 0 0 0 0 0 0 0 0

Total # of neighbors = 30911
Ave neighs/atom = 48.4498
Ave special neighs/atom = 11.1097
Neighbor list builds = 160
Dangerous builds = 0
unfix pysimm_md
min_style cg
minimize 0.001 0.001 10000 100000
WARNING: Using 'neigh_modify every 1 delay 0 check yes' setting during minimization (../min.cpp:190)
PPPM initialization ...
  using 12-bit tables for long-range coulomb (../kspace.cpp:332)
  G vector (1/distance) = 0.0675418
  grid = 15 15 15
  stencil order = 5
  estimated absolute RMS force accuracy = 0.0358494
  estimated relative force accuracy = 0.000107959
  using double precision KISS FFT
  3d grid and FFT values/proc = 8000 3375
Per MPI rank memory allocation (min/avg/max) = 19.82 | 19.82 | 19.82 Mbytes
Step Temp E_pair E_mol TotEng Press 
    2000    1277.1992    343.96311    2345.9371    5115.0153   -1.5706735 
    2049    1277.1992    246.93292    1039.2004    3711.2484    3.8074438 
Loop time of 0.4098 on 1 procs for 49 steps with 638 atoms

100.0% CPU use with 1 MPI tasks x no OpenMP threads

Minimization stats:
  Stopping criterion = linesearch alpha is zero
  Energy initial, next-to-last, final = 
         2689.90020664       1286.1332735       1286.1332735
  Force two-norm initial, final = 1243.75 75.9398
  Force max component initial, final = 183.517 9.02044
  Final line search alpha, max atom move = 1.12186e-12 1.01197e-11
  Iterations, force evaluations = 49 159

MPI task timing breakdown:
Section |  min time  |  avg time  |  max time  |%varavg| %total
---------------------------------------------------------------
Pair    | 0.1822     | 0.1822     | 0.1822     |   0.0 | 44.46
Bond    | 0.050348   | 0.050348   | 0.050348   |   0.0 | 12.29
Kspace  | 0.17286    | 0.17286    | 0.17286    |   0.0 | 42.18
Neigh   | 0.0021551  | 0.0021551  | 0.0021551  |   0.0 |  0.53
Comm    | 7.987e-05  | 7.987e-05  | 7.987e-05  |   0.0 |  0.02
Output  | 0          | 0          | 0          |   0.0 |  0.00
Modify  | 0          | 0          | 0          |   0.0 |  0.00
Other   |            | 0.002158   |            |       |  0.53

Nlocal:    638 ave 638 max 638 min
Histogram: 1 0 0 0 0 0 0 0 0 0
Nghost:    0 ave 0 max 0 min
Histogram: 1 0 0 0 0 0 0 0 0 0
Neighs:    30928 ave 30928 max 30928 min
Histogram: 1 0 0 0 0 0 0 0 0 0

Total # of neighbors = 30928
Ave neighs/atom = 48.4765
Ave special neighs/atom = 11.1097
Neighbor list builds = 2
Dangerous builds = 0
write_dump all custom pysimm.dump.tmp id q x y z vx vy vz
quit


################################################################################
##################################    Init    ##################################
################################################################################
units           real
atom_style      full
pair_style      lj/cut/coul/long 12.0  12.0
kspace_style    pppm 1e-4
bond_style      harmonic
angle_style     harmonic
dihedral_style  fourier
improper_style  cvff
special_bonds   amber
pair_modify     mix arithmetic
read_data       temp.lmps
  orthogonal box = (-140.6 -140.6 -140.6) to (140.6 140.6 140.6)
  1 by 1 by 1 MPI processor grid
  reading atoms ...
  696 atoms
  reading velocities ...
  696 velocities
  scanning bonds ...
  3 = max bonds/atom
  scanning angles ...
  6 = max angles/atom
  scanning dihedrals ...
  24 = max dihedrals/atom
  scanning impropers ...
  2 = max impropers/atom
  reading bonds ...
  767 bonds
  reading angles ...
  1304 angles
  reading dihedrals ...
  2050 dihedrals
  reading impropers ...
  240 impropers
  4 = max # of 1-2 neighbors
  10 = max # of 1-3 neighbors
  19 = max # of 1-4 neighbors
  22 = max # of special neighbors
  special bonds CPU = 0.000715017 secs
  read_data CPU = 0.00925708 secs
################################################################################

timestep        1
fix             pysimm_md all nve/limit 0.1
run             2000
PPPM initialization ...
WARNING: System is not charge neutral, net charge = 3.6e-05 (../kspace.cpp:313)
  using 12-bit tables for long-range coulomb (../kspace.cpp:332)
  G vector (1/distance) = 0.0657876
  grid = 15 15 15
  stencil order = 5
  estimated absolute RMS force accuracy = 0.0369237
  estimated relative force accuracy = 0.000111195
  using double precision KISS FFT
  3d grid and FFT values/proc = 8000 3375
Neighbor list info ...
  update every 1 steps, delay 10 steps, check yes
  max neighbors/atom: 2000, page size: 100000
  master list distance cutoff = 14
  ghost atom cutoff = 14
  binsize = 7, bins = 41 41 41
  1 neighbor lists, perpetual/occasional/extra = 1 0 0
  (1) pair lj/cut/coul/long, perpetual
      attributes: half, newton on
      pair build: half/bin/newton
      stencil: half/bin/3d/newton
      bin: standard
Per MPI rank memory allocation (min/avg/max) = 18.75 | 18.75 | 18.75 Mbytes
Step Temp E_pair E_mol TotEng Press 
       0     1171.787    262.95306    470827.79    473518.29   -1000.8305 
    2000    1619.6242    410.07556    2735.6362    6501.0272    2.1715361 
Loop time of 4.92924 on 1 procs for 2000 steps with 696 atoms

Performance: 35.056 ns/day, 0.685 hours/ns, 405.742 timesteps/s
100.0% CPU use with 1 MPI tasks x no OpenMP threads

MPI task timing breakdown:
Section |  min time  |  avg time  |  max time  |%varavg| %total
---------------------------------------------------------------
Pair    | 1.6515     | 1.6515     | 1.6515     |   0.0 | 33.50
Bond    | 0.63541    | 0.63541    | 0.63541    |   0.0 | 12.89
Kspace  | 2.3943     | 2.3943     | 2.3943     |   0.0 | 48.57
Neigh   | 0.21692    | 0.21692    | 0.21692    |   0.0 |  4.40
Comm    | 0.0028009  | 0.0028009  | 0.0028009  |   0.0 |  0.06
Output  | 3.0994e-05 | 3.0994e-05 | 3.0994e-05 |   0.0 |  0.00
Modify  | 0.023354   | 0.023354   | 0.023354   |   0.0 |  0.47
Other   |            | 0.004891   |            |       |  0.10

Nlocal:    696 ave 696 max 696 min
Histogram: 1 0 0 0 0 0 0 0 0 0
Nghost:    0 ave 0 max 0 min
Histogram: 1 0 0 0 0 0 0 0 0 0
Neighs:    36226 ave 36226 max 36226 min
Histogram: 1 0 0 0 0 0 0 0 0 0

Total # of neighbors = 36226
Ave neighs/atom = 52.0489
Ave special neighs/atom = 11.1149
Neighbor list builds = 175
Dangerous builds = 0
unfix pysimm_md
min_style cg
minimize 0.001 0.001 10000 100000
WARNING: Using 'neigh_modify every 1 delay 0 check yes' setting during minimization (../min.cpp:190)
PPPM initialization ...
  using 12-bit tables for long-range coulomb (../kspace.cpp:332)
  G vector (1/distance) = 0.0657876
  grid = 15 15 15
  stencil order = 5
  estimated absolute RMS force accuracy = 0.0369237
  estimated relative force accuracy = 0.000111195
  using double precision KISS FFT
  3d grid and FFT values/proc = 8000 3375
Per MPI rank memory allocation (min/avg/max) = 19.87 | 19.87 | 19.87 Mbytes
Step Temp E_pair E_mol TotEng Press 
    2000    1619.6242    410.07556    2735.6362    6501.0272    2.1715361 
    2035    1619.6242    285.77692    1117.8194    4758.9118    7.0892859 
Loop time of 0.376149 on 1 procs for 35 steps with 696 atoms

99.9% CPU use with 1 MPI tasks x no OpenMP threads

Minimization stats:
  Stopping criterion = linesearch alpha is zero
  Energy initial, next-to-last, final = 
         3145.71171965      1403.59635935      1403.59635935
  Force two-norm initial, final = 1352.18 80.7559
  Force max component initial, final = 162.73 11.358
  Final line search alpha, max atom move = 1.76745e-12 2.00747e-11
  Iterations, force evaluations = 35 130

MPI task timing breakdown:
Section |  min time  |  avg time  |  max time  |%varavg| %total
---------------------------------------------------------------
Pair    | 0.17415    | 0.17415    | 0.17415    |   0.0 | 46.30
Bond    | 0.04524    | 0.04524    | 0.04524    |   0.0 | 12.03
Kspace  | 0.15223    | 0.15223    | 0.15223    |   0.0 | 40.47
Neigh   | 0.0026331  | 0.0026331  | 0.0026331  |   0.0 |  0.70
Comm    | 5.9128e-05 | 5.9128e-05 | 5.9128e-05 |   0.0 |  0.02
Output  | 0          | 0          | 0          |   0.0 |  0.00
Modify  | 0          | 0          | 0          |   0.0 |  0.00
Other   |            | 0.001842   |            |       |  0.49

Nlocal:    696 ave 696 max 696 min
Histogram: 1 0 0 0 0 0 0 0 0 0
Nghost:    0 ave 0 max 0 min
Histogram: 1 0 0 0 0 0 0 0 0 0
Neighs:    36143 ave 36143 max 36143 min
Histogram: 1 0 0 0 0 0 0 0 0 0

Total # of neighbors = 36143
Ave neighs/atom = 51.9296
Ave special neighs/atom = 11.1149
Neighbor list builds = 2
Dangerous builds = 0
write_dump all custom pysimm.dump.tmp id q x y z vx vy vz
quit


################################################################################
##################################    Init    ##################################
################################################################################
units           real
atom_style      full
pair_style      lj/cut/coul/long 12.0  12.0
kspace_style    pppm 1e-4
bond_style      harmonic
angle_style     harmonic
dihedral_style  fourier
improper_style  cvff
special_bonds   amber
pair_modify     mix arithmetic
read_data       temp.lmps
  orthogonal box = (-144.738 -144.738 -144.738) to (144.738 144.738 144.738)
  1 by 1 by 1 MPI processor grid
  reading atoms ...
  754 atoms
  reading velocities ...
  754 velocities
  scanning bonds ...
  3 = max bonds/atom
  scanning angles ...
  6 = max angles/atom
  scanning dihedrals ...
  24 = max dihedrals/atom
  scanning impropers ...
  2 = max impropers/atom
  reading bonds ...
  831 bonds
  reading angles ...
  1413 angles
  reading dihedrals ...
  2222 dihedrals
  reading impropers ...
  260 impropers
  4 = max # of 1-2 neighbors
  10 = max # of 1-3 neighbors
  19 = max # of 1-4 neighbors
  22 = max # of special neighbors
  special bonds CPU = 0.000754118 secs
  read_data CPU = 0.0097878 secs
################################################################################

timestep        1
fix             pysimm_md all nve/limit 0.1
run             2000
PPPM initialization ...
WARNING: System is not charge neutral, net charge = 3.9e-05 (../kspace.cpp:313)
  using 12-bit tables for long-range coulomb (../kspace.cpp:332)
  G vector (1/distance) = 0.0642185
  grid = 15 15 15
  stencil order = 5
  estimated absolute RMS force accuracy = 0.0378987
  estimated relative force accuracy = 0.000114131
  using double precision KISS FFT
  3d grid and FFT values/proc = 8000 3375
Neighbor list info ...
  update every 1 steps, delay 10 steps, check yes
  max neighbors/atom: 2000, page size: 100000
  master list distance cutoff = 14
  ghost atom cutoff = 14
  binsize = 7, bins = 42 42 42
  1 neighbor lists, perpetual/occasional/extra = 1 0 0
  (1) pair lj/cut/coul/long, perpetual
      attributes: half, newton on
      pair build: half/bin/newton
      stencil: half/bin/3d/newton
      bin: standard
Per MPI rank memory allocation (min/avg/max) = 18.78 | 18.78 | 18.78 Mbytes
Step Temp E_pair E_mol TotEng Press 
       0     1495.956    301.39153    215717.29    219376.43   -421.49437 
    2000    1360.9021    404.04406    2767.3901    6226.0468  0.037274872 
Loop time of 5.25603 on 1 procs for 2000 steps with 754 atoms

Performance: 32.877 ns/day, 0.730 hours/ns, 380.516 timesteps/s
100.0% CPU use with 1 MPI tasks x no OpenMP threads

MPI task timing breakdown:
Section |  min time  |  avg time  |  max time  |%varavg| %total
---------------------------------------------------------------
Pair    | 1.8704     | 1.8704     | 1.8704     |   0.0 | 35.59
Bond    | 0.69301    | 0.69301    | 0.69301    |   0.0 | 13.18
Kspace  | 2.4199     | 2.4199     | 2.4199     |   0.0 | 46.04
Neigh   | 0.23872    | 0.23872    | 0.23872    |   0.0 |  4.54
Comm    | 0.0031505  | 0.0031505  | 0.0031505  |   0.0 |  0.06
Output  | 2.9802e-05 | 2.9802e-05 | 2.9802e-05 |   0.0 |  0.00
Modify  | 0.025506   | 0.025506   | 0.025506   |   0.0 |  0.49
Other   |            | 0.005334   |            |       |  0.10

Nlocal:    754 ave 754 max 754 min
Histogram: 1 0 0 0 0 0 0 0 0 0
Nghost:    0 ave 0 max 0 min
Histogram: 1 0 0 0 0 0 0 0 0 0
Neighs:    38055 ave 38055 max 38055 min
Histogram: 1 0 0 0 0 0 0 0 0 0

Total # of neighbors = 38055
Ave neighs/atom = 50.4708
Ave special neighs/atom = 11.1194
Neighbor list builds = 167
Dangerous builds = 0
unfix pysimm_md
min_style cg
minimize 0.001 0.001 10000 100000
WARNING: Using 'neigh_modify every 1 delay 0 check yes' setting during minimization (../min.cpp:190)
PPPM initialization ...
  using 12-bit tables for long-range coulomb (../kspace.cpp:332)
  G vector (1/distance) = 0.0642185
  grid = 15 15 15
  stencil order = 5
  estimated absolute RMS force accuracy = 0.0378987
  estimated relative force accuracy = 0.000114131
  using double precision KISS FFT
  3d grid and FFT values/proc = 8000 3375
Per MPI rank memory allocation (min/avg/max) = 19.9 | 19.9 | 19.9 Mbytes
Step Temp E_pair E_mol TotEng Press 
    2000    1360.9021    404.04406    2767.3901    6226.0468  0.037274872 
    2040    1360.9021    329.32892    1242.8982    4626.8398    5.3583441 
Loop time of 0.237416 on 1 procs for 40 steps with 754 atoms

100.2% CPU use with 1 MPI tasks x no OpenMP threads

Minimization stats:
  Stopping criterion = energy tolerance
  Energy initial, next-to-last, final = 
         3171.43419036      1573.20068246      1572.22709568
  Force two-norm initial, final = 1423.38 72.6262
  Force max component initial, final = 162.099 7.05446
  Final line search alpha, max atom move = 0.00281335 0.0198466
  Iterations, force evaluations = 40 79

MPI task timing breakdown:
Section |  min time  |  avg time  |  max time  |%varavg| %total
---------------------------------------------------------------
Pair    | 0.107      | 0.107      | 0.107      |   0.0 | 45.07
Bond    | 0.029993   | 0.029993   | 0.029993   |   0.0 | 12.63
Kspace  | 0.097454   | 0.097454   | 0.097454   |   0.0 | 41.05
Neigh   | 0.001384   | 0.001384   | 0.001384   |   0.0 |  0.58
Comm    | 4.3392e-05 | 4.3392e-05 | 4.3392e-05 |   0.0 |  0.02
Output  | 0          | 0          | 0          |   0.0 |  0.00
Modify  | 0          | 0          | 0          |   0.0 |  0.00
Other   |            | 0.001537   |            |       |  0.65

Nlocal:    754 ave 754 max 754 min
Histogram: 1 0 0 0 0 0 0 0 0 0
Nghost:    0 ave 0 max 0 min
Histogram: 1 0 0 0 0 0 0 0 0 0
Neighs:    37931 ave 37931 max 37931 min
Histogram: 1 0 0 0 0 0 0 0 0 0

Total # of neighbors = 37931
Ave neighs/atom = 50.3064
Ave special neighs/atom = 11.1194
Neighbor list builds = 1
Dangerous builds = 0
write_dump all custom pysimm.dump.tmp id q x y z vx vy vz
quit


################################################################################
##################################    Init    ##################################
################################################################################
units           real
atom_style      full
pair_style      lj/cut/coul/long 12.0  12.0
kspace_style    pppm 1e-4
bond_style      harmonic
angle_style     harmonic
dihedral_style  fourier
improper_style  cvff
special_bonds   amber
pair_modify     mix arithmetic
read_data       temp.lmps
  orthogonal box = (-148.651 -148.651 -148.651) to (148.651 148.651 148.651)
  1 by 1 by 1 MPI processor grid
  reading atoms ...
  812 atoms
  reading velocities ...
  812 velocities
  scanning bonds ...
  3 = max bonds/atom
  scanning angles ...
  6 = max angles/atom
  scanning dihedrals ...
  24 = max dihedrals/atom
  scanning impropers ...
  2 = max impropers/atom
  reading bonds ...
  895 bonds
  reading angles ...
  1522 angles
  reading dihedrals ...
  2394 dihedrals
  reading impropers ...
  280 impropers
  4 = max # of 1-2 neighbors
  10 = max # of 1-3 neighbors
  19 = max # of 1-4 neighbors
  22 = max # of special neighbors
  special bonds CPU = 0.000791788 secs
  read_data CPU = 0.0103221 secs
################################################################################

timestep        1
fix             pysimm_md all nve/limit 0.1
run             2000
PPPM initialization ...
WARNING: System is not charge neutral, net charge = 4.2e-05 (../kspace.cpp:313)
  using 12-bit tables for long-range coulomb (../kspace.cpp:332)
  G vector (1/distance) = 0.066273
  grid = 16 16 16
  stencil order = 5
  estimated absolute RMS force accuracy = 0.0363493
  estimated relative force accuracy = 0.000109465
  using double precision KISS FFT
  3d grid and FFT values/proc = 9261 4096
Neighbor list info ...
  update every 1 steps, delay 10 steps, check yes
  max neighbors/atom: 2000, page size: 100000
  master list distance cutoff = 14
  ghost atom cutoff = 14
  binsize = 7, bins = 43 43 43
  1 neighbor lists, perpetual/occasional/extra = 1 0 0
  (1) pair lj/cut/coul/long, perpetual
      attributes: half, newton on
      pair build: half/bin/newton
      stencil: half/bin/3d/newton
      bin: standard
Per MPI rank memory allocation (min/avg/max) = 18.92 | 18.92 | 18.92 Mbytes
Step Temp E_pair E_mol TotEng Press 
       0    1264.5812    337.78555    346456.78    349851.62   -623.41845 
    2000    1381.7142    527.59024    3763.1171    7630.9142    3.0476707 
Loop time of 6.22796 on 1 procs for 2000 steps with 812 atoms

Performance: 27.746 ns/day, 0.865 hours/ns, 321.133 timesteps/s
100.0% CPU use with 1 MPI tasks x no OpenMP threads

MPI task timing breakdown:
Section |  min time  |  avg time  |  max time  |%varavg| %total
---------------------------------------------------------------
Pair    | 2.4643     | 2.4643     | 2.4643     |   0.0 | 39.57
Bond    | 0.74103    | 0.74103    | 0.74103    |   0.0 | 11.90
Kspace  | 2.6718     | 2.6718     | 2.6718     |   0.0 | 42.90
Neigh   | 0.31545    | 0.31545    | 0.31545    |   0.0 |  5.06
Comm    | 0.0031753  | 0.0031753  | 0.0031753  |   0.0 |  0.05
Output  | 3.2187e-05 | 3.2187e-05 | 3.2187e-05 |   0.0 |  0.00
Modify  | 0.026827   | 0.026827   | 0.026827   |   0.0 |  0.43
Other   |            | 0.005374   |            |       |  0.09

Nlocal:    812 ave 812 max 812 min
Histogram: 1 0 0 0 0 0 0 0 0 0
Nghost:    0 ave 0 max 0 min
Histogram: 1 0 0 0 0 0 0 0 0 0
Neighs:    50459 ave 50459 max 50459 min
Histogram: 1 0 0 0 0 0 0 0 0 0

Total # of neighbors = 50459
Ave neighs/atom = 62.1416
Ave special neighs/atom = 11.1232
Neighbor list builds = 173
Dangerous builds = 0
unfix pysimm_md
min_style cg
minimize 0.001 0.001 10000 100000
WARNING: Using 'neigh_modify every 1 delay 0 check yes' setting during minimization (../min.cpp:190)
PPPM initialization ...
  using 12-bit tables for long-range coulomb (../kspace.cpp:332)
  G vector (1/distance) = 0.066273
  grid = 16 16 16
  stencil order = 5
  estimated absolute RMS force accuracy = 0.0363493
  estimated relative force accuracy = 0.000109465
  using double precision KISS FFT
  3d grid and FFT values/proc = 9261 4096
Per MPI rank memory allocation (min/avg/max) = 20.05 | 20.05 | 20.05 Mbytes
Step Temp E_pair E_mol TotEng Press 
    2000    1381.7142    527.59024    3763.1171    7630.9142    3.0476707 
    2044    1381.7142    329.96253    1406.3259    5076.4953    5.5827384 
Loop time of 0.308619 on 1 procs for 44 steps with 812 atoms

99.8% CPU use with 1 MPI tasks x no OpenMP threads

Minimization stats:
  Stopping criterion = energy tolerance
  Energy initial, next-to-last, final = 
         4290.70728748      1736.66838059      1736.28841612
  Force two-norm initial, final = 1780.96 92.3586
  Force max component initial, final = 185.396 13.0762
  Final line search alpha, max atom move = 0.00146123 0.0191074
  Iterations, force evaluations = 44 86

MPI task timing breakdown:
Section |  min time  |  avg time  |  max time  |%varavg| %total
---------------------------------------------------------------
Pair    | 0.15187    | 0.15187    | 0.15187    |   0.0 | 49.21
Bond    | 0.034989   | 0.034989   | 0.034989   |   0.0 | 11.34
Kspace  | 0.11648    | 0.11648    | 0.11648    |   0.0 | 37.74
Neigh   | 0.0034289  | 0.0034289  | 0.0034289  |   0.0 |  1.11
Comm    | 6.7234e-05 | 6.7234e-05 | 6.7234e-05 |   0.0 |  0.02
Output  | 0          | 0          | 0          |   0.0 |  0.00
Modify  | 0          | 0          | 0          |   0.0 |  0.00
Other   |            | 0.001783   |            |       |  0.58

Nlocal:    812 ave 812 max 812 min
Histogram: 1 0 0 0 0 0 0 0 0 0
Nghost:    0 ave 0 max 0 min
Histogram: 1 0 0 0 0 0 0 0 0 0
Neighs:    50539 ave 50539 max 50539 min
Histogram: 1 0 0 0 0 0 0 0 0 0

Total # of neighbors = 50539
Ave neighs/atom = 62.2401
Ave special neighs/atom = 11.1232
Neighbor list builds = 2
Dangerous builds = 0
write_dump all custom pysimm.dump.tmp id q x y z vx vy vz
quit


################################################################################
##################################    Init    ##################################
################################################################################
units           real
atom_style      full
pair_style      lj/cut/coul/long 12.0  12.0
kspace_style    pppm 1e-4
bond_style      harmonic
angle_style     harmonic
dihedral_style  fourier
improper_style  cvff
special_bonds   amber
pair_modify     mix arithmetic
read_data       temp.lmps
  orthogonal box = (-108.105 -108.105 -108.105) to (108.105 108.105 108.105)
  1 by 1 by 1 MPI processor grid
  reading atoms ...
  116 atoms
  reading velocities ...
  116 velocities
  scanning bonds ...
  3 = max bonds/atom
  scanning angles ...
  6 = max angles/atom
  scanning dihedrals ...
  24 = max dihedrals/atom
  scanning impropers ...
  2 = max impropers/atom
  reading bonds ...
  127 bonds
  reading angles ...
  215 angles
  reading dihedrals ...
  330 dihedrals
  reading impropers ...
  40 impropers
  4 = max # of 1-2 neighbors
  10 = max # of 1-3 neighbors
  19 = max # of 1-4 neighbors
  22 = max # of special neighbors
  special bonds CPU = 0.000319004 secs
  read_data CPU = 0.00429487 secs
################################################################################

timestep        1
fix             pysimm_md all nve/limit 0.1
run             2000
PPPM initialization ...
  using 12-bit tables for long-range coulomb (../kspace.cpp:332)
  G vector (1/distance) = 0.14617
  grid = 36 36 36
  stencil order = 5
  estimated absolute RMS force accuracy = 0.00192357
  estimated relative force accuracy = 5.79279e-06
  using double precision KISS FFT
  3d grid and FFT values/proc = 68921 46656
Neighbor list info ...
  update every 1 steps, delay 10 steps, check yes
  max neighbors/atom: 2000, page size: 100000
  master list distance cutoff = 14
  ghost atom cutoff = 14
  binsize = 7, bins = 31 31 31
  1 neighbor lists, perpetual/occasional/extra = 1 0 0
  (1) pair lj/cut/coul/long, perpetual
[...]
  using double precision KISS FFT
  3d grid and FFT values/proc = 24389 13824
Per MPI rank memory allocation (min/avg/max) = 23.33 | 23.33 | 23.33 Mbytes
Step Temp E_pair E_mol TotEng Press 
    2000    587.46696    1263.5063    9004.7584    15040.087   0.31209963 
    2022    587.46696    1051.6047    6766.8561    12590.283    1.9615066 
Loop time of 0.676354 on 1 procs for 22 steps with 2726 atoms

100.1% CPU use with 1 MPI tasks x no OpenMP threads

Minimization stats:
  Stopping criterion = energy tolerance
  Energy initial, next-to-last, final = 
         10268.2646711      7824.70333535      7818.46077984
  Force two-norm initial, final = 1770.54 205.727
  Force max component initial, final = 172.505 104.413
  Final line search alpha, max atom move = 0.00119693 0.124975
  Iterations, force evaluations = 22 43

MPI task timing breakdown:
Section |  min time  |  avg time  |  max time  |%varavg| %total
---------------------------------------------------------------
Pair    | 0.40142    | 0.40142    | 0.40142    |   0.0 | 59.35
Bond    | 0.05827    | 0.05827    | 0.05827    |   0.0 |  8.62
Kspace  | 0.20519    | 0.20519    | 0.20519    |   0.0 | 30.34
Neigh   | 0.008611   | 0.008611   | 0.008611   |   0.0 |  1.27
Comm    | 6.6996e-05 | 6.6996e-05 | 6.6996e-05 |   0.0 |  0.01
Output  | 0          | 0          | 0          |   0.0 |  0.00
Modify  | 0          | 0          | 0          |   0.0 |  0.00
Other   |            | 0.002793   |            |       |  0.41

Nlocal:    2726 ave 2726 max 2726 min
Histogram: 1 0 0 0 0 0 0 0 0 0
Nghost:    0 ave 0 max 0 min
Histogram: 1 0 0 0 0 0 0 0 0 0
Neighs:    283102 ave 283102 max 283102 min
Histogram: 1 0 0 0 0 0 0 0 0 0

Total # of neighbors = 283102
Ave neighs/atom = 103.853
Ave special neighs/atom = 11.1577
Neighbor list builds = 1
Dangerous builds = 0
write_dump all custom pysimm.dump.tmp id q x y z vx vy vz
quit


################################################################################
##################################    Init    ##################################
################################################################################
units           real
atom_style      full
pair_style      lj/cut/coul/long 12.0  12.0
kspace_style    pppm 1e-4
bond_style      harmonic
angle_style     harmonic
dihedral_style  fourier
improper_style  cvff
special_bonds   amber
pair_modify     mix arithmetic
read_data       temp.lmps
  orthogonal box = (-228.15 -228.15 -228.15) to (228.15 228.15 228.15)
  1 by 1 by 1 MPI processor grid
  reading atoms ...
  2784 atoms
  reading velocities ...
  2784 velocities
  scanning bonds ...
  3 = max bonds/atom
  scanning angles ...
  6 = max angles/atom
  scanning dihedrals ...
  24 = max dihedrals/atom
  scanning impropers ...
  2 = max impropers/atom
  reading bonds ...
  3071 bonds
  reading angles ...
  5275 angles
  reading dihedrals ...
  8242 dihedrals
  reading impropers ...
  960 impropers
  4 = max # of 1-2 neighbors
  10 = max # of 1-3 neighbors
  19 = max # of 1-4 neighbors
  22 = max # of special neighbors
  special bonds CPU = 0.00209284 secs
  read_data CPU = 0.027499 secs
################################################################################

timestep        1
fix             pysimm_md all nve/limit 0.1
run             2000
PPPM initialization ...
WARNING: System is not charge neutral, net charge = 0.000144 (../kspace.cpp:313)
  using 12-bit tables for long-range coulomb (../kspace.cpp:332)
  G vector (1/distance) = 0.0650216
  grid = 24 24 24
  stencil order = 5
  estimated absolute RMS force accuracy = 0.0362462
  estimated relative force accuracy = 0.000109154
  using double precision KISS FFT
  3d grid and FFT values/proc = 24389 13824
Neighbor list info ...
  update every 1 steps, delay 10 steps, check yes
  max neighbors/atom: 2000, page size: 100000
  master list distance cutoff = 14
  ghost atom cutoff = 14
  binsize = 7, bins = 66 66 66
  1 neighbor lists, perpetual/occasional/extra = 1 0 0
  (1) pair lj/cut/coul/long, perpetual
      attributes: half, newton on
      pair build: half/bin/newton
      stencil: half/bin/3d/newton
      bin: standard
Per MPI rank memory allocation (min/avg/max) = 22.27 | 22.27 | 22.27 Mbytes
Step Temp E_pair E_mol TotEng Press 
       0     575.5168    1068.2377    266672.43    272514.93   -129.80602 
    2000     492.6702    1191.6456    8913.2064    14191.844 -0.035068839 
Loop time of 26.2677 on 1 procs for 2000 steps with 2784 atoms

Performance: 6.578 ns/day, 3.648 hours/ns, 76.139 timesteps/s
100.0% CPU use with 1 MPI tasks x no OpenMP threads

MPI task timing breakdown:
Section |  min time  |  avg time  |  max time  |%varavg| %total
---------------------------------------------------------------
Pair    | 12.597     | 12.597     | 12.597     |   0.0 | 47.96
Bond    | 2.5737     | 2.5737     | 2.5737     |   0.0 |  9.80
Kspace  | 9.4594     | 9.4594     | 9.4594     |   0.0 | 36.01
Neigh   | 1.5208     | 1.5208     | 1.5208     |   0.0 |  5.79
Comm    | 0.009577   | 0.009577   | 0.009577   |   0.0 |  0.04
Output  | 3.6955e-05 | 3.6955e-05 | 3.6955e-05 |   0.0 |  0.00
Modify  | 0.09062    | 0.09062    | 0.09062    |   0.0 |  0.34
Other   |            | 0.01613    |            |       |  0.06

Nlocal:    2784 ave 2784 max 2784 min
Histogram: 1 0 0 0 0 0 0 0 0 0
Nghost:    0 ave 0 max 0 min
Histogram: 1 0 0 0 0 0 0 0 0 0
Neighs:    289931 ave 289931 max 289931 min
Histogram: 1 0 0 0 0 0 0 0 0 0

Total # of neighbors = 289931
Ave neighs/atom = 104.142
Ave special neighs/atom = 11.158
Neighbor list builds = 166
Dangerous builds = 0
unfix pysimm_md
min_style cg
minimize 0.001 0.001 10000 100000
WARNING: Using 'neigh_modify every 1 delay 0 check yes' setting during minimization (../min.cpp:190)
PPPM initialization ...
  using 12-bit tables for long-range coulomb (../kspace.cpp:332)
  G vector (1/distance) = 0.0650216
  grid = 24 24 24
  stencil order = 5
  estimated absolute RMS force accuracy = 0.0362462
  estimated relative force accuracy = 0.000109154
  using double precision KISS FFT
  3d grid and FFT values/proc = 24389 13824
Per MPI rank memory allocation (min/avg/max) = 23.4 | 23.4 | 23.4 Mbytes
Step Temp E_pair E_mol TotEng Press 
    2000     492.6702    1191.6456    8913.2064    14191.844 -0.035068839 
    2023     492.6702    1045.1602    6901.6138    12033.766    1.8297565 
Loop time of 0.742929 on 1 procs for 23 steps with 2784 atoms

100.1% CPU use with 1 MPI tasks x no OpenMP threads

Minimization stats:
  Stopping criterion = energy tolerance
  Energy initial, next-to-last, final = 
         10104.8520159      7950.61264455       7946.7739633
  Force two-norm initial, final = 1762.15 208.756
  Force max component initial, final = 166.161 61.411
  Final line search alpha, max atom move = 0.00120465 0.0739788
  Iterations, force evaluations = 23 45

MPI task timing breakdown:
Section |  min time  |  avg time  |  max time  |%varavg| %total
---------------------------------------------------------------
Pair    | 0.45413    | 0.45413    | 0.45413    |   0.0 | 61.13
Bond    | 0.065172   | 0.065172   | 0.065172   |   0.0 |  8.77
Kspace  | 0.2206     | 0.2206     | 0.2206     |   0.0 | 29.69
Neigh   | 0          | 0          | 0          |   0.0 |  0.00
Comm    | 3.1471e-05 | 3.1471e-05 | 3.1471e-05 |   0.0 |  0.00
Output  | 0          | 0          | 0          |   0.0 |  0.00
Modify  | 0          | 0          | 0          |   0.0 |  0.00
Other   |            | 0.002992   |            |       |  0.40

Nlocal:    2784 ave 2784 max 2784 min
Histogram: 1 0 0 0 0 0 0 0 0 0
Nghost:    0 ave 0 max 0 min
Histogram: 1 0 0 0 0 0 0 0 0 0
Neighs:    289943 ave 289943 max 289943 min
Histogram: 1 0 0 0 0 0 0 0 0 0

Total # of neighbors = 289943
Ave neighs/atom = 104.146
Ave special neighs/atom = 11.158
Neighbor list builds = 0
Dangerous builds = 0
write_dump all custom pysimm.dump.tmp id q x y z vx vy vz
quit


################################################################################
##################################    Init    ##################################
################################################################################
units           real
atom_style      full
pair_style      lj/cut/coul/long 12.0  12.0
kspace_style    pppm 1e-4
bond_style      harmonic
angle_style     harmonic
dihedral_style  fourier
improper_style  cvff
special_bonds   amber
pair_modify     mix arithmetic
read_data       temp.lmps
  orthogonal box = (-229.757 -229.757 -229.757) to (229.757 229.757 229.757)
  1 by 1 by 1 MPI processor grid
  reading atoms ...
  2842 atoms
  reading velocities ...
  2842 velocities
  scanning bonds ...
  3 = max bonds/atom
  scanning angles ...
  6 = max angles/atom
  scanning dihedrals ...
  24 = max dihedrals/atom
  scanning impropers ...
  2 = max impropers/atom
  reading bonds ...
  3135 bonds
  reading angles ...
  5385 angles
  reading dihedrals ...
  8414 dihedrals
  reading impropers ...
  980 impropers
  4 = max # of 1-2 neighbors
  10 = max # of 1-3 neighbors
  19 = max # of 1-4 neighbors
  22 = max # of special neighbors
  special bonds CPU = 0.00226903 secs
  read_data CPU = 0.0286241 secs
################################################################################

timestep        1
fix             pysimm_md all nve/limit 0.1
run             2000
PPPM initialization ...
WARNING: System is not charge neutral, net charge = 0.000147 (../kspace.cpp:313)
  using 12-bit tables for long-range coulomb (../kspace.cpp:332)
  G vector (1/distance) = 0.064642
  grid = 24 24 24
  stencil order = 5
  estimated absolute RMS force accuracy = 0.0364957
  estimated relative force accuracy = 0.000109906
  using double precision KISS FFT
  3d grid and FFT values/proc = 24389 13824
Neighbor list info ...
  update every 1 steps, delay 10 steps, check yes
  max neighbors/atom: 2000, page size: 100000
  master list distance cutoff = 14
  ghost atom cutoff = 14
  binsize = 7, bins = 66 66 66
  1 neighbor lists, perpetual/occasional/extra = 1 0 0
  (1) pair lj/cut/coul/long, perpetual
      attributes: half, newton on
      pair build: half/bin/newton
      stencil: half/bin/3d/newton
      bin: standard
Per MPI rank memory allocation (min/avg/max) = 22.28 | 22.28 | 22.28 Mbytes
Step Temp E_pair E_mol TotEng Press 
       0    482.89933    1059.9929    166858.82    172008.24   -78.648524 
    2000    423.00203    1166.4562     8838.296    13586.937 -0.075973377 
Loop time of 26.7466 on 1 procs for 2000 steps with 2842 atoms

Performance: 6.461 ns/day, 3.715 hours/ns, 74.776 timesteps/s
100.1% CPU use with 1 MPI tasks x no OpenMP threads

MPI task timing breakdown:
Section |  min time  |  avg time  |  max time  |%varavg| %total
---------------------------------------------------------------
Pair    | 12.909     | 12.909     | 12.909     |   0.0 | 48.27
Bond    | 2.6259     | 2.6259     | 2.6259     |   0.0 |  9.82
Kspace  | 9.5691     | 9.5691     | 9.5691     |   0.0 | 35.78
Neigh   | 1.5242     | 1.5242     | 1.5242     |   0.0 |  5.70
Comm    | 0.0097015  | 0.0097015  | 0.0097015  |   0.0 |  0.04
Output  | 3.6955e-05 | 3.6955e-05 | 3.6955e-05 |   0.0 |  0.00
Modify  | 0.091636   | 0.091636   | 0.091636   |   0.0 |  0.34
Other   |            | 0.01658    |            |       |  0.06

Nlocal:    2842 ave 2842 max 2842 min
Histogram: 1 0 0 0 0 0 0 0 0 0
Nghost:    0 ave 0 max 0 min
Histogram: 1 0 0 0 0 0 0 0 0 0
Neighs:    299289 ave 299289 max 299289 min
Histogram: 1 0 0 0 0 0 0 0 0 0

Total # of neighbors = 299289
Ave neighs/atom = 105.309
Ave special neighs/atom = 11.1583
Neighbor list builds = 162
Dangerous builds = 0
unfix pysimm_md
min_style cg
minimize 0.001 0.001 10000 100000
WARNING: Using 'neigh_modify every 1 delay 0 check yes' setting during minimization (../min.cpp:190)
PPPM initialization ...
  using 12-bit tables for long-range coulomb (../kspace.cpp:332)
  G vector (1/distance) = 0.064642
  grid = 24 24 24
  stencil order = 5
  estimated absolute RMS force accuracy = 0.0364957
  estimated relative force accuracy = 0.000109906
  using double precision KISS FFT
  3d grid and FFT values/proc = 24389 13824
Per MPI rank memory allocation (min/avg/max) = 23.79 | 23.79 | 23.79 Mbytes
Step Temp E_pair E_mol TotEng Press 
    2000    423.00203    1166.4562     8838.296    13586.937 -0.075973377 
    2023    423.00203    1092.4782    6963.8383    11638.501    1.7739726 
Loop time of 0.744144 on 1 procs for 23 steps with 2842 atoms

100.0% CPU use with 1 MPI tasks x no OpenMP threads

Minimization stats:
  Stopping criterion = energy tolerance
  Energy initial, next-to-last, final = 
         10004.7521512       8063.7697425      8056.31657186
  Force two-norm initial, final = 1641.88 185.544
  Force max component initial, final = 171.552 63.3045
  Final line search alpha, max atom move = 0.00137068 0.0867699
  Iterations, force evaluations = 23 45

MPI task timing breakdown:
Section |  min time  |  avg time  |  max time  |%varavg| %total
---------------------------------------------------------------
Pair    | 0.4582     | 0.4582     | 0.4582     |   0.0 | 61.57
Bond    | 0.065369   | 0.065369   | 0.065369   |   0.0 |  8.78
Kspace  | 0.21755    | 0.21755    | 0.21755    |   0.0 | 29.24
Neigh   | 0          | 0          | 0          |   0.0 |  0.00
Comm    | 2.408e-05  | 2.408e-05  | 2.408e-05  |   0.0 |  0.00
Output  | 0          | 0          | 0          |   0.0 |  0.00
Modify  | 0          | 0          | 0          |   0.0 |  0.00
Other   |            | 0.003002   |            |       |  0.40

Nlocal:    2842 ave 2842 max 2842 min
Histogram: 1 0 0 0 0 0 0 0 0 0
Nghost:    0 ave 0 max 0 min
Histogram: 1 0 0 0 0 0 0 0 0 0
Neighs:    299279 ave 299279 max 299279 min
Histogram: 1 0 0 0 0 0 0 0 0 0

Total # of neighbors = 299279
Ave neighs/atom = 105.306
Ave special neighs/atom = 11.1583
Neighbor list builds = 0
Dangerous builds = 0
write_dump all custom pysimm.dump.tmp id q x y z vx vy vz
quit


################################################################################
##################################    Init    ##################################
################################################################################
units           real
atom_style      full
pair_style      lj/cut/coul/long 12.0  12.0
kspace_style    pppm 1e-4
bond_style      harmonic
angle_style     harmonic
dihedral_style  fourier
improper_style  cvff
special_bonds   amber
pair_modify     mix arithmetic
read_data       temp.lmps
  orthogonal box = (-231.341 -231.341 -231.341) to (231.341 231.341 231.341)
  1 by 1 by 1 MPI processor grid
  reading atoms ...
  2900 atoms
  reading velocities ...
  2900 velocities
  scanning bonds ...
  3 = max bonds/atom
  scanning angles ...
  6 = max angles/atom
  scanning dihedrals ...
  24 = max dihedrals/atom
  scanning impropers ...
  2 = max impropers/atom
  reading bonds ...
  3199 bonds
  reading angles ...
  5495 angles
  reading dihedrals ...
  8586 dihedrals
  reading impropers ...
  1000 impropers
  4 = max # of 1-2 neighbors
  10 = max # of 1-3 neighbors
  19 = max # of 1-4 neighbors
  22 = max # of special neighbors
  special bonds CPU = 0.00225687 secs
  read_data CPU = 0.029249 secs
################################################################################

timestep        1
fix             pysimm_md all nve/limit 0.1
run             2000
PPPM initialization ...
WARNING: System is not charge neutral, net charge = 0.00015 (../kspace.cpp:313)
  using 12-bit tables for long-range coulomb (../kspace.cpp:332)
  G vector (1/distance) = 0.0642719
  grid = 24 24 24
  stencil order = 5
  estimated absolute RMS force accuracy = 0.0367393
  estimated relative force accuracy = 0.000110639
  using double precision KISS FFT
  3d grid and FFT values/proc = 24389 13824
Neighbor list info ...
  update every 1 steps, delay 10 steps, check yes
  max neighbors/atom: 2000, page size: 100000
  master list distance cutoff = 14
  ghost atom cutoff = 14
  binsize = 7, bins = 67 67 67
  1 neighbor lists, perpetual/occasional/extra = 1 0 0
  (1) pair lj/cut/coul/long, perpetual
      attributes: half, newton on
      pair build: half/bin/newton
      stencil: half/bin/3d/newton
      bin: standard
Per MPI rank memory allocation (min/avg/max) = 22.73 | 22.73 | 22.73 Mbytes
Step Temp E_pair E_mol TotEng Press 
       0    414.82049    1108.8329    372539.91    377233.36   -174.55983 
    2000    540.43621    1185.8294    9142.7889    14998.727    0.8168805 
Loop time of 27.2351 on 1 procs for 2000 steps with 2900 atoms

Performance: 6.345 ns/day, 3.783 hours/ns, 73.435 timesteps/s
100.1% CPU use with 1 MPI tasks x no OpenMP threads

MPI task timing breakdown:
Section |  min time  |  avg time  |  max time  |%varavg| %total
---------------------------------------------------------------
Pair    | 13.182     | 13.182     | 13.182     |   0.0 | 48.40
Bond    | 2.6782     | 2.6782     | 2.6782     |   0.0 |  9.83
Kspace  | 9.6275     | 9.6275     | 9.6275     |   0.0 | 35.35
Neigh   | 1.6264     | 1.6264     | 1.6264     |   0.0 |  5.97
Comm    | 0.010924   | 0.010924   | 0.010924   |   0.0 |  0.04
Output  | 3.6955e-05 | 3.6955e-05 | 3.6955e-05 |   0.0 |  0.00
Modify  | 0.094125   | 0.094125   | 0.094125   |   0.0 |  0.35
Other   |            | 0.01632    |            |       |  0.06

Nlocal:    2900 ave 2900 max 2900 min
Histogram: 1 0 0 0 0 0 0 0 0 0
Nghost:    0 ave 0 max 0 min
Histogram: 1 0 0 0 0 0 0 0 0 0
Neighs:    308494 ave 308494 max 308494 min
Histogram: 1 0 0 0 0 0 0 0 0 0

Total # of neighbors = 308494
Ave neighs/atom = 106.377
Ave special neighs/atom = 11.1586
Neighbor list builds = 171
Dangerous builds = 0
unfix pysimm_md
min_style cg
minimize 0.001 0.001 10000 100000
WARNING: Using 'neigh_modify every 1 delay 0 check yes' setting during minimization (../min.cpp:190)
PPPM initialization ...
  using 12-bit tables for long-range coulomb (../kspace.cpp:332)
  G vector (1/distance) = 0.0642719
  grid = 24 24 24
  stencil order = 5
  estimated absolute RMS force accuracy = 0.0367393
  estimated relative force accuracy = 0.000110639
  using double precision KISS FFT
  3d grid and FFT values/proc = 24389 13824
Per MPI rank memory allocation (min/avg/max) = 23.85 | 23.85 | 23.85 Mbytes
Step Temp E_pair E_mol TotEng Press 
    2000    540.43621    1185.8294    9142.7889    14998.727    0.8168805 
    2022    540.43621    1107.8466    7098.5216    12876.477    2.2610654 
Loop time of 0.724112 on 1 procs for 22 steps with 2900 atoms

100.0% CPU use with 1 MPI tasks x no OpenMP threads

Minimization stats:
  Stopping criterion = energy tolerance
  Energy initial, next-to-last, final = 
         10328.6182584      8213.96692616      8206.36818405
  Force two-norm initial, final = 1721.96 221.22
  Force max component initial, final = 246.565 114.005
  Final line search alpha, max atom move = 0.00192424 0.219374
  Iterations, force evaluations = 22 41

MPI task timing breakdown:
Section |  min time  |  avg time  |  max time  |%varavg| %total
---------------------------------------------------------------
Pair    | 0.45758    | 0.45758    | 0.45758    |   0.0 | 63.19
Bond    | 0.061446   | 0.061446   | 0.061446   |   0.0 |  8.49
Kspace  | 0.20216    | 0.20216    | 0.20216    |   0.0 | 27.92
Neigh   | 0          | 0          | 0          |   0.0 |  0.00
Comm    | 2.3842e-05 | 2.3842e-05 | 2.3842e-05 |   0.0 |  0.00
Output  | 0          | 0          | 0          |   0.0 |  0.00
Modify  | 0          | 0          | 0          |   0.0 |  0.00
Other   |            | 0.0029     |            |       |  0.40

Nlocal:    2900 ave 2900 max 2900 min
Histogram: 1 0 0 0 0 0 0 0 0 0
Nghost:    0 ave 0 max 0 min
Histogram: 1 0 0 0 0 0 0 0 0 0
Neighs:    308487 ave 308487 max 308487 min
Histogram: 1 0 0 0 0 0 0 0 0 0

Total # of neighbors = 308487
Ave neighs/atom = 106.375
Ave special neighs/atom = 11.1586
Neighbor list builds = 0
Dangerous builds = 0
write_dump all custom pysimm.dump.tmp id q x y z vx vy vz
quit
